Title
82323
    1SAPS     N    1   1.235   0.639  36.262  0.2284 -0.5697 -0.1098
    1SAPS   HN1    2   1.312   0.702  36.232  1.0152 -0.3785  2.1185
    1SAPS   HN2    3   1.145   0.664  36.216 -0.0150 -0.1841  0.5633
    1SAPS   HN3    4   1.236   0.655  36.365 -1.1604  0.7095 -0.2548
    1SAPS   C12    5   1.276   0.494  36.234  0.2717  0.0619  0.3170
    1SAPS  H12A    6   1.187   0.442  36.268 -1.5523  1.1718 -2.4502
    1SAPS   C13    7   1.301   0.453  36.084 -0.0154 -0.7562 -0.4649
    1SAPS  O13A    8   1.287   0.531  35.990  0.1568 -0.2710  0.4723
    1SAPS  O13B    9   1.344   0.340  36.063  0.1680 -0.6718  1.0857
    1SAPS   C11   10   1.404   0.455  36.323  0.1193 -0.0522  0.1897
    1SAPS  H11A   11   1.480   0.536  36.323  0.0448  0.0739 -1.9060
    1SAPS  H11B   12   1.448   0.368  36.270 -1.2010 -0.3794 -0.4128
    1SAPS     P   13   1.377   0.505  36.572 -0.0248  0.0868  0.1212
    1SAPS   O13   14   1.321   0.631  36.520  0.2596  0.1507 -0.1502
    1SAPS   O14   15   1.321   0.453  36.698 -0.3855 -0.0357 -0.0864
    1SAPS   O12   16   1.365   0.405  36.451  0.1582  0.1000  0.0761
    1SAPS   O11   17   1.536   0.519  36.591  0.0235 -1.1388 -0.0291
    1SAPS    C1   18   1.614   0.399  36.581 -0.3117 -0.6004  0.3271
    1SAPS    HA   19   1.590   0.334  36.494  0.7386 -1.0689  0.3702
    1SAPS    HB   20   1.717   0.432  36.558 -0.3627 -0.7020 -0.0548
    1SAPS    C2   21   1.622   0.318  36.714 -0.1350  0.2786 -0.3891
    1SAPS    HS   22   1.524   0.266  36.727  0.4610 -0.5697  0.9527
    1SAPS   O21   23   1.652   0.391  36.830 -0.0091 -0.2444  0.3878
    1SAPS   C21   24   1.605   0.345  36.944 -0.0034  1.1230 -0.4729
    1SAPS   O22   25   1.524   0.253  36.958  0.1878 -0.3737  0.3814
    1SAPS   C22   26   1.675   0.423  37.055 -0.3447  0.1099  0.3789
    1SAPS   H2R   27   1.783   0.420  37.031 -0.8456  1.3323 -2.4018
    1SAPS   H2S   28   1.639   0.528  37.047 -0.7986 -0.1621 -2.0656
    1SAPS    C3   29   1.737   0.209  36.710  0.0825 -0.1040 -0.1708
    1SAPS    HX   30   1.702   0.141  36.630  0.6180  0.8104 -1.2133
    1SAPS    HY   31   1.725   0.162  36.810 -0.7984  2.9722  1.2885
    1SAPS   O31   32   1.873   0.259  36.712  0.4166 -0.1554  0.4316
    1SAPS   C31   33   1.927   0.250  36.586 -0.1463 -0.3944 -0.0505
    1SAPS   O32   34   1.880   0.213  36.486 -0.0499  0.1273  0.7659
    1SAPS   C32   35   2.075   0.266  36.598 -0.0598  0.5178  0.3052
    1SAPS   H2X   36   2.090   0.347  36.672 -0.1287  0.5821  0.2498
    1SAPS   H2Y   37   2.115   0.299  36.500  0.3638 -3.1051 -0.8908
    1SAPS   C23   38   1.628   0.378  37.188 -0.5662 -0.2111  0.6361
    1SAPS   H3R   39   1.517   0.388  37.195 -0.4533  1.4457  0.6024
    1SAPS   H3S   40   1.663   0.458  37.256 -1.7961  2.7492 -1.9218
    1SAPS   C24   41   1.676   0.241  37.232 -1.1967  0.1026  0.8012
    1SAPS   H4R   42   1.782   0.261  37.261 -0.6171 -0.4665 -0.7590
    1SAPS   H4S   43   1.685   0.172  37.144 -0.8675  0.1181  0.8196
    1SAPS   C25   44   1.601   0.160  37.335 -0.1473  0.6553  1.0314
    1SAPS   H5R   45   1.497   0.142  37.305  0.1882 -0.6681  0.5782
    1SAPS   C26   46   1.639   0.123  37.457 -0.1335  0.2528 -0.5961
    1SAPS   H6R   47   1.572   0.065  37.522 -1.0206  1.1813 -0.6612
    1SAPS   C27   48   1.774   0.161  37.517  0.1719  0.5671  0.5824
    1SAPS   H7R   49   1.842   0.208  37.443 -0.8765 -0.8827 -1.3997
    1SAPS   H7S   50   1.832   0.068  37.532 -1.3771 -0.5465  0.0038
    1SAPS   C28   51   1.773   0.241  37.647  0.2099 -0.1663  0.5802
    1SAPS   H8R   52   1.722   0.190  37.730  1.6229 -1.7809  0.5403
    1SAPS   C29   53   1.824   0.367  37.668  0.2438  0.0589 -0.0932
    1SAPS   H9R   54   1.796   0.409  37.765 -0.8482 -1.4727  0.2938
    1SAPS  C210   55   1.886   0.448  37.547  0.0313 -0.2508 -0.1179
    1SAPS  H10R   56   1.798   0.484  37.488 -1.7722 -1.6538  1.5883
    1SAPS  H10S   57   1.950   0.386  37.480 -0.6053  0.4376 -1.3936
    1SAPS  C211   58   1.962   0.573  37.592 -0.1949 -0.3008 -0.6269
    1SAPS  H11R   59   1.899   0.662  37.606 -2.8864 -1.6698 -3.0463
    1SAPS  C212   60   2.099   0.582  37.607  0.3774  0.0967  0.4415
    1SAPS  H12R   61   2.139   0.679  37.641  1.9183  0.2845 -1.7164
    1SAPS  C213   62   2.201   0.480  37.592 -0.7010  0.0083 -0.1414
    1SAPS  H13R   63   2.191   0.420  37.499  0.8690 -0.8632  0.2205
    1SAPS  H13S   64   2.186   0.397  37.665  2.0993  0.4277  1.0521
    1SAPS  C214   65   2.340   0.547  37.604  0.4909  0.2243 -0.0351
    1SAPS  H14R   66   2.364   0.581  37.706 -3.0242  0.0684  1.0014
    1SAPS  C215   67   2.439   0.545  37.513 -0.0093 -0.2568 -1.0016
    1SAPS  H15R   68   2.526   0.612  37.525 -0.3209  0.5399 -2.7945
    1SAPS  C216   69   2.435   0.494  37.373 -0.8915  0.5518  0.6875
    1SAPS  H16R   70   2.475   0.568  37.301 -0.9701 -1.5541 -1.6847
    1SAPS  H16S   71   2.329   0.478  37.347 -0.5057 -3.0318  0.7870
    1SAPS  C217   72   2.515   0.370  37.339  0.1619  0.0065 -0.5280
    1SAPS  H17R   73   2.500   0.360  37.229  0.8688  0.5981 -0.6856
    1SAPS  H17S   74   2.465   0.286  37.391 -2.4722  1.7072 -0.0853
    1SAPS  C218   75   2.658   0.370  37.387 -0.2709  0.0971 -0.2630
    1SAPS  H18R   76   2.673   0.350  37.496  0.9715  0.7947 -0.2925
    1SAPS  H18S   77   2.698   0.473  37.375 -1.5801  0.8560  1.4520
    1SAPS  C219   78   2.747   0.266  37.309 -0.3385 -0.1576  0.9063
    1SAPS  H19R   79   2.752   0.312  37.208 -1.9976 -0.0729  0.8320
    1SAPS  H19S   80   2.707   0.165  37.288 -2.9995  1.4947 -3.4499
    1SAPS  C220   81   2.889   0.269  37.375 -0.1419 -0.3533 -0.0219
    1SAPS  H20R   82   2.876   0.225  37.476 -3.4609  1.5863  0.5618
    1SAPS  H20S   83   2.916   0.375  37.391  0.9772 -0.5421 -0.5397
    1SAPS  H20T   84   2.967   0.213  37.319  1.4437  1.0345  0.7214
    1SAPS   C33   85   2.139   0.125  36.622 -0.7195  0.5501 -0.5857
    1SAPS   H3X   86   2.247   0.151  36.619 -0.7085  0.7618  0.8788
    1SAPS   H3Y   87   2.118   0.045  36.547  2.2679  0.3221 -1.3252
    1SAPS   C34   88   2.123   0.073  36.764  0.7097  0.7167 -0.2824
    1SAPS   H4X   89   2.019   0.076  36.803  0.5776 -0.8416 -0.4435
    1SAPS   H4Y   90   2.170   0.141  36.838  1.6087 -1.9463  1.7615
    1SAPS   C35   91   2.187  -0.062  36.789 -0.1413 -0.1363 -0.0648
    1SAPS   H5X   92   2.209  -0.063  36.898  1.1341  0.5102 -0.3017
    1SAPS   H5Y   93   2.281  -0.072  36.731 -0.8010 -1.3643 -0.9723
    1SAPS   C36   94   2.100  -0.182  36.760  0.2669 -0.4692 -0.0917
    1SAPS   H6X   95   2.083  -0.189  36.651  0.4132  1.4693 -0.2634
    1SAPS   H6Y   96   2.003  -0.158  36.808  0.3169  2.3299 -1.2417
    1SAPS   C37   97   2.161  -0.307  36.822  0.0504  0.4104  0.4676
    1SAPS   H7X   98   2.169  -0.288  36.931  0.1191  0.7841  0.3966
    1SAPS   H7Y   99   2.259  -0.335  36.778 -0.3367 -1.4345  0.6732
    1SAPS   C38  100   2.058  -0.416  36.803 -0.3913  0.5554 -0.2267
    1SAPS   H8X  101   2.011  -0.426  36.703 -1.0577  0.9585  0.0410
    1SAPS   H8Y  102   1.965  -0.389  36.857 -0.5589 -0.6442  0.1201
    1SAPS   C39  103   2.102  -0.559  36.850  0.6164  0.1588 -0.0265
    1SAPS   H9X  104   2.019  -0.633  36.851  2.0561 -1.5108  0.6003
    1SAPS   H9Y  105   2.131  -0.544  36.956  1.3737  2.6251 -0.5318
    1SAPS  C310  106   2.215  -0.616  36.771  0.8209 -0.1393 -0.0716
    1SAPS  H10X  107   2.259  -0.697  36.833  0.8136 -0.1150 -0.0348
    1SAPS  H10Y  108   2.292  -0.543  36.737 -1.3503  2.1693 -0.2732
    1SAPS  C311  109   2.191  -0.680  36.630  0.2133  0.2993  0.2978
    1SAPS  H11X  110   2.146  -0.599  36.569 -1.8809 -1.6787 -0.9686
    1SAPS  H11Y  111   2.110  -0.756  36.634 -0.0899  0.5352 -0.9785
    1SAPS  C312  112   2.313  -0.746  36.569  0.7262 -0.0711 -0.1371
    1SAPS  H12X  113   2.328  -0.849  36.608 -0.0465  0.1193  0.6903
    1SAPS  H12Y  114   2.401  -0.681  36.587  1.5645 -1.6704  1.8847
    1SAPS  C313  115   2.321  -0.771  36.418 -0.4729  0.0104  0.8168
    1SAPS  H13X  116   2.428  -0.776  36.389 -1.0504  1.0479 -1.6989
    1SAPS  H13Y  117   2.284  -0.686  36.357  0.4002  0.6896  1.2063
    1SAPS  C314  118   2.257  -0.898  36.366  0.7456  0.3443 -1.1601
    1SAPS  H14X  119   2.152  -0.902  36.403  1.3438 -0.1687  0.5805
    1SAPS  H14Y  120   2.301  -0.988  36.413 -0.8987  0.4664  0.7337
    1SAPS  C315  121   2.272  -0.911  36.215 -0.0309  0.2235  0.0986
    1SAPS  H15X  122   2.220  -1.005  36.184 -0.0072  0.0667  0.5194
    1SAPS  H15Y  123   2.379  -0.925  36.187 -0.5228 -0.8296 -1.3821
    1SAPS  C316  124   2.193  -0.805  36.140  0.8576  0.1097  0.8876
    1SAPS  H16X  125   2.246  -0.708  36.156 -1.1498  1.4184 -0.0386
    1SAPS  H16Y  126   2.089  -0.800  36.180 -1.1682 -0.3433 -3.7017
    1SAPS  C317  127   2.191  -0.846  35.987 -0.0177  0.7844 -0.1563
    1SAPS  H17X  128   2.163  -0.951  35.968  0.3642  0.8553 -1.1470
    1SAPS  H17Y  129   2.291  -0.839  35.940 -0.8766  0.0507 -2.1835
    1SAPS  C318  130   2.102  -0.752  35.902  0.4744  0.0201 -0.3904
    1SAPS  H18X  131   2.086  -0.796  35.801  0.2069 -0.2418 -0.2387
    1SAPS  H18Y  132   2.142  -0.649  35.898  0.6082 -0.0478 -3.6397
    1SAPS  H18Z  133   2.007  -0.740  35.958  1.5523 -1.5006  1.9334
    2SAPS     N  134   1.193   2.979  36.208 -0.4101 -0.3281  0.0293
    2SAPS   HN1  135   1.223   2.951  36.112 -0.1850 -2.5885  0.6920
    2SAPS   HN2  136   1.197   2.891  36.263 -1.2722 -0.2464  0.2270
    2SAPS   HN3  137   1.101   3.026  36.213 -0.0860  0.5096 -1.3410
    2SAPS   C12  138   1.314   3.064  36.257  0.0304  0.2855  0.9009
    2SAPS  H12A  139   1.330   3.151  36.195 -0.9014 -0.9109 -1.0963
    2SAPS   C13  140   1.330   3.081  36.406  0.0580  0.4784 -0.6076
    2SAPS  O13A  141   1.261   3.005  36.483 -0.6229  0.0568  0.0359
    2SAPS  O13B  142   1.418   3.164  36.446  0.4606 -0.2880  0.1479
    2SAPS   C11  143   1.439   2.973  36.231  0.8650  0.8250 -0.0724
    2SAPS  H11A  144   1.438   2.885  36.299 -1.8269  0.1280 -0.8851
    2SAPS  H11B  145   1.533   3.030  36.248  1.7722 -0.3909 -0.7801
    2SAPS     P  146   1.543   2.860  36.015  0.1277 -0.0536 -0.0151
    2SAPS   O13  147   1.586   2.745  36.095  0.3177  0.2611 -0.3755
    2SAPS   O14  148   1.484   2.826  35.878  0.2276 -1.1980  0.1249
    2SAPS   O12  149   1.428   2.927  36.098  0.2933 -0.8090  0.0725
    2SAPS   O11  150   1.655   2.972  35.997  0.0336  0.1792  0.0030
    2SAPS    C1  151   1.620   3.103  35.943 -0.7173 -0.0505  0.0617
    2SAPS    HA  152   1.538   3.102  35.868  0.3723 -0.5501 -1.1756
    2SAPS    HB  153   1.595   3.170  36.028  1.6987  0.4416  0.4611
    2SAPS    C2  154   1.746   3.170  35.871 -0.4006 -0.1935  0.2091
    2SAPS    HS  155   1.708   3.227  35.783  0.5461 -1.0067 -0.7607
    2SAPS   O21  156   1.842   3.071  35.823 -0.5427 -0.2144  0.0407
    2SAPS   C21  157   1.801   3.008  35.722  0.0865 -0.6561 -0.2111
    2SAPS   O22  158   1.699   3.018  35.661 -0.2978  0.3421  0.0529
    2SAPS   C22  159   1.891   2.901  35.682  0.2461  0.1832  0.1754
    2SAPS   H2R  160   1.997   2.922  35.710  0.1850 -0.6157  1.0357
    2SAPS   H2S  161   1.875   2.805  35.735 -1.7383  0.5360  0.2828
    2SAPS    C3  162   1.811   3.274  35.967  0.3238 -0.0142 -0.4196
    2SAPS    HX  163   1.832   3.218  36.060 -1.3690 -2.5235 -1.4584
    2SAPS    HY  164   1.727   3.345  35.985  1.3221  0.6304  2.0437
    2SAPS   O31  165   1.928   3.349  35.917  0.4041 -0.0800 -0.0687
    2SAPS   C31  166   1.964   3.437  36.011  0.0691 -0.4981 -0.5043
    2SAPS   O32  167   1.907   3.450  36.117 -0.5476  0.3351  0.2617
    2SAPS   C32  168   2.070   3.524  35.953 -1.0820 -0.0953  0.0755
    2SAPS   H2X  169   2.045   3.584  35.863  2.8171  1.1690 -0.3410
    2SAPS   H2Y  170   2.145   3.446  35.931  0.3065  0.0103  3.6703
    2SAPS   C23  171   1.880   2.883  35.529 -0.2258 -0.0245  0.0194
    2SAPS   H3R  172   1.911   2.970  35.467 -1.4394  0.6956  0.3900
    2SAPS   H3S  173   1.776   2.856  35.498  0.2410 -1.9486 -0.0175
    2SAPS   C24  174   1.952   2.755  35.491 -0.0144 -0.2397  0.3097
    2SAPS   H4R  175   1.911   2.728  35.392 -0.7639 -1.3015  0.8996
    2SAPS   H4S  176   1.931   2.664  35.551 -1.2003 -1.8447 -2.3445
    2SAPS   C25  177   2.101   2.782  35.465 -0.4649  0.2372  0.2179
    2SAPS   H5R  178   2.158   2.783  35.559 -1.0905  0.9278  0.6024
    2SAPS   C26  179   2.160   2.811  35.343 -0.4233  0.2613  0.1287
    2SAPS   H6R  180   2.269   2.800  35.335 -0.4691 -4.8944  2.4327
    2SAPS   C27  181   2.090   2.825  35.210  0.2863 -0.9560  0.7582
    2SAPS   H7R  182   1.999   2.761  35.205 -1.7451  1.7470  1.0328
    2SAPS   H7S  183   2.168   2.788  35.139  0.5506 -2.6666  1.8868
    2SAPS   C28  184   2.049   2.972  35.183 -0.3474  0.7041 -0.3143
    2SAPS   H8R  185   2.025   3.026  35.276  0.0170 -0.0235  0.2134
    2SAPS   C29  186   2.038   3.025  35.063 -0.9335 -0.1250 -0.1146
    2SAPS   H9R  187   1.996   3.127  35.055 -0.9746 -0.1723 -0.5310
    2SAPS  C210  188   2.073   2.952  34.932  0.1243  0.4538  0.5626
    2SAPS  H10R  189   2.050   2.845  34.950 -1.0284  1.0627  3.1529
    2SAPS  H10S  190   2.182   2.950  34.911 -0.1503 -1.8945 -1.0192
    2SAPS  C211  191   1.998   3.016  34.814 -0.3387  0.7524  0.2423
    2SAPS  H11R  192   1.968   3.121  34.830  0.6885  0.7741  2.3592
    2SAPS  C212  193   1.978   2.949  34.692 -0.0820  0.1265 -0.4054
    2SAPS  H12R  194   1.928   3.002  34.609  0.1473 -2.4533 -2.3432
    2SAPS  C213  195   2.036   2.809  34.662  0.0502 -0.5211  0.1153
    2SAPS  H13R  196   2.136   2.796  34.709 -0.1469  0.7236  0.9293
    2SAPS  H13S  197   2.044   2.791  34.553  0.5871 -1.3400  0.2796
    2SAPS  C214  198   1.951   2.698  34.714 -0.1008  0.2294 -0.4484
    2SAPS  H14R  199   1.866   2.725  34.778  0.3932 -1.1343  0.8557
    2SAPS  C215  200   1.979   2.566  34.696 -0.0616 -0.2713  0.3842
    2SAPS  H15R  201   1.911   2.488  34.733 -1.5657  1.0138  0.4290
    2SAPS  C216  202   2.099   2.512  34.628  0.4858  0.1269 -0.3343
    2SAPS  H16R  203   2.120   2.571  34.536 -1.8079  0.6707 -0.5528
    2SAPS  H16S  204   2.108   2.403  34.608  4.5759 -0.2375  2.2024
    2SAPS  C217  205   2.236   2.507  34.709 -0.8650 -0.6695  0.6823
    2SAPS  H17R  206   2.269   2.613  34.714 -0.6052 -0.7552  0.7711
    2SAPS  H17S  207   2.318   2.470  34.644  1.3338  0.6920  2.5620
    2SAPS  C218  208   2.247   2.437  34.848  0.4210 -0.2911  1.3771
    2SAPS  H18R  209   2.260   2.329  34.825 -0.2656 -0.2218  0.6067
    2SAPS  H18S  210   2.160   2.445  34.917 -0.7658 -0.7360 -0.0049
    2SAPS  C219  211   2.375   2.482  34.924  0.3940 -1.1144  0.5755
    2SAPS  H19R  212   2.446   2.537  34.859  2.0506 -1.3754  2.0918
    2SAPS  H19S  213   2.433   2.396  34.963  2.4420  0.6393  1.6395
    2SAPS  C220  214   2.351   2.578  35.040  0.0689  0.1481  0.1692
    2SAPS  H20R  215   2.287   2.531  35.117  1.9091 -3.1289 -0.1371
    2SAPS  H20S  216   2.287   2.661  35.001  0.6510  0.9434  0.8610
    2SAPS  H20T  217   2.450   2.616  35.072  0.0993  1.2753 -1.1221
    2SAPS   C33  218   2.122   3.615  36.074  0.0859  0.2433 -0.6571
    2SAPS   H3X  219   2.032   3.667  36.114  0.8836  1.5673 -0.5082
    2SAPS   H3Y  220   2.192   3.687  36.025  2.0937 -2.4476 -2.0240
    2SAPS   C34  221   2.192   3.531  36.183 -0.0290 -0.0686  0.3819
    2SAPS   H4X  222   2.253   3.454  36.132  0.9420  0.6851  0.3663
    2SAPS   H4Y  223   2.114   3.483  36.245 -0.7039 -0.4448 -0.7337
    2SAPS   C35  224   2.280   3.615  36.271 -0.0588 -0.6382 -0.4819
    2SAPS   H5X  225   2.211   3.685  36.323  2.8151  1.9284  0.1823
    2SAPS   H5Y  226   2.329   3.694  36.209  0.0786 -0.1264  0.2628
    2SAPS   C36  227   2.371   3.535  36.350  0.1465  0.0169  0.4567
    2SAPS   H6X  228   2.427   3.464  36.286  0.1445  0.8735 -0.5254
    2SAPS   H6Y  229   2.325   3.474  36.431  1.4103 -1.9199 -0.2111
    2SAPS   C37  230   2.475   3.633  36.417 -0.2227  0.1253  0.8287
    2SAPS   H7X  231   2.433   3.706  36.489 -2.3334  0.1552 -0.3497
    2SAPS   H7Y  232   2.508   3.697  36.332  1.9562 -0.2221  1.3466
    2SAPS   C38  233   2.597   3.554  36.468 -0.1938 -0.0558 -0.6791
    2SAPS   H8X  234   2.674   3.632  36.484  0.2855 -0.6087 -0.2466
    2SAPS   H8Y  235   2.625   3.492  36.380 -0.8570  0.4171 -1.2354
    2SAPS   C39  236   2.569   3.478  36.600  0.4888 -0.8785  0.7820
    2SAPS   H9X  237   2.501   3.393  36.579 -1.4442  0.7257  0.2466
    2SAPS   H9Y  238   2.522   3.557  36.663  1.1813  1.6028 -1.5888
    2SAPS  C310  239   2.694   3.433  36.673  0.0833 -0.2581  0.3888
    2SAPS  H10X  240   2.743   3.533  36.684 -2.2682  1.0355 -0.0843
    2SAPS  H10Y  241   2.765   3.372  36.614 -0.0623  1.9164 -2.2150
    2SAPS  C311  242   2.655   3.383  36.812 -0.7232 -0.0755  0.2828
    2SAPS  H11X  243   2.563   3.322  36.808 -0.8607  0.0398  1.3219
    2SAPS  H11Y  244   2.616   3.464  36.878 -1.3411  0.0833 -0.2708
    2SAPS  C312  245   2.776   3.322  36.877  0.2577  0.0889 -0.2436
    2SAPS  H12X  246   2.751   3.327  36.985 -0.6931  2.5931 -0.4983
    2SAPS  H12Y  247   2.862   3.393  36.867 -1.4084  1.9527 -2.3668
    2SAPS  C313  248   2.803   3.175  36.833  0.5882  1.1514 -1.3997
    2SAPS  H13X  249   2.899   3.161  36.887  0.2558  1.3242 -0.7620
    2SAPS  H13Y  250   2.823   3.181  36.724  0.0138  2.6245 -1.4479
    2SAPS  C314  251   2.696   3.071  36.874 -0.7372  0.6309 -0.8765
    2SAPS  H14X  252   2.600   3.107  36.830 -1.5046 -1.3403 -0.9227
    2SAPS  H14Y  253   2.679   3.060  36.983  2.0078 -1.4415 -0.5724
    2SAPS  C315  254   2.731   2.924  36.834 -0.1881 -0.2865 -0.4911
    2SAPS  H15X  255   2.824   2.882  36.879 -1.6737 -1.9274  1.2427
    2SAPS  H15Y  256   2.731   2.930  36.723  1.1083 -0.4477 -0.5182
    2SAPS  C316  257   2.633   2.820  36.876 -0.5712  0.4438  0.0643
    2SAPS  H16X  258   2.530   2.831  36.835 -1.8278 -0.3012  2.8345
    2SAPS  H16Y  259   2.616   2.836  36.984  1.6546  1.4494  0.3252
    2SAPS  C317  260   2.679   2.682  36.846 -0.5966 -0.1954  0.8494
    2SAPS  H17X  261   2.787   2.658  36.862  0.2678  0.0232 -3.4129
    2SAPS  H17Y  262   2.676   2.664  36.737  4.4795  0.4700  0.3592
    2SAPS  C318  263   2.595   2.581  36.914 -0.3845  0.4048 -0.4763
    2SAPS  H18X  264   2.594   2.585  37.025  2.1038  1.1485 -0.4153
    2SAPS  H18Y  265   2.623   2.474  36.899  0.7655  0.1755  2.6518
    2SAPS  H18Z  266   2.486   2.589  36.893 -0.4033 -0.6684 -0.8731
    3SAPS     N  267   1.173   2.764  36.582  0.3061  0.1561  0.0845
    3SAPS   HN1  268   1.077   2.793  36.557  1.0351  2.6397 -0.0456
    3SAPS   HN2  269   1.174   2.741  36.684 -1.7750 -0.9600 -0.0896
    3SAPS   HN3  270   1.223   2.849  36.550 -0.2093  0.7756  0.8914
    3SAPS   C12  271   1.214   2.636  36.516  0.2027 -0.8120 -0.5247
    3SAPS  H12A  272   1.140   2.562  36.545 -1.8041  0.1311 -2.8919
    3SAPS   C13  273   1.212   2.645  36.361 -0.7054 -0.4872 -0.5004
    3SAPS  O13A  274   1.158   2.740  36.300 -0.0401  0.8453  0.4962
    3SAPS  O13B  275   1.226   2.534  36.302 -0.3762  0.3239  0.2673
    3SAPS   C11  276   1.358   2.605  36.556  0.1303 -0.3694 -0.3526
    3SAPS  H11A  277   1.427   2.692  36.549 -0.4892  0.5686  3.2351
    3SAPS  H11B  278   1.404   2.526  36.493 -0.6795 -0.0717 -1.3318
    3SAPS     P  279   1.380   2.407  36.733  0.3492  0.1618  0.1647
    3SAPS   O13  280   1.410   2.396  36.877 -0.2408  0.2432  0.5986
    3SAPS   O14  281   1.264   2.336  36.679  0.5086 -0.6317 -0.7868
    3SAPS   O12  282   1.364   2.559  36.696  0.2858  0.4416  0.3357
    3SAPS   O11  283   1.502   2.357  36.638  0.3716 -0.0569 -0.8834
    3SAPS    C1  284   1.631   2.425  36.653 -0.0298  0.1560  0.0156
    3SAPS    HA  285   1.623   2.536  36.653 -0.2776  0.1379  0.2657
    3SAPS    HB  286   1.681   2.397  36.748 -1.5149  1.2215  1.1526
    3SAPS    C2  287   1.732   2.387  36.539 -0.7825 -0.1730  0.5275
    3SAPS    HS  288   1.690   2.419  36.442 -0.2973  1.1269  0.7222
    3SAPS   O21  289   1.759   2.248  36.528 -0.2572  0.1451 -0.1166
    3SAPS   C21  290   1.831   2.194  36.434 -0.0107  0.8429 -0.5802
    3SAPS   O22  291   1.877   2.252  36.337  0.3961 -0.0205 -0.3867
    3SAPS   C22  292   1.859   2.047  36.477  0.2615  0.0996  0.0384
    3SAPS   H2R  293   1.762   2.002  36.505  0.3662 -0.5208 -0.5728
    3SAPS   H2S  294   1.910   1.996  36.393  0.9493 -0.5374  0.8331
    3SAPS    C3  295   1.872   2.461  36.562  0.5023 -0.3388 -0.3010
    3SAPS    HX  296   1.959   2.442  36.496  1.6090  0.7169  0.8070
    3SAPS    HY  297   1.914   2.408  36.650 -0.4903 -2.9641 -1.2977
    3SAPS   O31  298   1.851   2.603  36.581 -0.1451  0.1218 -0.0767
    3SAPS   C31  299   1.881   2.675  36.467  0.4096  0.0860 -0.2390
    3SAPS   O32  300   1.918   2.624  36.362 -0.2165 -0.0593  0.4201
    3SAPS   C32  301   1.827   2.818  36.493  0.1136  0.3403  1.1274
    3SAPS   H2X  302   1.887   2.863  36.575  3.7416 -0.7735 -0.7077
    3SAPS   H2Y  303   1.718   2.826  36.513 -0.5651  2.2722 -2.3689
    3SAPS   C23  304   1.950   2.051  36.607  0.4324  0.3270 -0.2497
    3SAPS   H3R  305   1.905   2.098  36.697 -1.8879 -0.7483 -0.7674
    3SAPS   H3S  306   2.039   2.113  36.582  0.2659  0.8684  0.4763
    3SAPS   C24  307   1.994   1.907  36.650  0.6931  0.2103  0.6123
    3SAPS   H4R  308   1.906   1.846  36.677  0.0696  0.9222  0.2391
    3SAPS   H4S  309   2.049   1.931  36.743 -1.6061 -0.6505  2.2909
    3SAPS   C25  310   2.084   1.847  36.546  1.1895 -0.3348  0.3808
    3SAPS   H5R  311   2.169   1.912  36.520  0.6909 -0.0426 -0.5496
    3SAPS   C26  312   2.067   1.728  36.488  0.8214  0.6347  1.3516
    3SAPS   H6R  313   2.137   1.708  36.406  0.4119 -2.5401  1.6480
    3SAPS   C27  314   1.963   1.624  36.531 -0.0037 -0.2563 -0.2520
    3SAPS   H7R  315   1.925   1.645  36.633 -1.7469  0.4985 -1.0021
    3SAPS   H7S  316   1.996   1.518  36.532  0.3601 -0.1595  1.6138
    3SAPS   C28  317   1.830   1.638  36.456 -0.4497 -0.1820  0.2093
    3SAPS   H8R  318   1.780   1.733  36.477 -2.3150 -0.9587 -0.4507
    3SAPS   C29  319   1.772   1.546  36.377 -0.5540 -1.3883  0.1092
    3SAPS   H9R  320   1.681   1.576  36.323 -1.5228 -1.0297  1.8660
    3SAPS  C210  321   1.832   1.413  36.343  0.2477 -0.6517 -0.0811
    3SAPS  H10R  322   1.796   1.342  36.421 -1.1384  0.2881  0.1658
    3SAPS  H10S  323   1.942   1.408  36.352  0.1643 -3.0464  0.3160
    3SAPS  C211  324   1.791   1.356  36.208 -0.2190  0.4277 -0.3280
    3SAPS  H11R  325   1.736   1.262  36.205 -1.6316  1.2239 -0.0819
    3SAPS  C212  326   1.836   1.402  36.090 -0.1233 -0.1045  0.2558
    3SAPS  H12R  327   1.799   1.358  35.996  3.2692 -0.8606 -0.8935
    3SAPS  C213  328   1.938   1.506  36.069 -1.1084  0.4542 -0.0662
    3SAPS  H13R  329   1.918   1.590  36.139 -0.6057  1.6986 -1.3494
    3SAPS  H13S  330   1.933   1.549  35.966  1.9508 -4.4375 -2.6608
    3SAPS  C214  331   2.080   1.459  36.093 -1.0282 -0.1007 -0.0332
    3SAPS  H14R  332   2.102   1.415  36.191  0.2388 -1.9301 -1.0857
    3SAPS  C215  333   2.188   1.486  36.012  0.6684 -0.5970  0.8951
    3SAPS  H15R  334   2.281   1.435  36.041  0.6172 -0.5032  1.2278
    3SAPS  C216  335   2.182   1.551  35.878 -0.5886  0.6032  0.6308
    3SAPS  H16R  336   2.212   1.658  35.884 -1.4115  0.9089 -0.4757
    3SAPS  H16S  337   2.077   1.547  35.843 -0.9402  3.5012  1.1188
    3SAPS  C217  338   2.274   1.497  35.764 -0.4587  0.1405 -0.5982
    3SAPS  H17R  339   2.229   1.541  35.673 -2.4218  1.1552  0.7871
    3SAPS  H17S  340   2.266   1.386  35.763  0.2168  0.0795  0.0144
    3SAPS  C218  341   2.419   1.544  35.782 -0.0557 -0.2244 -0.8136
    3SAPS  H18R  342   2.459   1.510  35.880  0.9673  0.5353 -0.9564
    3SAPS  H18S  343   2.431   1.654  35.772 -1.2375  0.0849  0.8348
    3SAPS  C219  344   2.520   1.477  35.682 -0.4960 -0.0941  0.0813
    3SAPS  H19R  345   2.491   1.517  35.583 -3.6731  0.5391  1.1536
    3SAPS  H19S  346   2.529   1.366  35.687  0.2929 -0.0113  0.7206
    3SAPS  C220  347   2.662   1.525  35.694 -0.2027  0.1775  0.1770
    3SAPS  H20R  348   2.687   1.520  35.802 -1.2812 -3.8572  0.3918
    3SAPS  H20S  349   2.676   1.628  35.653 -1.1453  0.1105 -0.3468
    3SAPS  H20T  350   2.735   1.460  35.643 -1.6402 -0.2259 -1.4565
    3SAPS   C33  351   1.848   2.912  36.362  0.0600  0.3697  0.6195
    3SAPS   H3X  352   1.785   3.003  36.375 -1.5896 -0.6624  0.1955
    3SAPS   H3Y  353   1.814   2.845  36.280  2.3837 -0.8601  0.5813
    3SAPS   C34  354   1.994   2.948  36.333  0.7066  0.3082  0.1804
    3SAPS   H4X  355   2.047   2.851  36.324  2.1944  0.8331  2.4425
    3SAPS   H4Y  356   2.050   2.996  36.416  0.8784  0.4663 -0.0264
    3SAPS   C35  357   2.008   3.038  36.206  0.6424 -0.0944 -0.0590
    3SAPS   H5X  358   1.965   3.140  36.218  0.3604 -0.1079 -0.8662
    3SAPS   H5Y  359   1.944   3.006  36.121  0.4683  1.9227 -0.7574
    3SAPS   C36  360   2.152   3.038  36.157  0.4819 -0.5185  0.1073
    3SAPS   H6X  361   2.159   3.095  36.062  0.2792 -1.4173 -0.4472
    3SAPS   H6Y  362   2.207   2.943  36.141  1.6655  0.2539 -0.5790
    3SAPS   C37  363   2.243   3.118  36.248  0.3520  0.4181  0.2088
    3SAPS   H7X  364   2.285   3.062  36.335  2.0913  1.4334  0.0637
    3SAPS   H7Y  365   2.182   3.204  36.284 -1.3749 -1.0525  0.9388
    3SAPS   C38  366   2.372   3.160  36.167  0.8067  0.2015 -0.4460
    3SAPS   H8X  367   2.423   3.249  36.212 -0.6817  1.6672 -1.5520
    3SAPS   H8Y  368   2.338   3.195  36.068 -0.4733  1.6003  0.4490
    3SAPS   C39  369   2.478   3.048  36.169 -0.0734  0.1855 -0.5677
    3SAPS   H9X  370   2.528   3.054  36.069 -1.2478  2.1490 -1.0934
    3SAPS   H9Y  371   2.424   2.953  36.188 -1.5321  1.4038  1.7756
    3SAPS  C310  372   2.589   3.044  36.281 -0.4522 -0.0347 -0.3315
    3SAPS  H10X  373   2.549   3.059  36.383 -1.2679 -1.5980 -0.3837
    3SAPS  H10Y  374   2.666   3.122  36.262 -1.3268  1.0536  0.4703
    3SAPS  C311  375   2.675   2.913  36.289  0.4568  0.0108 -0.1551
    3SAPS  H11X  376   2.748   2.889  36.210  2.4674  0.5259  1.4668
    3SAPS  H11Y  377   2.606   2.826  36.300  0.7104 -0.2616 -0.6708
    3SAPS  C312  378   2.761   2.918  36.413  0.1891 -0.3086  0.5296
    3SAPS  H12X  379   2.808   2.817  36.421  0.6886 -0.0731  0.6028
    3SAPS  H12Y  380   2.698   2.934  36.504  0.6631 -0.1564  0.8336
    3SAPS  C313  381   2.878   3.017  36.411 -0.3377  0.2741  0.3534
    3SAPS  H13X  382   2.845   3.121  36.431  1.3708  0.5164  2.3529
    3SAPS  H13Y  383   2.915   3.028  36.307  2.0103  0.9119  1.1735
    3SAPS  C314  384   2.999   2.976  36.500  0.7945  0.4225 -0.0023
    3SAPS  H14X  385   3.030   2.876  36.464 -0.5701 -0.3831  0.9602
    3SAPS  H14Y  386   2.958   2.968  36.603 -0.5902  1.1630 -0.4551
    3SAPS  C315  387   3.115   3.073  36.488 -0.7739  0.3061 -0.4901
    3SAPS  H15X  388   3.085   3.165  36.542 -0.6738  0.1767 -0.2123
    3SAPS  H15Y  389   3.127   3.094  36.380  0.0762  0.7455 -0.3188
    3SAPS  C316  390   3.252   3.029  36.551  0.9453  0.7127  0.1995
    3SAPS  H16X  391   3.323   3.113  36.536  0.1676  1.1856 -0.9408
    3SAPS  H16Y  392   3.289   2.935  36.505 -0.7204 -0.1458  0.5214
    3SAPS  C317  393   3.256   2.999  36.702 -0.8959 -0.1015 -1.3913
    3SAPS  H17X  394   3.362   2.977  36.727 -1.2173  1.7238  2.2952
    3SAPS  H17Y  395   3.202   2.907  36.733  2.5605 -1.6357  0.7767
    3SAPS  C318  396   3.233   3.122  36.793 -0.4079  0.5387 -0.3515
    3SAPS  H18X  397   3.196   3.112  36.897  2.0068  0.6987  0.5860
    3SAPS  H18Y  398   3.176   3.199  36.735 -0.1378 -1.3629 -3.3973
    3SAPS  H18Z  399   3.337   3.158  36.809 -0.1569  0.1081 -0.9863
    4SAPS     N  400   0.933   0.950  36.719 -0.3060  1.5803  0.1782
    4SAPS   HN1  401   0.864   0.880  36.754  2.1001 -1.8504 -1.3789
    4SAPS   HN2  402   0.891   1.002  36.640  0.9249 -0.1663 -1.7079
    4SAPS   HN3  403   1.010   0.889  36.687 -0.8847  0.1583  1.3518
    4SAPS   C12  404   0.966   1.050  36.820  0.7535  0.0830  0.0284
    4SAPS  H12A  405   0.877   1.103  36.850  1.0209  0.4558  0.1757
    4SAPS   C13  406   1.032   0.987  36.944 -0.2778  0.0481 -0.5414
    4SAPS  O13A  407   1.053   0.866  36.958  0.7312 -0.2227  0.0314
    4SAPS  O13B  408   1.030   1.061  37.044 -0.7546  0.2921 -0.3531
    4SAPS   C11  409   1.057   1.157  36.750  0.0076  0.2234  0.2747
    4SAPS  H11A  410   1.079   1.228  36.833 -0.5477 -1.2993  1.7704
    4SAPS  H11B  411   0.993   1.217  36.681 -1.6594  0.5425  2.0209
    4SAPS     P  412   1.311   1.155  36.718  0.1128  0.2343 -0.2200
    4SAPS   O13  413   1.407   1.052  36.676 -0.1012  0.0551 -0.5660
    4SAPS   O14  414   1.322   1.284  36.654 -0.1000 -0.3427 -0.4834
    4SAPS   O12  415   1.169   1.101  36.680  0.3152  0.1591  0.1855
    4SAPS   O11  416   1.318   1.176  36.872 -0.3328  0.1406 -0.6234
    4SAPS    C1  417   1.417   1.272  36.929 -0.1882  0.1493  0.9876
    4SAPS    HA  418   1.372   1.372  36.913 -1.4641 -0.4888  0.4099
    4SAPS    HB  419   1.434   1.257  37.038  0.5627 -3.8598  0.4887
    4SAPS    C2  420   1.566   1.252  36.873  0.8136  0.1883 -0.1074
    4SAPS    HS  421   1.552   1.247  36.763  1.2614 -1.4397 -0.1277
    4SAPS   O21  422   1.599   1.124  36.927  0.0699 -0.6442  0.0400
    4SAPS   C21  423   1.679   1.044  36.854  1.3156 -0.4838  0.3345
    4SAPS   O22  424   1.705   1.068  36.736 -0.6818  0.0549  0.5677
    4SAPS   C22  425   1.724   0.927  36.943  0.8875  0.5260  0.4888
    4SAPS   H2R  426   1.734   0.968  37.046  1.3741 -1.0036  1.0769
    4SAPS   H2S  427   1.639   0.856  36.952  0.0989  1.4906  0.8931
    4SAPS    C3  428   1.661   1.368  36.908 -0.9533  0.3591  0.1687
    4SAPS    HX  429   1.651   1.404  37.012 -2.2219  0.2453  0.0982
    4SAPS    HY  430   1.637   1.454  36.842  1.1690 -0.3188 -1.6213
    4SAPS   O31  431   1.796   1.329  36.889  0.5679 -0.5081 -0.2118
    4SAPS   C31  432   1.847   1.339  36.770 -0.6735 -0.0352 -0.1513
    4SAPS   O32  433   1.800   1.386  36.664  0.2226 -0.1659 -0.3660
    4SAPS   C32  434   1.996   1.299  36.785 -0.0710  0.1735  0.1491
    4SAPS   H2X  435   2.053   1.394  36.795  1.0014 -0.3260 -0.9730
    4SAPS   H2Y  436   2.029   1.264  36.685 -0.3646  1.8037 -0.5556
    4SAPS   C23  437   1.859   0.867  36.898  0.4799 -0.2510 -0.5645
    4SAPS   H3R  438   1.930   0.930  36.955  0.1796  0.5994 -1.1056
    4SAPS   H3S  439   1.884   0.860  36.790  0.2172  0.8894 -0.7169
    4SAPS   C24  440   1.865   0.718  36.950 -1.0508  0.0956  0.3817
    4SAPS   H4R  441   1.940   0.662  36.890 -2.3499  0.8625 -2.1227
    4SAPS   H4S  442   1.770   0.667  36.922 -1.3282 -2.3320  4.8581
    4SAPS   C25  443   1.874   0.697  37.097 -0.0396 -0.7158  0.3573
    4SAPS   H5R  444   1.795   0.740  37.161  1.2258  0.1952  1.3801
    4SAPS   C26  445   1.966   0.627  37.169 -0.3829 -0.5533  0.0518
    4SAPS   H6R  446   1.965   0.633  37.279  0.0807 -1.6208  0.1345
    4SAPS   C27  447   2.082   0.550  37.112  0.7556  0.8511 -0.4839
    4SAPS   H7R  448   2.041   0.475  37.041  0.3628  0.0507  0.5548
    4SAPS   H7S  449   2.121   0.485  37.193 -0.8418  1.6528  0.9910
    4SAPS   C28  450   2.187   0.625  37.043 -0.2053 -0.5923  0.6211
    4SAPS   H8R  451   2.185   0.735  37.051  0.1708 -0.5818  0.6108
    4SAPS   C29  452   2.281   0.566  36.972 -0.2369 -0.9784 -0.6037
    4SAPS   H9R  453   2.356   0.635  36.931 -1.5223  0.7547 -0.1751
    4SAPS  C210  454   2.302   0.420  36.961 -0.2277 -0.2456 -0.0470
    4SAPS  H10R  455   2.205   0.366  36.966 -0.9302  1.0684  0.7468
    4SAPS  H10S  456   2.357   0.375  37.046  2.1247 -0.9258 -1.7970
    4SAPS  C211  457   2.379   0.391  36.835  0.2688  0.1447  0.9895
    4SAPS  H11R  458   2.320   0.381  36.742 -2.0079 -0.0829  2.3778
    4SAPS  C212  459   2.510   0.388  36.830  0.7965  0.2354 -0.0923
    4SAPS  H12R  460   2.557   0.381  36.731  1.8206  1.7534  0.2519
    4SAPS  C213  461   2.609   0.394  36.945  0.6779 -0.1875  1.0969
    4SAPS  H13R  462   2.559   0.353  37.035 -1.3272 -2.0545 -0.7490
    4SAPS  H13S  463   2.625   0.503  36.964  0.3329  0.5062 -1.9771
    4SAPS  C214  464   2.735   0.311  36.918  0.1767 -0.2079 -0.1288
    4SAPS  H14R  465   2.724   0.203  36.899 -0.7433 -0.0461 -0.6013
    4SAPS  C215  466   2.861   0.358  36.917 -0.1736  0.5677 -0.4279
    4SAPS  H15R  467   2.941   0.283  36.903 -0.7843 -0.4415  1.1317
    4SAPS  C216  468   2.915   0.493  36.958  0.0687 -0.7258  0.2248
    4SAPS  H16R  469   2.831   0.562  36.983  1.3213  1.5750 -1.5807
    4SAPS  H16S  470   2.979   0.543  36.882 -1.6516  1.2823  0.0107
    4SAPS  C217  471   2.998   0.468  37.083  0.1542  0.2128 -0.2671
    4SAPS  H17R  472   2.938   0.451  37.175  2.9534  0.7892  1.7771
    4SAPS  H17S  473   3.060   0.558  37.100  0.1215  0.1640  0.1010
    4SAPS  C218  474   3.112   0.362  37.070  0.0488  0.2929  0.1817
    4SAPS  H18R  475   3.160   0.373  36.970  0.5492  1.1403  0.4977
    4SAPS  H18S  476   3.064   0.264  37.089  0.1197  0.0995 -0.6052
    4SAPS  C219  477   3.221   0.395  37.182  0.0203 -0.2725  0.3111
    4SAPS  H19R  478   3.180   0.405  37.285  2.0936 -1.8050  1.3619
    4SAPS  H19S  479   3.258   0.497  37.156  0.0028 -0.6230 -1.1621
    4SAPS  C220  480   3.341   0.297  37.173  0.3951 -0.6446 -0.8303
    4SAPS  H20R  481   3.418   0.340  37.241 -1.3345 -2.0716  2.2592
    4SAPS  H20S  482   3.377   0.284  37.069  0.2635 -1.3390 -0.7872
    4SAPS  H20T  483   3.305   0.199  37.210  1.7904 -0.6265  0.7235
    4SAPS   C33  484   2.017   1.192  36.892 -0.0566 -0.2268 -0.7081
    4SAPS   H3X  485   1.936   1.116  36.880 -2.3484  2.2342 -1.9243
    4SAPS   H3Y  486   2.005   1.234  36.994  2.8582  1.6011 -1.0046
    4SAPS   C34  487   2.150   1.120  36.883 -0.5547 -0.0595 -0.2672
    4SAPS   H4X  488   2.180   1.103  36.777  1.5562 -3.6292  0.7391
    4SAPS   H4Y  489   2.147   1.019  36.928 -1.9480 -0.4235 -1.1162
    4SAPS   C35  490   2.272   1.196  36.941 -0.2014 -0.6756 -0.6754
    4SAPS   H5X  491   2.260   1.200  37.051  2.3919 -2.4320 -0.2353
    4SAPS   H5Y  492   2.265   1.298  36.898 -0.7472  0.4064  1.7882
    4SAPS   C36  493   2.405   1.133  36.918 -0.4913  0.5004  0.2765
    4SAPS   H6X  494   2.425   1.119  36.809  0.7523  1.6019  0.3375
    4SAPS   H6Y  495   2.419   1.035  36.968  1.8136  1.6766  2.1221
    4SAPS   C37  496   2.525   1.221  36.965 -1.6144 -0.2054 -0.6011
    4SAPS   H7X  497   2.523   1.220  37.076  2.1491  2.3908 -0.3288
    4SAPS   H7Y  498   2.504   1.321  36.923 -1.7720  0.1364  0.2716
    4SAPS   C38  499   2.664   1.159  36.928 -0.0555 -0.7898  0.9537
    4SAPS   H8X  500   2.671   1.165  36.817 -0.8748  0.6650  0.9690
    4SAPS   H8Y  501   2.659   1.050  36.951  0.3899 -0.7152  1.4042
    4SAPS   C39  502   2.783   1.227  36.989  0.1497  0.1756  0.0201
    4SAPS   H9X  503   2.766   1.337  36.984 -1.1542 -0.0523 -1.1143
    4SAPS   H9Y  504   2.867   1.223  36.916  2.5765  1.0543  2.5829
    4SAPS  C310  505   2.830   1.191  37.138  1.0172  0.9503 -0.1283
    4SAPS  H10X  506   2.845   1.082  37.155 -0.2966  0.6054 -1.0389
    4SAPS  H10Y  507   2.744   1.209  37.207  0.9039 -2.7937  0.9164
    4SAPS  C311  508   2.953   1.275  37.175  0.4397  0.0556  0.3470
    4SAPS  H11X  509   2.917   1.380  37.177 -0.2894 -0.1954  1.4998
    4SAPS  H11Y  510   3.037   1.256  37.105  2.7532  2.4410  2.2458
    4SAPS  C312  511   2.999   1.239  37.321 -0.0970 -0.5991  0.3288
    4SAPS  H12X  512   3.077   1.161  37.312  1.6550  1.1457 -0.1480
    4SAPS  H12Y  513   2.919   1.191  37.381  0.2554 -1.9320 -0.2203
    4SAPS  C313  514   3.060   1.361  37.388 -0.4023 -0.1171 -0.0694
    4SAPS  H13X  515   3.013   1.455  37.352  0.6100  0.1559 -0.7074
    4SAPS  H13Y  516   3.168   1.361  37.362  0.0801 -3.8028  1.2502
    4SAPS  C314  517   3.053   1.363  37.538 -0.2819 -0.0928 -0.3129
    4SAPS  H14X  518   2.947   1.365  37.573  0.3139  1.5261  1.6459
    4SAPS  H14Y  519   3.099   1.458  37.572 -0.3065  0.5721 -2.0590
    4SAPS  C315  520   3.123   1.242  37.597  0.0454  0.2325 -0.0557
    4SAPS  H15X  521   3.078   1.152  37.549 -0.9648  0.0753  1.1284
    4SAPS  H15Y  522   3.107   1.246  37.707  1.3160 -2.3616  0.2962
    4SAPS  C316  523   3.273   1.234  37.574 -1.0920  0.1853 -0.7107
    4SAPS  H16X  524   3.329   1.321  37.614 -2.9874  2.8055 -3.3698
    4SAPS  H16Y  525   3.292   1.227  37.465  3.0129 -0.8172 -0.1053
    4SAPS  C317  526   3.316   1.109  37.652  0.2139  0.9866 -0.2261
    4SAPS  H17X  527   3.278   1.012  37.615 -0.9728  1.6172 -0.6741
    4SAPS  H17Y  528   3.276   1.127  37.755 -0.4486  1.5096 -0.5662
    4SAPS  C318  529   3.467   1.111  37.657 -0.1666  0.6704  1.4728
    4SAPS  H18X  530   3.503   1.216  37.650  0.1815  0.6529  2.8020
    4SAPS  H18Y  531   3.512   1.052  37.574  2.0670  2.5869  1.2127
    4SAPS  H18Z  532   3.506   1.084  37.757  2.2201  1.6636  0.8638
    5SAPS     N  533   0.893   3.059  35.773  0.0491 -0.1909 -0.8212
    5SAPS   HN1  534   0.819   3.099  35.834 -1.0943 -0.5932 -1.9029
    5SAPS   HN2  535   0.984   3.077  35.820 -0.0054 -2.3175  0.2119
    5SAPS   HN3  536   0.890   3.100  35.677  0.2692 -1.5343 -1.4257
    5SAPS   C12  537   0.859   2.913  35.777  0.3452 -0.0596  0.1233
    5SAPS  H12A  538   0.760   2.896  35.737  0.4161  0.8752 -0.4962
    5SAPS   C13  539   0.945   2.816  35.694  0.2952 -0.0971 -0.1747
    5SAPS  O13A  540   1.051   2.856  35.637  0.3042  0.1646 -0.4236
    5SAPS  O13B  541   0.898   2.699  35.671 -0.0752  0.7872 -0.2059
    5SAPS   C11  542   0.858   2.868  35.927  0.2208  0.1833  0.3242
    5SAPS  H11A  543   0.963   2.844  35.954  0.2665  2.3042  2.3466
    5SAPS  H11B  544   0.791   2.781  35.940 -0.1104  0.5609  1.2646
    5SAPS     P  545   0.812   2.965  36.168 -0.0231 -0.1990 -0.0121
    5SAPS   O13  546   0.788   2.826  36.213 -0.7513  0.1136  0.0443
    5SAPS   O14  547   0.939   3.031  36.216  0.4404 -0.1342 -0.0793
    5SAPS   O12  548   0.800   2.970  36.014  0.1249  0.1333 -0.5714
    5SAPS   O11  549   0.688   3.043  36.220 -0.6720 -0.2933 -0.3081
    5SAPS    C1  550   0.628   3.154  36.144 -0.1173 -0.3333 -0.0587
    5SAPS    HA  551   0.643   3.146  36.034 -1.7129 -2.0962 -0.1993
    5SAPS    HB  552   0.519   3.162  36.164 -0.1616 -1.8963  0.4740
    5SAPS    C2  553   0.670   3.294  36.205 -1.0116 -0.6602 -0.3507
    5SAPS    HS  554   0.781   3.283  36.212 -0.6550  2.1650 -0.3811
    5SAPS   O21  555   0.607   3.312  36.345  0.4466 -0.4374  0.4430
    5SAPS   C21  556   0.681   3.392  36.421  0.3479 -0.6621 -0.3558
    5SAPS   O22  557   0.794   3.426  36.398  0.2146 -0.4965  0.0123
    5SAPS   C22  558   0.596   3.437  36.545  0.8988 -0.2490  0.2997
    5SAPS   H2R  559   0.572   3.352  36.612 -0.6229  0.4275  0.6539
    5SAPS   H2S  560   0.652   3.513  36.603  1.5744  1.9080 -2.9092
    5SAPS    C3  561   0.654   3.419  36.113  0.0789 -0.1597  0.8756
    5SAPS    HX  562   0.724   3.386  36.033  0.4945  0.8532  0.7958
    5SAPS    HY  563   0.699   3.508  36.162  1.2242  0.8985 -1.8698
    5SAPS   O31  564   0.517   3.433  36.069  0.0145 -0.2975  0.1422
    5SAPS   C31  565   0.446   3.525  36.136 -0.0291 -0.0028  0.9403
    5SAPS   O32  566   0.488   3.614  36.206  0.1519 -0.2956  0.1308
    5SAPS   C32  567   0.299   3.524  36.089  0.0961 -0.2160 -0.1587
    5SAPS   H2X  568   0.283   3.440  36.018 -2.1030 -0.0641  0.0756
    5SAPS   H2Y  569   0.280   3.613  36.027  0.2429 -0.1746 -0.1413
    5SAPS   C23  570   0.455   3.501  36.505  0.1129  0.9269  0.3211
    5SAPS   H3R  571   0.425   3.433  36.422  0.3192  0.1711  0.8592
    5SAPS   H3S  572   0.466   3.608  36.478  2.6563  0.6698  0.1291
    5SAPS   C24  573   0.354   3.475  36.615 -0.1993 -0.2049 -0.1635
    5SAPS   H4R  574   0.373   3.375  36.659 -1.1238 -0.4336 -0.2583
    5SAPS   H4S  575   0.254   3.480  36.568 -0.7303 -2.2115  0.6688
    5SAPS   C25  576   0.367   3.591  36.715  0.5960 -0.4776 -0.4669
    5SAPS   H5R  577   0.373   3.689  36.665  0.1201 -0.1130  0.1727
    5SAPS   C26  578   0.353   3.602  36.857 -0.0501 -0.2113 -0.2321
    5SAPS   H6R  579   0.354   3.700  36.907 -0.9579 -0.8774  1.1332
    5SAPS   C27  580   0.340   3.483  36.951 -0.3977 -0.0777 -0.0225
    5SAPS   H7R  581   0.370   3.495  37.057  0.9897  0.0807 -0.4125
    5SAPS   H7S  582   0.416   3.407  36.921 -1.2136 -0.7251 -0.4856
    5SAPS   C28  583   0.207   3.406  36.937  0.3440 -0.4542 -0.4100
    5SAPS   H8R  584   0.168   3.367  36.842 -3.6628 -2.0347  1.6439
    5SAPS   C29  585   0.123   3.378  37.042 -0.2727 -0.8567  0.1147
    5SAPS   H9R  586   0.043   3.307  37.015 -0.3836 -0.7940  0.2763
    5SAPS  C210  587   0.131   3.420  37.191  0.3951  0.6222  0.7524
    5SAPS  H10R  588   0.036   3.407  37.248  0.7090 -1.0102  0.9455
    5SAPS  H10S  589   0.155   3.528  37.199 -0.6535  0.7710  2.5624
    5SAPS  C211  590   0.242   3.354  37.267  0.0539  0.8378 -1.0521
    5SAPS  H11R  591   0.246   3.245  37.255  1.0824  0.8412 -0.8111
    5SAPS  C212  592   0.343   3.408  37.336  0.5646 -0.5981  0.2469
    5SAPS  H12R  593   0.414   3.341  37.385  2.0725  2.6082  2.9027
    5SAPS  C213  594   0.383   3.552  37.355 -0.3179 -0.2293 -0.0735
    5SAPS  H13R  595   0.291   3.609  37.331  0.9004  0.7856 -2.6529
    5SAPS  H13S  596   0.452   3.596  37.280  0.9429  0.3478  1.3806
    5SAPS  C214  597   0.418   3.593  37.494  0.0350 -0.2907  0.1018
    5SAPS  H14R  598   0.511   3.547  37.528  0.2847 -0.5999 -0.9426
    5SAPS  C215  599   0.354   3.679  37.576 -0.4144  0.2169  0.1735
    5SAPS  H15R  600   0.384   3.688  37.682 -0.7485 -1.3103  0.4296
    5SAPS  C216  601   0.234   3.760  37.544  0.1645  0.9517  0.2388
    5SAPS  H16R  602   0.227   3.774  37.434 -1.7856  1.0964  0.3591
    5SAPS  H16S  603   0.243   3.861  37.589  2.2074  1.4438 -1.1103
    5SAPS  C217  604   0.105   3.684  37.594 -0.2037  0.7634  0.7516
    5SAPS  H17R  605   0.107   3.657  37.702 -0.4383 -0.2468  0.5124
    5SAPS  H17S  606   0.088   3.597  37.528  2.1761  1.0971 -0.4265
    5SAPS  C218  607  -0.011   3.788  37.582 -0.7663 -0.8224  0.4741
    5SAPS  H18R  608   0.012   3.873  37.649 -0.0462 -1.3893  0.9586
    5SAPS  H18S  609  -0.008   3.827  37.478  2.2174  2.4706  1.5818
    5SAPS  C219  610  -0.141   3.700  37.606 -0.2352  0.0152  0.3888
    5SAPS  H19R  611  -0.125   3.661  37.709  0.0440 -0.4771  0.1614
    5SAPS  H19S  612  -0.139   3.615  37.535 -1.1607 -1.0110  1.5502
    5SAPS  C220  613  -0.272   3.773  37.585  0.5912 -0.3308 -0.5020
    5SAPS  H20R  614  -0.267   3.855  37.659 -1.1668  0.3999 -1.1256
    5SAPS  H20S  615  -0.361   3.707  37.599  0.6610 -0.3908 -0.3353
    5SAPS  H20T  616  -0.280   3.818  37.484 -1.8995 -0.7259 -0.5648
    5SAPS   C33  617   0.199   3.511  36.204  0.1427 -0.1917 -0.2346
    5SAPS   H3X  618   0.169   3.613  36.235 -1.4290 -0.2362 -1.4667
    5SAPS   H3Y  619   0.236   3.455  36.292 -3.3511 -0.5969  1.1353
    5SAPS   C34  620   0.073   3.439  36.160  0.2839 -0.2211 -0.8121
    5SAPS   H4X  621   0.095   3.349  36.099  0.0709 -0.1843 -0.9426
    5SAPS   H4Y  622   0.014   3.502  36.091  1.1530  0.4819 -0.9393
    5SAPS   C35  623  -0.007   3.399  36.279  0.1904 -0.1515  0.1503
    5SAPS   H5X  624   0.061   3.346  36.348  0.5708  1.1668  0.8269
    5SAPS   H5Y  625  -0.091   3.341  36.234 -1.7907  2.8611 -0.3153
    5SAPS   C36  626  -0.063   3.525  36.350  0.5351  0.1963  0.1349
    5SAPS   H6X  627  -0.097   3.601  36.277 -0.5331  0.2290  0.6493
    5SAPS   H6Y  628   0.016   3.575  36.410 -0.1456 -0.7073  1.8507
    5SAPS   C37  629  -0.172   3.489  36.461 -0.4092 -0.1397 -0.1046
    5SAPS   H7X  630  -0.184   3.588  36.510 -0.1031 -0.6091  0.9469
    5SAPS   H7Y  631  -0.124   3.420  36.533  1.0474  0.6013 -0.3463
    5SAPS   C38  632  -0.304   3.436  36.404  0.4440  0.1143  0.3557
    5SAPS   H8X  633  -0.377   3.413  36.485 -0.2364  1.5071  0.1733
    5SAPS   H8Y  634  -0.276   3.338  36.359 -0.5989 -0.6389  1.2862
    5SAPS   C39  635  -0.376   3.525  36.298  0.6177  0.3727  0.1376
    5SAPS   H9X  636  -0.294   3.566  36.234  0.9638 -0.8369 -0.2371
    5SAPS   H9Y  637  -0.426   3.601  36.362  0.4123  0.9723 -0.7158
    5SAPS  C310  638  -0.470   3.433  36.220  0.2483  0.6443 -0.1774
    5SAPS  H10X  639  -0.556   3.408  36.286  0.2765  2.6238  0.6594
    5SAPS  H10Y  640  -0.425   3.351  36.159 -2.3220 -0.6870 -0.4369
    5SAPS  C311  641  -0.544   3.510  36.107  0.2129 -1.3345  0.5617
    5SAPS  H11X  642  -0.588   3.437  36.035  1.3891 -2.3033  0.7985
    5SAPS  H11Y  643  -0.471   3.572  36.050 -0.7800 -0.3393  0.3389
    5SAPS  C312  644  -0.643   3.618  36.149 -0.6870  0.4018  0.1429
    5SAPS  H12X  645  -0.584   3.697  36.199  0.4145 -1.3543  1.7098
    5SAPS  H12Y  646  -0.721   3.584  36.220 -1.5969  1.6408 -0.2257
    5SAPS  C313  647  -0.707   3.674  36.022  0.3506 -0.4422  0.2860
    5SAPS  H13X  648  -0.733   3.590  35.955 -0.6276 -0.5976  0.8504
    5SAPS  H13Y  649  -0.631   3.720  35.954  2.0389  0.0312  2.3991
    5SAPS  C314  650  -0.833   3.757  36.052 -1.1313 -0.8095 -0.2321
    5SAPS  H14X  651  -0.797   3.847  36.106  0.0915 -1.6332  0.3669
    5SAPS  H14Y  652  -0.905   3.703  36.116  0.7413 -1.8560  1.1080
    5SAPS  C315  653  -0.912   3.809  35.926 -0.1058  0.4617 -0.5265
    5SAPS  H15X  654  -0.968   3.719  35.897  1.2257  0.3807 -3.1056
    5SAPS  H15Y  655  -0.840   3.848  35.851  1.4668 -1.0307  0.1575
    5SAPS  C316  656  -1.007   3.928  35.953 -0.5141 -0.7963  0.3891
    5SAPS  H16X  657  -1.070   3.913  36.044 -1.2936  2.8950  0.6104
    5SAPS  H16Y  658  -1.076   3.931  35.866  1.0880  2.0812 -0.9148
    5SAPS  C317  659  -0.929   4.062  35.969 -0.2482 -0.3390 -0.2852
    5SAPS  H17X  660  -0.839   4.038  36.028 -1.2140  1.1816  1.9573
    5SAPS  H17Y  661  -0.976   4.138  36.036  1.4345  1.0897 -0.6318
    5SAPS  C318  662  -0.901   4.119  35.831  0.0741  0.0563  0.2626
    5SAPS  H18X  663  -0.836   4.053  35.770 -0.1060 -0.6167  0.7863
    5SAPS  H18Y  664  -0.857   4.221  35.831 -1.1991  0.6394 -0.6471
    5SAPS  H18Z  665  -0.997   4.127  35.775 -0.0126  0.0669  0.4148
    6SAPS     N  666   1.186   2.761  35.152  0.3974 -0.8464  0.3965
    6SAPS   HN1  667   1.145   2.725  35.064 -0.9689 -0.1782  0.7450
    6SAPS   HN2  668   1.289   2.746  35.148  0.2984 -1.9384  1.2974
    6SAPS   HN3  669   1.156   2.695  35.227  1.4644 -0.8536  0.8425
    6SAPS   C12  670   1.141   2.890  35.190  0.6660  0.2429 -0.1009
    6SAPS  H12A  671   1.044   2.874  35.235  0.4835 -0.4871 -0.7363
    6SAPS   C13  672   1.243   2.969  35.267  0.2085  0.0647 -0.6748
    6SAPS  O13A  673   1.350   2.913  35.300  0.4005 -0.6248  0.1467
    6SAPS  O13B  674   1.221   3.095  35.283 -0.6321  0.1950  0.1586
    6SAPS   C11  675   1.111   2.960  35.058 -0.4759  0.0499 -0.2246
    6SAPS  H11A  676   1.193   3.003  34.997 -0.4968 -0.2042 -0.4334
    6SAPS  H11B  677   1.068   3.054  35.097 -0.3205  0.5655 -1.2616
    6SAPS     P  678   0.938   2.950  34.859  0.4216 -0.3663  0.0578
    6SAPS   O13  679   0.940   3.097  34.876  1.1698 -0.0327  0.6381
    6SAPS   O14  680   0.958   2.894  34.725 -0.2158 -0.3198  0.8740
    6SAPS   O12  681   1.034   2.883  34.969 -0.5714 -0.3429 -0.5704
    6SAPS   O11  682   0.802   2.890  34.900 -0.7038 -0.1783  0.5012
    6SAPS    C1  683   0.786   2.772  34.975 -0.0504  0.4454 -0.7836
    6SAPS    HA  684   0.732   2.694  34.917  0.2507  1.5243 -2.5836
    6SAPS    HB  685   0.883   2.726  35.005  1.7185  3.1553 -1.9691
    6SAPS    C2  686   0.705   2.793  35.107  0.5484  0.6572 -0.1754
    6SAPS    HS  687   0.774   2.797  35.194 -0.5309 -0.5047  0.7663
    6SAPS   O21  688   0.613   2.685  35.125 -0.4889 -0.2941  0.7612
    6SAPS   C21  689   0.653   2.571  35.161  0.2812  0.9257  0.3479
    6SAPS   O22  690   0.773   2.531  35.182  0.4032  0.5671  0.7401
    6SAPS   C22  691   0.534   2.471  35.167 -0.6212  0.0158 -0.3786
    6SAPS   H2R  692   0.447   2.520  35.218  0.4682 -1.2464  2.9612
    6SAPS   H2S  693   0.515   2.443  35.061 -1.2014 -1.4734  0.0908
    6SAPS    C3  694   0.630   2.936  35.098  0.0988 -0.4285 -0.2762
    6SAPS    HX  695   0.722   2.998  35.100  1.6208 -2.5520 -0.7993
    6SAPS    HY  696   0.582   2.942  35.198  2.9533  0.4300  1.1625
    6SAPS   O31  697   0.552   2.968  34.984 -0.5164  0.7197  0.7555
    6SAPS   C31  698   0.416   2.945  34.998 -0.0687 -0.1669 -0.4460
    6SAPS   O32  699   0.366   2.911  35.104 -0.1196  0.3910 -0.3101
    6SAPS   C32  700   0.330   2.970  34.871  0.2459 -1.3032  0.8037
    6SAPS   H2X  701   0.328   2.886  34.798  2.1577 -0.0555 -0.7621
    6SAPS   H2Y  702   0.393   3.046  34.821 -0.7768 -0.6505  0.4770
    6SAPS   C23  703   0.562   2.350  35.266 -0.1099 -0.0564  0.0155
    6SAPS   H3R  704   0.611   2.385  35.359 -0.5551 -1.9592  1.0123
    6SAPS   H3S  705   0.646   2.298  35.215  0.0074  0.2433 -0.0994
    6SAPS   C24  706   0.452   2.256  35.297 -0.1910 -0.6213  0.0919
    6SAPS   H4R  707   0.484   2.165  35.353 -1.6467 -0.2897  1.5388
    6SAPS   H4S  708   0.412   2.210  35.204 -1.9873 -0.8587  0.9251
    6SAPS   C25  709   0.344   2.331  35.374  0.2645  0.2143  0.2032
    6SAPS   H5R  710   0.370   2.352  35.479  4.0281  1.9621 -0.8979
    6SAPS   C26  711   0.216   2.363  35.336 -0.8825 -0.2379  0.0622
    6SAPS   H6R  712   0.153   2.421  35.405 -1.6219 -0.5704 -0.3220
    6SAPS   C27  713   0.151   2.335  35.201 -0.3790 -0.4642  0.3980
    6SAPS   H7R  714   0.042   2.322  35.191 -0.1915 -1.3892 -0.7095
    6SAPS   H7S  715   0.190   2.235  35.171  0.9918 -1.2293  4.1549
    6SAPS   C28  716   0.196   2.434  35.101 -1.1405  0.5463  0.1743
    6SAPS   H8R  717   0.295   2.419  35.057 -1.4511  2.1286 -1.1685
    6SAPS   C29  718   0.134   2.539  35.043 -0.2684 -0.3995  0.3226
    6SAPS   H9R  719   0.189   2.592  34.963  0.1693 -1.4055 -0.0555
    6SAPS  C210  720  -0.007   2.584  35.061  0.3254 -0.5159  0.4600
    6SAPS  H10R  721  -0.013   2.691  35.032 -0.9546 -0.7527 -0.2305
    6SAPS  H10S  722  -0.044   2.567  35.165 -2.3459 -2.5884 -0.6911
    6SAPS  C211  723  -0.114   2.512  34.969 -0.1092  0.7531  0.1048
    6SAPS  H11R  724  -0.156   2.421  35.015 -1.2467  0.9764 -0.4449
    6SAPS  C212  725  -0.175   2.561  34.855  0.1557  0.2120 -0.4722
    6SAPS  H12R  726  -0.238   2.506  34.783 -2.7311  2.9126 -0.2270
    6SAPS  C213  727  -0.108   2.677  34.794  0.0849 -0.4170 -0.2668
    6SAPS  H13R  728  -0.097   2.763  34.864 -1.5547  0.2106 -0.7254
    6SAPS  H13S  729  -0.187   2.726  34.732  0.9362  0.1347 -0.9438
    6SAPS  C214  730   0.020   2.662  34.712  0.2208 -0.1484 -0.1866
    6SAPS  H14R  731   0.115   2.684  34.763 -0.3603 -0.5523  1.1164
    6SAPS  C215  732   0.032   2.619  34.580 -0.3744 -0.0352  0.8447
    6SAPS  H15R  733   0.135   2.617  34.541 -0.1161 -2.0921  1.5128
    6SAPS  C216  734  -0.080   2.585  34.485  0.3537 -0.0602  0.2741
    6SAPS  H16R  735  -0.088   2.678  34.423  0.3392  1.2670  2.1884
    6SAPS  H16S  736  -0.178   2.581  34.537 -0.3847 -1.2643 -1.1330
    6SAPS  C217  737  -0.060   2.456  34.407  0.2852  0.4495  0.3679
    6SAPS  H17R  738  -0.075   2.365  34.468 -1.4839  1.5838  1.7303
    6SAPS  H17S  739   0.038   2.455  34.355 -0.1123 -3.2885 -0.5963
    6SAPS  C218  740  -0.182   2.430  34.300 -0.3318 -0.4186 -0.3508
    6SAPS  H18R  741  -0.165   2.499  34.214  2.6995 -1.4892 -0.7443
    6SAPS  H18S  742  -0.272   2.440  34.363  1.0216 -0.3306  1.6708
    6SAPS  C219  743  -0.167   2.284  34.239 -0.4082 -0.2016 -1.0836
    6SAPS  H19R  744  -0.060   2.269  34.214  0.3361  2.3003  0.2623
    6SAPS  H19S  745  -0.222   2.256  34.147  1.3887 -1.2908 -1.8842
    6SAPS  C220  746  -0.221   2.184  34.345  0.8086 -0.1480 -0.6030
    6SAPS  H20R  747  -0.327   2.202  34.375  0.3952 -1.7617 -1.0090
    6SAPS  H20S  748  -0.157   2.181  34.436 -1.8141 -1.3269  1.3690
    6SAPS  H20T  749  -0.224   2.082  34.302 -0.1118 -0.3451 -0.1097
    6SAPS   C33  750   0.197   3.037  34.890  0.8176 -0.8957 -0.3387
    6SAPS   H3X  751   0.205   3.109  34.974 -2.0911  1.0758 -1.5695
    6SAPS   H3Y  752   0.114   2.965  34.903 -0.6930  0.8400  0.0883
    6SAPS   C34  753   0.152   3.120  34.757 -0.0705 -0.4133 -0.2359
    6SAPS   H4X  754   0.112   3.045  34.685  0.5119  0.9838 -2.0899
    6SAPS   H4Y  755   0.235   3.171  34.704 -0.4764 -0.1345 -0.6139
    6SAPS   C35  756   0.034   3.216  34.788 -0.3161  0.1446  0.0820
    6SAPS   H5X  757   0.072   3.286  34.866  1.6667 -0.8523  0.0973
    6SAPS   H5Y  758  -0.051   3.159  34.831 -1.5299  2.1433  0.4507
    6SAPS   C36  759  -0.013   3.300  34.667 -0.5780 -0.3220  0.2524
    6SAPS   H6X  760  -0.052   3.239  34.583 -0.5242 -0.8309  0.5991
    6SAPS   H6Y  761   0.077   3.345  34.619  1.0224 -1.9979  1.5462
    6SAPS   C37  762  -0.114   3.404  34.709  0.1579 -0.6026  0.2475
    6SAPS   H7X  763  -0.121   3.481  34.629 -2.6356  0.8458  1.7432
    6SAPS   H7Y  764  -0.069   3.443  34.803  1.2636 -0.3454 -0.3705
    6SAPS   C38  765  -0.252   3.345  34.728  0.5124  0.1375 -0.2711
    6SAPS   H8X  766  -0.256   3.285  34.822  0.2009  2.2232  1.1228
    6SAPS   H8Y  767  -0.281   3.272  34.650 -2.5041  2.7924 -1.8586
    6SAPS   C39  768  -0.372   3.443  34.740  0.1445 -0.4977 -0.4661
    6SAPS   H9X  769  -0.393   3.475  34.636  0.6070 -2.9859 -1.3874
    6SAPS   H9Y  770  -0.347   3.540  34.789  1.3270 -0.1612 -1.6735
    6SAPS  C310  771  -0.488   3.380  34.812 -0.2058 -0.4614  0.3205
    6SAPS  H10X  772  -0.467   3.399  34.920  1.0296  0.3736 -0.0564
    6SAPS  H10Y  773  -0.487   3.270  34.797 -0.8642 -0.5239  0.6600
    6SAPS  C311  774  -0.623   3.439  34.797 -0.4512  0.5198  0.2314
    6SAPS  H11X  775  -0.641   3.447  34.687 -0.8834  0.3441  0.2895
    6SAPS  H11Y  776  -0.624   3.541  34.841  0.9682 -0.1111  1.7868
    6SAPS  C312  777  -0.750   3.361  34.847  0.1523 -0.2686  0.2388
    6SAPS  H12X  778  -0.751   3.378  34.956 -2.1403  0.4337  0.1780
    6SAPS  H12Y  779  -0.749   3.252  34.827  2.2583  0.0051 -1.4519
    6SAPS  C313  780  -0.888   3.406  34.792  0.4544  0.0162  0.5442
    6SAPS  H13X  781  -0.886   3.412  34.681  3.2941  2.1181  0.6288
    6SAPS  H13Y  782  -0.892   3.515  34.808 -2.7536  0.5152 -2.3271
    6SAPS  C314  783  -1.007   3.335  34.853 -0.0552 -0.1552 -0.1856
    6SAPS  H14X  784  -1.004   3.338  34.964  0.5120  1.0935 -0.2241
    6SAPS  H14Y  785  -1.023   3.229  34.822  0.0246 -0.0532 -0.5782
    6SAPS  C315  786  -1.143   3.405  34.831 -0.2750 -0.0138 -0.3640
    6SAPS  H15X  787  -1.187   3.365  34.737 -1.8612 -3.7991  1.7655
    6SAPS  H15Y  788  -1.126   3.514  34.825  1.2079 -0.2663 -1.3576
    6SAPS  C316  789  -1.247   3.374  34.939  0.4561  0.2157 -0.0908
    6SAPS  H16X  790  -1.253   3.263  34.935  1.7566  0.1031  0.5157
    6SAPS  H16Y  791  -1.351   3.403  34.912  0.5239 -0.2486 -0.8891
    6SAPS  C317  792  -1.209   3.434  35.072  0.0448 -0.5686  0.4326
    6SAPS  H17X  793  -1.178   3.538  35.046 -1.8477  0.2012  1.0289
    6SAPS  H17Y  794  -1.113   3.397  35.112  0.0393  0.3583  1.3400
    6SAPS  C318  795  -1.312   3.431  35.183 -0.5034 -1.0087 -0.0850
    6SAPS  H18X  796  -1.411   3.477  35.165 -0.8349 -0.9098  1.7831
    6SAPS  H18Y  797  -1.268   3.476  35.275  3.5620 -0.0634 -2.2307
    6SAPS  H18Z  798  -1.336   3.325  35.208 -2.2823 -0.7895 -0.7592
    7SAPS     N  799   1.236   3.101  35.552  0.2242 -0.3017  0.7252
    7SAPS   HN1  800   1.153   3.039  35.561  1.2471 -1.7051  0.7596
    7SAPS   HN2  801   1.243   3.132  35.453 -1.8858 -1.7033  0.0537
    7SAPS   HN3  802   1.315   3.040  35.581 -0.7328 -1.7743  0.3502
    7SAPS   C12  803   1.226   3.218  35.649  0.1322  0.0933  0.0537
    7SAPS  H12A  804   1.165   3.297  35.610 -0.1960  0.7237  1.7773
    7SAPS   C13  805   1.182   3.192  35.793  1.1431  0.5164 -0.6193
    7SAPS  O13A  806   1.144   3.080  35.833  0.1963 -0.4508  0.0009
    7SAPS  O13B  807   1.140   3.299  35.854  0.0783  0.0445  0.3960
    7SAPS   C11  808   1.369   3.273  35.660 -0.5629  0.3199  0.4063
    7SAPS  H11A  809   1.436   3.194  35.700 -0.9731  0.1028  0.6677
    7SAPS  H11B  810   1.377   3.360  35.729  1.0178 -0.5563  1.3778
    7SAPS     P  811   1.397   3.459  35.466 -0.4498 -0.1667 -0.0230
    7SAPS   O13  812   1.376   3.447  35.323  0.0670  0.1270  0.1069
    7SAPS   O14  813   1.287   3.515  35.547  0.1721  0.1020  0.9210
    7SAPS   O12  814   1.424   3.311  35.530 -0.3912  0.2979  0.5553
    7SAPS   O11  815   1.523   3.555  35.489  0.1939 -0.6198  0.5168
    7SAPS    C1  816   1.642   3.542  35.416  0.3034 -0.2658  0.7098
    7SAPS    HA  817   1.647   3.454  35.348  1.8850  1.5611 -1.6715
    7SAPS    HB  818   1.653   3.625  35.343 -0.0597 -0.4412  0.4490
    7SAPS    C2  819   1.758   3.548  35.520  0.6506  0.5115 -0.5127
    7SAPS    HS  820   1.736   3.472  35.598 -0.5629  2.3974  1.0699
    7SAPS   O21  821   1.766   3.685  35.572 -0.4162 -0.8184  0.5263
    7SAPS   C21  822   1.805   3.698  35.693 -0.0426 -0.1737  0.1196
    7SAPS   O22  823   1.797   3.618  35.784 -0.0812 -0.2945 -0.3229
    7SAPS   C22  824   1.866   3.839  35.718  0.0590  0.3214  0.1897
    7SAPS   H2R  825   1.925   3.821  35.810 -1.9438  1.2428  1.7228
    7SAPS   H2S  826   1.926   3.864  35.628 -0.4153  0.0174 -0.2175
    7SAPS    C3  827   1.895   3.512  35.458  0.2769 -0.6818  0.7308
    7SAPS    HX  828   1.941   3.609  35.430  1.7435 -1.6004 -0.0991
    7SAPS    HY  829   1.880   3.463  35.360  1.6574  0.7031 -0.2089
    7SAPS   O31  830   1.988   3.442  35.541  0.2585  0.3445 -0.4592
    7SAPS   C31  831   1.993   3.305  35.537 -0.2342  0.4433 -0.2218
    7SAPS   O32  832   1.931   3.239  35.457  0.0569  0.4524 -0.6004
    7SAPS   C32  833   2.094   3.260  35.640 -1.0861 -0.6089  0.3589
    7SAPS   H2X  834   2.062   3.233  35.743 -0.7858 -2.6671 -0.0425
    7SAPS   H2Y  835   2.167   3.343  35.648  0.7096 -1.8979 -1.7640
    7SAPS   C23  836   1.751   3.935  35.758  0.5473 -0.3429 -0.2252
    7SAPS   H3R  837   1.686   3.889  35.835  0.0346  2.5208  1.1895
    7SAPS   H3S  838   1.682   3.948  35.672 -1.3513  0.0516  1.2938
    7SAPS   C24  839   1.809   4.073  35.792  0.7626  0.9804 -0.4005
    7SAPS   H4R  840   1.901   4.068  35.853  0.8516  0.3388 -0.5785
    7SAPS   H4S  841   1.728   4.125  35.847  2.9817  1.6600  2.4788
    7SAPS   C25  842   1.844   4.149  35.663 -0.1951  0.5965  0.2307
    7SAPS   H5R  843   1.774   4.125  35.583 -2.5079  1.3478  1.9272
    7SAPS   C26  844   1.955   4.222  35.650 -0.3720  0.0265  0.2195
    7SAPS   H6R  845   1.969   4.275  35.554 -0.2746 -0.6357 -0.1381
    7SAPS   C27  846   2.060   4.254  35.756  0.0081  1.0353  0.5946
    7SAPS   H7R  847   2.158   4.280  35.709  0.1070  0.8007  0.6667
    7SAPS   H7S  848   2.088   4.165  35.817  2.7301  2.4585  1.5952
    7SAPS   C28  849   2.010   4.356  35.858 -0.2039 -0.3730 -0.0422
    7SAPS   H8R  850   1.901   4.349  35.865 -0.0595 -1.2749  2.2797
    7SAPS   C29  851   2.081   4.439  35.940 -0.8632  0.0690 -0.1877
    7SAPS   H9R  852   2.033   4.495  36.021 -0.7702 -1.0547  0.6521
    7SAPS  C210  853   2.228   4.456  35.942 -0.3983 -0.1352  0.0205
    7SAPS  H10R  854   2.258   4.538  35.873 -1.5293 -0.9741 -1.4997
    7SAPS  H10S  855   2.264   4.364  35.892  0.9421  0.6805 -0.5814
    7SAPS  C211  856   2.308   4.465  36.078 -0.0027  0.1956  1.0718
    7SAPS  H11R  857   2.291   4.380  36.146  0.7829 -1.1322 -0.3239
    7SAPS  C212  858   2.419   4.536  36.098 -0.3714  0.9376 -0.0385
    7SAPS  H12R  859   2.483   4.517  36.186  2.0601  0.9955 -1.7042
    7SAPS  C213  860   2.474   4.638  35.995 -0.0249  0.2586 -0.5028
    7SAPS  H13R  861   2.391   4.692  35.943 -0.0908 -0.8091 -1.5574
    7SAPS  H13S  862   2.518   4.580  35.911  1.5036 -0.7727  0.9535
    7SAPS  C214  863   2.573   4.731  36.064  0.4517 -0.2711  0.6097
    7SAPS  H14R  864   2.537   4.832  36.087  0.9481  0.1478 -0.3673
    7SAPS  C215  865   2.700   4.692  36.101  0.1884  0.0469 -0.7055
    7SAPS  H15R  866   2.754   4.753  36.175 -1.6809 -0.8068  1.4932
    7SAPS  C216  867   2.755   4.555  36.071  0.1461  0.0755  0.3817
    7SAPS  H16R  868   2.826   4.580  35.989 -1.9037 -0.4962 -1.6953
    7SAPS  H16S  869   2.693   4.479  36.019  1.5041 -1.9222  1.5637
    7SAPS  C217  870   2.823   4.474  36.183 -0.2319 -0.3171  0.3215
    7SAPS  H17R  871   2.751   4.432  36.256 -0.1530 -2.2467 -0.6668
    7SAPS  H17S  872   2.888   4.536  36.248  0.6134  1.2342 -1.8640
    7SAPS  C218  873   2.906   4.351  36.126  1.0204 -0.1632 -0.3515
    7SAPS  H18R  874   2.999   4.378  36.072  0.7722 -1.9594 -1.7830
    7SAPS  H18S  875   2.836   4.301  36.056 -0.6661 -1.1253  1.9084
    7SAPS  C219  876   2.943   4.255  36.235  0.1894  0.6057 -0.4035
    7SAPS  H19R  877   3.000   4.168  36.194  0.7986  0.7807  0.0617
    7SAPS  H19S  878   2.851   4.214  36.281  1.0179  1.6102  2.3014
    7SAPS  C220  879   3.034   4.319  36.349  0.0922  0.1711 -0.0071
    7SAPS  H20R  880   3.127   4.361  36.305 -0.1097 -1.2660 -1.9452
    7SAPS  H20S  881   3.072   4.236  36.413  0.0596 -1.0513 -1.5066
    7SAPS  H20T  882   2.981   4.392  36.413  2.1450  2.8577 -1.1998
    7SAPS   C33  883   2.181   3.147  35.577  0.7445  0.1889 -0.1884
    7SAPS   H3X  884   2.237   3.184  35.488 -1.1170  1.3141 -0.9426
    7SAPS   H3Y  885   2.110   3.062  35.566 -2.0719  2.0953  1.8056
    7SAPS   C34  886   2.277   3.082  35.681  0.0715  0.6924  1.0404
    7SAPS   H4X  887   2.220   3.017  35.752 -1.0501 -0.2329 -0.6478
    7SAPS   H4Y  888   2.326   3.168  35.731  0.1889  0.9794  0.4327
    7SAPS   C35  889   2.385   2.995  35.612  0.0346 -0.9145  0.4379
    7SAPS   H5X  890   2.420   3.055  35.526 -1.6742 -0.9191 -0.3057
    7SAPS   H5Y  891   2.343   2.905  35.562 -1.2186  1.1581 -2.5425
    7SAPS   C36  892   2.501   2.950  35.695  0.0268 -0.1500 -0.2129
    7SAPS   H6X  893   2.540   3.032  35.759  0.8148 -1.9848  1.7571
    7SAPS   H6Y  894   2.587   2.910  35.638  0.2851  0.7041 -0.4402
    7SAPS   C37  895   2.454   2.846  35.800 -0.1833  1.4553 -0.5851
    7SAPS   H7X  896   2.391   2.764  35.758  0.8885  0.5333 -0.4435
    7SAPS   H7Y  897   2.390   2.885  35.883  0.5037 -1.5731  1.5504
    7SAPS   C38  898   2.578   2.790  35.876  0.2675  0.0724  0.4986
    7SAPS   H8X  899   2.613   2.858  35.957 -2.4102  0.9278  1.0315
    7SAPS   H8Y  900   2.658   2.771  35.801  0.3476  0.9926  0.3421
    7SAPS   C39  901   2.557   2.656  35.946 -0.5840  0.2629  0.4197
    7SAPS   H9X  902   2.517   2.584  35.872  1.8465  0.3468 -1.0875
    7SAPS   H9Y  903   2.498   2.668  36.040  0.0757 -1.9511  1.1701
    7SAPS  C310  904   2.693   2.588  35.975 -1.0351 -0.0698 -0.6047
    7SAPS  H10X  905   2.755   2.572  35.884  0.5629  0.7691  0.3001
    7SAPS  H10Y  906   2.670   2.492  36.026  3.0096 -0.7993  0.1540
    7SAPS  C311  907   2.773   2.671  36.068  0.2301  0.3712 -0.3738
    7SAPS  H11X  908   2.712   2.666  36.160  0.4161  0.8382 -0.2167
    7SAPS  H11Y  909   2.785   2.779  36.044  1.4568  0.3723  0.1701
    7SAPS  C312  910   2.913   2.605  36.103  0.3594  0.4387 -0.0574
    7SAPS  H12X  911   2.986   2.619  36.021 -0.2862  1.7867 -0.4337
    7SAPS  H12Y  912   2.897   2.500  36.135  1.2288 -1.0165 -3.8512
    7SAPS  C313  913   2.992   2.670  36.212  0.3885  0.1686 -0.1464
    7SAPS  H13X  914   2.926   2.660  36.301  2.0932  0.2713  1.1696
    7SAPS  H13Y  915   3.002   2.779  36.193  0.0083  0.2044 -0.1609
    7SAPS  C314  916   3.131   2.608  36.225 -0.5465 -0.4725 -0.2048
    7SAPS  H14X  917   3.174   2.636  36.127  0.2992 -0.9342  0.0257
    7SAPS  H14Y  918   3.127   2.497  36.219 -0.9188 -0.5546  1.2413
    7SAPS  C315  919   3.205   2.643  36.352  1.1969 -1.0439  0.8975
    7SAPS  H15X  920   3.136   2.614  36.434  0.8111 -0.9235  0.6225
    7SAPS  H15Y  921   3.217   2.753  36.366  0.4609 -0.8996  0.4645
    7SAPS  C316  922   3.345   2.580  36.382 -0.2320  0.8415 -0.2073
    7SAPS  H16X  923   3.387   2.624  36.475 -1.0178  1.0869  0.0433
    7SAPS  H16Y  924   3.409   2.615  36.298  1.7506  1.9218  1.6745
    7SAPS  C317  925   3.360   2.419  36.378  0.5129 -1.1698 -0.7608
    7SAPS  H17X  926   3.324   2.388  36.278 -1.3377  0.3263 -0.6188
    7SAPS  H17Y  927   3.301   2.375  36.462  2.8410 -0.6957  1.2245
    7SAPS  C318  928   3.494   2.354  36.414  0.5956  0.2972  0.3986
    7SAPS  H18X  929   3.579   2.381  36.347  1.7333 -1.3101  1.1340
    7SAPS  H18Y  930   3.491   2.244  36.403 -0.0089  0.4601 -1.3304
    7SAPS  H18Z  931   3.531   2.390  36.513 -1.0492 -0.3412  1.2660
    8SAPS     N  932   0.866   1.392  34.956 -0.4640  0.1263 -0.2538
    8SAPS   HN1  933   0.789   1.322  34.955 -1.2218  0.9161  0.7316
    8SAPS   HN2  934   0.840   1.473  34.896  0.5181  2.0296  1.7749
    8SAPS   HN3  935   0.957   1.366  34.915 -0.9580 -2.5285  0.1358
    8SAPS   C12  936   0.887   1.444  35.092 -0.0260 -0.1660  0.1181
    8SAPS  H12A  937   0.962   1.380  35.135  0.0789  0.0089  0.1934
    8SAPS   C13  938   0.926   1.591  35.109 -0.1572  0.4794  0.0909
    8SAPS  O13A  939   0.920   1.675  35.018  0.1818 -1.0292 -0.4476
    8SAPS  O13B  940   0.956   1.626  35.226 -0.5942  0.7469 -0.1640
    8SAPS   C11  941   0.763   1.406  35.184 -0.0859 -0.0134  0.6891
    8SAPS  H11A  942   0.691   1.487  35.159  1.0853  1.2318  1.2542
    8SAPS  H11B  943   0.770   1.429  35.292  1.2863  1.6929  0.2742
    8SAPS     P  944   0.714   1.157  35.248 -0.3922  0.1261  0.3184
    8SAPS   O13  945   0.600   1.068  35.233  0.0725 -0.3847  0.5941
    8SAPS   O14  946   0.854   1.103  35.227  0.5666  0.4194  0.5699
    8SAPS   O12  947   0.695   1.280  35.158  0.3305  0.2593  0.1895
    8SAPS   O11  948   0.713   1.218  35.398 -0.2698  0.3027 -0.8098
    8SAPS    C1  949   0.599   1.288  35.450  0.0659 -0.1015  0.1556
    8SAPS    HA  950   0.630   1.388  35.487 -2.7527  2.3881 -3.4025
    8SAPS    HB  951   0.519   1.298  35.373  1.3490 -1.6336 -1.4735
    8SAPS    C2  952   0.529   1.215  35.562  0.3432  0.0407 -0.5629
    8SAPS    HS  953   0.453   1.283  35.605  1.1712 -0.7680  2.4196
    8SAPS   O21  954   0.606   1.161  35.673 -1.1407 -0.2164  0.7727
    8SAPS   C21  955   0.652   1.261  35.760 -0.4143  0.5185 -0.1450
    8SAPS   O22  956   0.644   1.375  35.746  0.4472 -0.3178  0.1284
    8SAPS   C22  957   0.698   1.198  35.892  0.1235 -0.2914  0.1504
    8SAPS   H2R  958   0.785   1.134  35.866  0.7555  1.7718 -3.3818
    8SAPS   H2S  959   0.734   1.282  35.956  0.1682 -0.8806  0.9114
    8SAPS    C3  960   0.457   1.087  35.505  0.5197 -0.0985  0.1623
    8SAPS    HX  961   0.540   1.017  35.485  1.3490  0.3169  1.9337
    8SAPS    HY  962   0.399   1.128  35.420  0.1379  0.3660  0.6307
    8SAPS   O31  963   0.362   1.049  35.603  0.1050 -0.1186  0.6021
    8SAPS   C31  964   0.366   0.929  35.658  0.5712 -0.3042  0.3063
    8SAPS   O32  965   0.429   0.838  35.615 -0.3681 -0.0703  0.7179
    8SAPS   C32  966   0.272   0.919  35.777  0.0777  0.3568 -0.0262
    8SAPS   H2X  967   0.300   1.003  35.844 -0.3282  1.5192 -1.2873
    8SAPS   H2Y  968   0.275   0.823  35.834 -2.9489 -0.5527 -1.2081
    8SAPS   C23  969   0.594   1.117  35.965 -0.1643 -0.3553  0.2069
    8SAPS   H3R  970   0.640   1.073  36.056  1.7590  0.9715 -0.0383
    8SAPS   H3S  971   0.557   1.027  35.912 -0.2173 -1.0476  1.4113
    8SAPS   C24  972   0.470   1.202  35.993 -0.0919  0.5238 -0.1095
    8SAPS   H4R  973   0.422   1.230  35.896  2.2693 -0.6063 -1.7122
    8SAPS   H4S  974   0.498   1.299  36.040 -2.2187  1.6207 -0.9422
    8SAPS   C25  975   0.374   1.124  36.084  0.1164 -0.1333  0.1132
    8SAPS   H5R  976   0.422   1.050  36.150 -0.5157 -0.2043  0.4967
    8SAPS   C26  977   0.241   1.123  36.099  0.4586 -0.2494 -0.0221
    8SAPS   H6R  978   0.196   1.059  36.176  0.8082 -2.4541 -1.5551
    8SAPS   C27  979   0.139   1.204  36.031 -0.0635  0.0492  0.3720
    8SAPS   H7R  980   0.114   1.155  35.935  0.7609 -0.6803  0.5166
    8SAPS   H7S  981   0.177   1.305  36.006 -0.8306  0.1901 -0.2557
    8SAPS   C28  982   0.016   1.227  36.121 -0.1165 -0.1618  0.5591
    8SAPS   H8R  983   0.032   1.240  36.229 -0.9848  0.7929  0.5853
    8SAPS   C29  984  -0.112   1.217  36.076  0.8957 -0.0062 -0.1878
    8SAPS   H9R  985  -0.194   1.222  36.149  0.9935  1.9683 -0.1507
    8SAPS  C210  986  -0.165   1.223  35.933 -0.5793  0.1372 -0.1128
    8SAPS  H10R  987  -0.187   1.119  35.902  0.0549 -0.2044  0.5457
    8SAPS  H10S  988  -0.091   1.272  35.866 -1.3698  1.4893 -0.0425
    8SAPS  C211  989  -0.288   1.310  35.927 -0.4279 -0.0874 -0.1031
    8SAPS  H11R  990  -0.374   1.283  35.991  0.8581 -0.3968  1.5677
    8SAPS  C212  991  -0.310   1.413  35.850 -0.1935 -0.3843  0.2659
    8SAPS  H12R  992  -0.399   1.473  35.877 -0.2272 -0.2545 -0.1269
    8SAPS  C213  993  -0.226   1.482  35.741 -0.4451  0.2156 -0.0601
    8SAPS  H13R  994  -0.163   1.399  35.701 -0.3176  0.8096 -1.1082
    8SAPS  H13S  995  -0.154   1.546  35.796 -0.4115 -0.3693  0.5930
    8SAPS  C214  996  -0.311   1.547  35.643  0.4578 -0.9768  0.1151
    8SAPS  H14R  997  -0.361   1.478  35.574 -2.0475  0.9380 -0.1364
    8SAPS  C215  998  -0.310   1.680  35.604 -0.3149  0.0059 -0.7845
    8SAPS  H15R  999  -0.383   1.703  35.525 -1.3196 -0.0375  0.1141
    8SAPS  C216 1000  -0.234   1.787  35.680  0.2004 -0.6339  0.5649
    8SAPS  H16R 1001  -0.167   1.738  35.753  2.1003 -0.7124 -1.1483
    8SAPS  H16S 1002  -0.300   1.859  35.732 -1.6354 -1.0214 -1.0866
    8SAPS  C217 1003  -0.147   1.873  35.584  0.1199  0.1225 -0.4159
    8SAPS  H17R 1004  -0.190   1.885  35.482  1.7061 -0.1580 -1.1528
    8SAPS  H17S 1005  -0.054   1.813  35.568  0.2740 -0.0928  1.1600
    8SAPS  C218 1006  -0.133   2.012  35.649  0.2178  1.2383  0.4123
    8SAPS  H18R 1007  -0.239   2.045  35.647 -0.6050 -1.1651 -0.4412
    8SAPS  H18S 1008  -0.072   2.074  35.580  1.7164  1.4528  1.8799
    8SAPS  C219 1009  -0.069   2.018  35.789  0.1302  1.0810 -0.5234
    8SAPS  H19R 1010  -0.127   1.938  35.839 -1.2385 -0.3529 -4.1127
    8SAPS  H19S 1011  -0.087   2.117  35.837  0.8372  0.4656  1.0995
    8SAPS  C220 1012   0.075   1.978  35.789 -0.1963 -0.3685  0.6090
    8SAPS  H20R 1013   0.119   1.970  35.890 -1.7472  1.4971  1.4967
    8SAPS  H20S 1014   0.131   2.051  35.726 -0.0921 -1.3670 -0.4790
    8SAPS  H20T 1015   0.087   1.878  35.742 -1.4218 -0.2657  0.0346
    8SAPS   C33 1016   0.124   0.937  35.736  0.2169  0.7388 -0.0951
    8SAPS   H3X 1017   0.102   1.025  35.673  1.2622  0.2251 -1.2311
    8SAPS   H3Y 1018   0.077   0.961  35.834 -1.8084  0.0803 -0.8742
    8SAPS   C34 1019   0.038   0.801  35.700 -0.8480 -0.1314 -0.5322
    8SAPS   H4X 1020  -0.068   0.797  35.733 -0.5596 -0.0521  0.4257
    8SAPS   H4Y 1021   0.082   0.727  35.770 -1.2177 -0.9098 -1.1105
    8SAPS   C35 1022   0.079   0.749  35.564  0.6509  0.5777 -0.1554
    8SAPS   H5X 1023   0.184   0.762  35.530  0.3613 -0.5299 -1.5547
    8SAPS   H5Y 1024   0.020   0.800  35.485  2.6653  0.2355 -1.9651
    8SAPS   C36 1025   0.049   0.600  35.550 -0.9782 -0.1363 -0.9869
    8SAPS   H6X 1026  -0.035   0.584  35.620 -0.2514  1.8722  0.4225
    8SAPS   H6Y 1027   0.138   0.542  35.584 -0.6608  0.0360 -1.5041
    8SAPS   C37 1028   0.021   0.556  35.401 -0.2872 -0.3889 -0.3648
    8SAPS   H7X 1029   0.105   0.485  35.387 -0.8389 -1.5079  1.6880
    8SAPS   H7Y 1030   0.030   0.647  35.337  0.8481 -1.1434 -1.3244
    8SAPS   C38 1031  -0.099   0.473  35.379 -0.0336 -0.1785  0.1040
    8SAPS   H8X 1032  -0.096   0.413  35.472 -1.4992  0.9505  0.9437
    8SAPS   H8Y 1033  -0.087   0.410  35.289 -0.6192  0.5673 -0.5203
    8SAPS   C39 1034  -0.240   0.549  35.363 -0.1855  0.0222 -0.0038
    8SAPS   H9X 1035  -0.228   0.607  35.269 -2.1720  2.4800  1.1705
    8SAPS   H9Y 1036  -0.250   0.616  35.450  0.2123  2.2969 -1.6370
    8SAPS  C310 1037  -0.355   0.456  35.328  0.5417 -0.3812  0.4026
    8SAPS  H10X 1038  -0.367   0.381  35.409 -1.8501 -1.1293 -0.5552
    8SAPS  H10Y 1039  -0.331   0.406  35.232  0.6066  1.0106 -0.3261
    8SAPS  C311 1040  -0.489   0.517  35.323  0.2591 -0.7182  0.2353
    8SAPS  H11X 1041  -0.500   0.588  35.408 -2.4336 -0.5381 -0.1845
    8SAPS  H11Y 1042  -0.560   0.434  35.338 -1.6442  0.9837  1.1634
    8SAPS  C312 1043  -0.530   0.593  35.199 -0.6241  0.1375 -0.5190
    8SAPS  H12X 1044  -0.541   0.533  35.107  1.2681 -2.3354  0.7475
    8SAPS  H12Y 1045  -0.446   0.660  35.170 -1.3434  0.7532 -1.2364
    8SAPS  C313 1046  -0.643   0.695  35.218  1.0970  0.0794  0.9858
    8SAPS  H13X 1047  -0.661   0.754  35.126 -3.8182 -0.7667  1.1742
    8SAPS  H13Y 1048  -0.620   0.771  35.296  1.1686 -0.3045  1.3417
    8SAPS  C314 1049  -0.781   0.626  35.252 -0.5721  0.4259  0.4057
    8SAPS  H14X 1050  -0.766   0.566  35.344  0.9977 -0.0605 -0.1409
    8SAPS  H14Y 1051  -0.794   0.550  35.172  0.3062  0.1386  0.5259
    8SAPS  C315 1052  -0.897   0.721  35.270  0.5027  0.2973 -0.1441
    8SAPS  H15X 1053  -0.971   0.660  35.326  2.7358 -0.9238  1.6733
    8SAPS  H15Y 1054  -0.939   0.747  35.171 -0.9392 -2.7568 -0.4619
    8SAPS  C316 1055  -0.854   0.858  35.337  0.6953  0.2404  0.4060
    8SAPS  H16X 1056  -0.814   0.925  35.258  2.2184 -0.5939  0.4436
    8SAPS  H16Y 1057  -0.792   0.850  35.428 -0.6464  3.4740  1.7496
    8SAPS  C317 1058  -0.987   0.915  35.394  0.0040 -0.1845 -0.2546
    8SAPS  H17X 1059  -1.059   0.844  35.441  0.7808 -0.6460  0.2383
    8SAPS  H17Y 1060  -1.047   0.952  35.308 -0.4894 -0.6617 -0.1248
    8SAPS  C318 1061  -0.977   1.023  35.506  0.2237  0.2421 -0.3489
    8SAPS  H18X 1062  -1.078   1.048  35.544 -0.0526  1.3501 -1.7483
    8SAPS  H18Y 1063  -0.924   1.109  35.462  0.3678 -0.4541 -1.5872
    8SAPS  H18Z 1064  -0.922   0.985  35.595  0.1134 -1.0886 -0.8144
    9SAPS     N 1065   2.825   1.316  29.578 -0.6040  0.0532  0.1644
    9SAPS   HN1 1066   2.868   1.279  29.491 -0.6190  2.2536 -0.8410
    9SAPS   HN2 1067   2.844   1.256  29.661  1.3295  0.0049 -0.2808
    9SAPS   HN3 1068   2.723   1.330  29.564 -0.6567 -0.3721  0.0954
    9SAPS   C12 1069   2.878   1.448  29.598  0.1455 -0.0010 -0.4357
    9SAPS  H12A 1070   2.984   1.434  29.618 -0.2572 -1.4571  0.9399
    9SAPS   C13 1071   2.867   1.547  29.480 -0.1470 -0.7422 -0.0379
    9SAPS  O13A 1072   2.808   1.516  29.375 -0.4464  0.1479 -0.3697
    9SAPS  O13B 1073   2.936   1.656  29.499  0.0505 -0.7353 -0.3632
    9SAPS   C11 1074   2.823   1.511  29.731 -0.1142 -0.0910 -0.5567
    9SAPS  H11A 1075   2.712   1.520  29.723  0.0336  0.9881 -1.7202
    9SAPS  H11B 1076   2.854   1.617  29.744 -1.4055  0.4307 -1.5168
    9SAPS     P 1077   2.965   1.476  29.940 -0.2501 -0.0186  0.2269
    9SAPS   O13 1078   2.966   1.377  30.052  0.0079 -0.5556  0.5643
    9SAPS   O14 1079   3.104   1.496  29.879  0.2462 -0.2157  0.6538
    9SAPS   O12 1080   2.865   1.422  29.835  0.0381 -0.1174  0.2041
    9SAPS   O11 1081   2.905   1.613  29.984 -0.1955  0.0929  0.3624
    9SAPS    C1 1082   2.821   1.612  30.104  0.8479  0.1929  0.1532
    9SAPS    HA 1083   2.871   1.568  30.193 -1.0122  0.2470  1.2874
    9SAPS    HB 1084   2.798   1.718  30.129  0.8512  0.2969 -0.2852
    9SAPS    C2 1085   2.677   1.546  30.089 -0.6095 -0.2630 -0.0915
    9SAPS    HS 1086   2.687   1.442  30.053 -0.2804 -0.1869 -0.2227
    9SAPS   O21 1087   2.586   1.614  29.999  0.8738 -0.7324 -0.6104
    9SAPS   C21 1088   2.491   1.555  29.935  0.1754  0.3610 -0.2500
    9SAPS   O22 1089   2.480   1.440  29.907  0.0551  0.2504  1.0347
    9SAPS   C22 1090   2.393   1.667  29.896  0.3144  0.2320 -0.6171
    9SAPS   H2R 1091   2.338   1.704  29.985 -0.3356 -0.9314 -0.5213
    9SAPS   H2S 1092   2.454   1.752  29.858  0.6513  0.5060  0.4980
    9SAPS    C3 1093   2.609   1.526  30.227 -0.1160  0.3504  0.7198
    9SAPS    HX 1094   2.610   1.623  30.282 -0.7391  0.2036  0.9950
    9SAPS    HY 1095   2.664   1.447  30.283 -0.7508 -3.4188 -3.3938
    9SAPS   O31 1096   2.477   1.476  30.204 -0.2985 -0.3821 -0.3321
    9SAPS   C31 1097   2.448   1.352  30.222  0.0825 -0.1666 -0.0238
    9SAPS   O32 1098   2.520   1.266  30.266  0.4491  0.2624 -0.1885
    9SAPS   C32 1099   2.300   1.333  30.193  0.0920  0.0730  0.7272
    9SAPS   H2X 1100   2.280   1.340  30.084 -1.1391 -0.7304  0.8889
    9SAPS   H2Y 1101   2.246   1.420  30.237 -0.8881 -0.5383  0.7577
    9SAPS   C23 1102   2.280   1.627  29.795 -0.7361 -0.8084  0.2191
    9SAPS   H3R 1103   2.205   1.564  29.849 -0.1692  0.6028  2.7978
    9SAPS   H3S 1104   2.332   1.568  29.716  0.8588  0.2719  0.4175
    9SAPS   C24 1105   2.222   1.748  29.719  0.3390 -1.1431  0.8441
    9SAPS   H4R 1106   2.159   1.705  29.638 -1.2744 -2.0315  2.5059
    9SAPS   H4S 1107   2.309   1.801  29.673 -1.1534  1.0526  0.3627
    9SAPS   C25 1108   2.143   1.854  29.806  0.4052 -0.1747 -0.3752
    9SAPS   H5R 1109   2.065   1.819  29.875  2.8867 -1.1927  2.0559
    9SAPS   C26 1110   2.172   1.988  29.827 -0.0401 -0.2456  0.3686
    9SAPS   H6R 1111   2.125   2.051  29.904 -2.1286 -1.1387 -0.1046
    9SAPS   C27 1112   2.288   2.047  29.739  0.1274  0.2842 -0.3914
    9SAPS   H7R 1113   2.273   1.997  29.640  0.5971 -1.7181  0.5086
    9SAPS   H7S 1114   2.388   2.009  29.769 -0.1456 -0.7921 -0.8017
    9SAPS   C28 1115   2.296   2.195  29.742  0.2765 -0.0149  0.0146
    9SAPS   H8R 1116   2.262   2.241  29.836  1.9858  0.0227  0.6423
    9SAPS   C29 1117   2.344   2.279  29.659  0.0416 -0.3077  1.0420
    9SAPS   H9R 1118   2.344   2.384  29.693  1.4035 -0.1340  0.5568
    9SAPS  C210 1119   2.394   2.253  29.518 -0.5318 -0.0657  0.4189
    9SAPS  H10R 1120   2.336   2.177  29.462  1.6967 -1.1171 -0.5556
    9SAPS  H10S 1121   2.490   2.199  29.510  1.1250  2.5798  1.1827
    9SAPS  C211 1122   2.402   2.380  29.440 -0.3601  0.0344  0.4963
    9SAPS  H11R 1123   2.506   2.411  29.421 -0.7183  0.1960 -1.4728
    9SAPS  C212 1124   2.299   2.446  29.374 -0.2347  0.2997  0.8482
    9SAPS  H12R 1125   2.309   2.546  29.329  0.5645 -0.4679 -0.7780
    9SAPS  C213 1126   2.159   2.395  29.384 -0.3188  0.2650  0.0223
    9SAPS  H13R 1127   2.132   2.389  29.491  0.2449  1.7913  0.2797
    9SAPS  H13S 1128   2.159   2.293  29.341 -2.2710 -0.7910  2.3578
    9SAPS  C214 1129   2.046   2.471  29.321  0.0122  0.4658  0.1753
    9SAPS  H14R 1130   1.965   2.485  29.394 -0.5920  2.1009 -0.7592
    9SAPS  C215 1131   2.030   2.525  29.200  0.0447 -0.1982  0.5091
    9SAPS  H15R 1132   1.935   2.572  29.172 -0.0299 -0.3689  0.4760
    9SAPS  C216 1133   2.132   2.503  29.082  0.3195  0.2655  0.3828
    9SAPS  H16R 1134   2.064   2.476  28.998  0.1745 -1.7170  1.0900
    9SAPS  H16S 1135   2.203   2.420  29.102 -0.7558 -0.7136  0.2436
    9SAPS  C217 1136   2.205   2.638  29.045 -0.5564 -0.3770 -0.0631
    9SAPS  H17R 1137   2.296   2.635  28.981 -0.2133 -0.6183  0.4300
    9SAPS  H17S 1138   2.235   2.676  29.145 -4.5738  4.6295 -0.3950
    9SAPS  C218 1139   2.105   2.739  28.991  0.4148 -0.1889  0.0276
    9SAPS  H18R 1140   2.021   2.751  29.062  1.2842 -0.9477  1.2078
    9SAPS  H18S 1141   2.052   2.693  28.904  1.6870 -1.4032 -0.1261
    9SAPS  C219 1142   2.160   2.880  28.961 -0.2108  0.2037  0.5351
    9SAPS  H19R 1143   2.072   2.936  28.922 -0.7330 -1.0708 -0.2034
    9SAPS  H19S 1144   2.231   2.868  28.876 -0.9436 -0.9956  0.0620
    9SAPS  C220 1145   2.212   2.955  29.079  0.1109 -0.4679  0.5920
    9SAPS  H20R 1146   2.296   2.898  29.125  0.7572 -1.1248 -1.2969
    9SAPS  H20S 1147   2.135   2.966  29.158 -0.0632 -2.2144  0.6999
    9SAPS  H20T 1148   2.245   3.054  29.041 -0.8408 -1.3746 -3.0552
    9SAPS   C33 1149   2.254   1.201  30.257  0.2357  0.1405 -0.2686
    9SAPS   H3X 1150   2.251   1.223  30.366  0.2402  1.4725 -0.5142
    9SAPS   H3Y 1151   2.331   1.123  30.242 -0.4318 -0.1923 -2.1854
    9SAPS   C34 1152   2.125   1.147  30.210  0.4976  0.2662 -0.2496
    9SAPS   H4X 1153   2.121   1.037  30.223  1.5176  0.4948  2.6213
    9SAPS   H4Y 1154   2.104   1.160  30.101 -2.8956 -0.5098  0.1832
    9SAPS   C35 1155   2.010   1.223  30.289 -0.3552 -0.1560  0.2448
    9SAPS   H5X 1156   2.035   1.331  30.278 -0.6520  0.1113  1.9575
    9SAPS   H5Y 1157   2.012   1.196  30.396  2.3558  2.0630  0.8650
    9SAPS   C36 1158   1.878   1.184  30.217 -0.5849 -0.1820  0.5605
    9SAPS   H6X 1159   1.868   1.074  30.211  0.9333 -0.3293  0.2076
    9SAPS   H6Y 1160   1.880   1.223  30.113 -0.1426 -0.1755  0.5695
    9SAPS   C37 1161   1.755   1.240  30.296 -0.5727  0.2082 -0.0441
    9SAPS   H7X 1162   1.782   1.214  30.400  2.5593 -2.4595 -1.3331
    9SAPS   H7Y 1163   1.664   1.186  30.265  0.8358 -1.1615 -2.0857
    9SAPS   C38 1164   1.731   1.387  30.277  0.3423  0.5112 -0.4439
    9SAPS   H8X 1165   1.710   1.420  30.174  0.2902  1.4543 -0.1397
    9SAPS   H8Y 1166   1.828   1.432  30.305  1.8535 -2.5722 -0.2191
    9SAPS   C39 1167   1.616   1.438  30.366  0.1199 -0.2405  0.1428
    9SAPS   H9X 1168   1.643   1.420  30.472  1.3254  2.6998  0.4095
    9SAPS   H9Y 1169   1.516   1.393  30.343 -0.5453  1.2602  0.0155
    9SAPS  C310 1170   1.602   1.593  30.365 -0.2431  0.4385 -0.4800
    9SAPS  H10X 1171   1.706   1.631  30.366 -0.1593  0.2075 -0.2561
    9SAPS  H10Y 1172   1.542   1.625  30.453 -0.6418  0.1073 -0.6266
    9SAPS  C311 1173   1.541   1.645  30.233  0.4662 -0.1638  0.1129
    9SAPS  H11X 1174   1.442   1.598  30.220  1.0202 -0.9395 -1.6691
    9SAPS  H11Y 1175   1.615   1.605  30.160  1.6075  1.6342  0.2038
    9SAPS  C312 1176   1.523   1.799  30.225 -0.9312 -0.4999  0.0573
    9SAPS  H12X 1177   1.488   1.823  30.327 -0.2874  0.5723  0.0450
    9SAPS  H12Y 1178   1.443   1.821  30.150  0.2614 -1.5331 -1.5952
    9SAPS  C313 1179   1.658   1.862  30.183 -0.1636  0.0973 -0.3122
    9SAPS  H13X 1180   1.675   1.825  30.080  0.6304 -2.4924  0.6663
    9SAPS  H13Y 1181   1.734   1.828  30.256 -0.5725  1.6326  0.8813
    9SAPS  C314 1182   1.667   2.015  30.195  0.0908 -0.1128  0.1572
    9SAPS  H14X 1183   1.607   2.035  30.287  0.6464 -0.5099  0.6167
    9SAPS  H14Y 1184   1.610   2.063  30.112  2.1529  0.2677 -1.1182
    9SAPS  C315 1185   1.811   2.068  30.208 -0.1438 -0.0192 -0.1696
    9SAPS  H15X 1186   1.870   2.054  30.115 -2.0756  0.5141 -1.5393
    9SAPS  H15Y 1187   1.854   2.039  30.306 -0.0939  2.1494  0.4918
    9SAPS  C316 1188   1.808   2.224  30.233 -0.4520 -0.1950 -0.4854
    9SAPS  H16X 1189   1.765   2.238  30.334  3.6306  2.9321  1.1116
    9SAPS  H16Y 1190   1.747   2.270  30.152  0.6823 -0.1935 -1.3815
    9SAPS  C317 1191   1.948   2.294  30.235  0.3514  0.6989  0.1443
    9SAPS  H17X 1192   2.018   2.247  30.162 -0.3645 -0.6734  0.3227
    9SAPS  H17Y 1193   2.002   2.275  30.330 -0.0075  2.7164  0.8106
    9SAPS  C318 1194   1.943   2.447  30.218  0.2347  0.0954  0.1160
    9SAPS  H18X 1195   2.045   2.480  30.188  0.8165 -2.4514 -1.0296
    9SAPS  H18Y 1196   1.921   2.485  30.320 -4.0915  0.5054 -0.7702
    9SAPS  H18Z 1197   1.867   2.479  30.144  1.1094 -0.3878 -1.0160
   10SAPS     N 1198   3.209   1.688  29.510 -0.1693  0.1804  0.0461
   10SAPS   HN1 1199   3.105   1.694  29.503 -0.2700  3.6155  2.2988
   10SAPS   HN2 1200   3.251   1.595  29.490  0.5222  0.6530 -0.7500
   10SAPS   HN3 1201   3.226   1.701  29.612 -0.9400  2.0205 -0.0371
   10SAPS   C12 1202   3.275   1.787  29.419  0.5142 -0.9957 -0.2611
   10SAPS  H12A 1203   3.261   1.760  29.315  0.0304 -2.8247  0.2455
   10SAPS   C13 1204   3.231   1.929  29.444  0.7353 -0.3160 -0.2567
   10SAPS  O13A 1205   3.128   1.956  29.518  0.0059 -0.5276  0.1041
   10SAPS  O13B 1206   3.276   2.025  29.370  0.5491  0.0781 -0.1389
   10SAPS   C11 1207   3.430   1.781  29.441 -0.0992  0.5445 -0.0205
   10SAPS  H11A 1208   3.455   1.817  29.543  0.3481 -0.6552  0.3196
   10SAPS  H11B 1209   3.477   1.849  29.367  1.8531  1.4136  1.8938
   10SAPS     P 1210   3.529   1.592  29.281  0.3253 -0.0295  0.2134
   10SAPS   O13 1211   3.570   1.452  29.309  0.5351  0.2882  0.6101
   10SAPS   O14 1212   3.427   1.611  29.174 -0.4962  0.1591 -0.1313
   10SAPS   O12 1213   3.476   1.647  29.416  0.1655  0.0653  0.2661
   10SAPS   O11 1214   3.652   1.678  29.236  0.6662  0.6143 -0.6090
   10SAPS    C1 1215   3.768   1.680  29.322 -0.0750  0.0822  0.0584
   10SAPS    HA 1216   3.759   1.636  29.424 -0.1669 -0.8608 -0.3537
   10SAPS    HB 1217   3.856   1.630  29.276 -0.3481 -0.1737 -0.1846
   10SAPS    C2 1218   3.812   1.824  29.326  0.4581  0.1760 -0.3438
   10SAPS    HS 1219   3.750   1.886  29.394 -1.2343 -2.0730  0.2818
   10SAPS   O21 1220   3.809   1.870  29.192  0.7109  0.1493 -0.2957
   10SAPS   C21 1221   3.790   2.000  29.172  0.1818 -0.0291 -0.3831
   10SAPS   O22 1222   3.800   2.086  29.257 -0.1239 -0.3870  0.1671
   10SAPS   C22 1223   3.736   2.017  29.034  0.1993  0.6070  0.5194
   10SAPS   H2R 1224   3.664   1.935  29.013 -0.2611  1.6518 -2.4595
   10SAPS   H2S 1225   3.672   2.107  29.046  0.6431  0.7856  1.8006
   10SAPS    C3 1226   3.957   1.839  29.394  0.2947  0.1098 -0.1083
   10SAPS    HX 1227   3.977   1.947  29.407 -1.2989  0.5879 -1.2641
   10SAPS    HY 1228   4.029   1.792  29.324 -0.3702 -2.5717  0.8930
   10SAPS   O31 1229   3.984   1.769  29.513 -0.3006  0.2383 -0.1932
   10SAPS   C31 1230   3.895   1.802  29.615 -0.2386  0.0442 -0.2842
   10SAPS   O32 1231   3.811   1.886  29.612 -0.3047 -0.5070  0.1595
   10SAPS   C32 1232   3.931   1.712  29.737  0.2270 -0.3118 -0.4593
   10SAPS   H2X 1233   3.886   1.613  29.715  1.1979 -1.1458  1.1211
   10SAPS   H2Y 1234   3.885   1.760  29.826  2.0824 -0.4363  0.6245
   10SAPS   C23 1235   3.847   2.032  28.924  0.0821 -0.1722  0.5409
   10SAPS   H3R 1236   3.944   1.988  28.955  1.0414  1.3740 -0.1018
   10SAPS   H3S 1237   3.877   2.138  28.908  0.8034 -0.7110 -2.1656
   10SAPS   C24 1238   3.809   1.961  28.802  0.4629  0.0605 -0.2203
   10SAPS   H4R 1239   3.720   2.011  28.760  0.9121  1.6464  0.6210
   10SAPS   H4S 1240   3.777   1.858  28.831 -1.9441  0.2850 -1.8421
   10SAPS   C25 1241   3.922   1.953  28.698  0.6327 -0.3334  0.1662
   10SAPS   H5R 1242   3.976   1.857  28.701 -2.1617 -1.9815  1.9576
   10SAPS   C26 1243   3.975   2.054  28.630 -0.3515  0.0743 -0.2736
   10SAPS   H6R 1244   4.061   2.031  28.566 -1.2795 -0.5762 -1.3302
   10SAPS   C27 1245   3.931   2.201  28.637 -0.4027  0.2904  0.3145
   10SAPS   H7R 1246   3.993   2.255  28.563 -2.3389  1.6585 -0.3980
   10SAPS   H7S 1247   3.959   2.247  28.733 -0.1282  1.4152 -0.2963
   10SAPS   C28 1248   3.789   2.243  28.617 -0.6430  0.4166 -0.5790
   10SAPS   H8R 1249   3.720   2.222  28.700 -3.0349 -0.7135 -2.7203
   10SAPS   C29 1250   3.739   2.306  28.510  0.6770  0.2992  0.4907
   10SAPS   H9R 1251   3.629   2.315  28.508  0.5382 -1.3791 -0.5039
   10SAPS  C210 1252   3.813   2.339  28.382  0.1881 -0.3728  0.1109
   10SAPS  H10R 1253   3.873   2.255  28.340  0.4917  0.9493 -2.2955
   10SAPS  H10S 1254   3.890   2.417  28.401 -0.2226  0.5630 -1.8637
   10SAPS  C211 1255   3.718   2.390  28.275 -0.4716 -0.0365  0.2879
   10SAPS  H11R 1256   3.652   2.471  28.309  0.3010  0.4523  0.6631
   10SAPS  C212 1257   3.701   2.345  28.151  0.1913  0.0507 -0.0204
   10SAPS  H12R 1258   3.622   2.389  28.088 -0.0877  0.8003  0.8239
   10SAPS  C213 1259   3.772   2.231  28.090 -0.2441  0.1942  0.3971
   10SAPS  H13R 1260   3.877   2.217  28.121 -0.8152 -2.9571  1.2419
   10SAPS  H13S 1261   3.785   2.257  27.983  1.7448  0.7807  0.7460
   10SAPS  C214 1262   3.683   2.106  28.112 -0.4903 -0.2870  0.1729
   10SAPS  H14R 1263   3.718   2.054  28.203  0.8000 -1.4908 -0.9673
   10SAPS  C215 1264   3.582   2.049  28.041 -0.1118 -0.5569 -0.2386
   10SAPS  H15R 1265   3.529   1.965  28.088 -1.2206 -1.5080 -3.0211
   10SAPS  C216 1266   3.533   2.091  27.908  0.0950 -0.2718 -0.0081
   10SAPS  H16R 1267   3.591   2.172  27.860 -1.0653  0.9767  0.6380
   10SAPS  H16S 1268   3.428   2.127  27.903 -0.2321 -1.2371 -0.4452
   10SAPS  C217 1269   3.543   1.968  27.824 -0.1849 -0.6251 -0.1475
   10SAPS  H17R 1270   3.509   1.982  27.719  0.0370 -0.6604 -0.2230
   10SAPS  H17S 1271   3.470   1.894  27.862  0.6205 -0.6378  1.4893
   10SAPS  C218 1272   3.690   1.900  27.813 -0.3715 -0.3441  0.4482
   10SAPS  H18R 1273   3.674   1.798  27.771 -0.4329 -1.1419  2.2991
   10SAPS  H18S 1274   3.729   1.862  27.910  0.6942 -1.9201 -0.5501
   10SAPS  C219 1275   3.805   1.975  27.753  0.3063 -0.6430  0.0844
   10SAPS  H19R 1276   3.830   2.065  27.813  0.1772  1.5051 -2.8460
   10SAPS  H19S 1277   3.768   2.013  27.655 -1.2385 -0.8644  0.5582
   10SAPS  C220 1278   3.943   1.901  27.739 -0.6339 -0.3684 -0.3932
   10SAPS  H20R 1279   3.929   1.810  27.677 -3.0841 -1.2423  1.3087
   10SAPS  H20S 1280   3.985   1.875  27.839 -1.1044 -2.1502 -0.6151
   10SAPS  H20T 1281   4.018   1.975  27.705 -0.7485 -0.4930 -0.9256
   10SAPS   C33 1282   4.078   1.698  29.759 -0.2627 -0.2677 -0.4858
   10SAPS   H3X 1283   4.131   1.647  29.676  1.0935  1.1550 -0.5324
   10SAPS   H3Y 1284   4.093   1.635  29.849  0.7661 -0.7633 -0.9929
   10SAPS   C34 1285   4.147   1.832  29.781  0.3280 -0.1960 -0.2999
   10SAPS   H4X 1286   4.148   1.899  29.692  1.0630  0.0373 -0.1220
   10SAPS   H4Y 1287   4.256   1.813  29.782  0.7152  1.8173  1.2616
   10SAPS   C35 1288   4.122   1.911  29.904 -0.2200 -0.0623 -0.2066
   10SAPS   H5X 1289   4.139   1.848  29.994 -2.2867 -0.3603  0.0115
   10SAPS   H5Y 1290   4.021   1.957  29.900 -0.9435 -1.3580  1.5731
   10SAPS   C36 1291   4.210   2.035  29.918 -0.6844  0.3751  0.6481
   10SAPS   H6X 1292   4.189   2.108  29.837  5.1830  0.2695 -1.4552
   10SAPS   H6Y 1293   4.315   2.007  29.893 -0.1160  1.3751  1.8150
   10SAPS   C37 1294   4.218   2.100  30.053  0.3620  0.2391 -0.4358
   10SAPS   H7X 1295   4.274   2.039  30.127 -0.5393  1.1518  1.0488
   10SAPS   H7Y 1296   4.120   2.123  30.101  0.6852  1.9329 -0.5206
   10SAPS   C38 1297   4.287   2.244  30.039  0.3020  0.1184  0.7927
   10SAPS   H8X 1298   4.224   2.310  29.975 -0.4542 -0.5583  0.8169
   10SAPS   H8Y 1299   4.384   2.234  29.986 -0.2069  1.2523 -0.4193
   10SAPS   C39 1300   4.309   2.312  30.175  0.4745  0.5133  0.4539
   10SAPS   H9X 1301   4.368   2.241  30.235  0.5384 -1.4503 -1.7733
   10SAPS   H9Y 1302   4.206   2.315  30.216 -1.0049 -1.5311 -2.7131
   10SAPS  C310 1303   4.366   2.454  30.169 -0.7840  1.3439  0.2531
   10SAPS  H10X 1304   4.294   2.530  30.132 -0.0804  1.1805 -1.5448
   10SAPS  H10Y 1305   4.453   2.458  30.100  1.7320 -1.3338  2.9829
   10SAPS  C311 1306   4.404   2.493  30.311  0.3949 -0.2623 -0.2371
   10SAPS  H11X 1307   4.455   2.412  30.367  1.0580  0.3464  0.0570
   10SAPS  H11Y 1308   4.306   2.508  30.362  0.0258 -0.8523 -0.7717
   10SAPS  C312 1309   4.486   2.621  30.329 -0.1054  0.3499  0.1518
   10SAPS  H12X 1310   4.435   2.698  30.267 -0.4377 -0.0441 -0.0659
   10SAPS  H12Y 1311   4.592   2.605  30.299 -0.4667 -0.9985 -0.4401
   10SAPS  C313 1312   4.481   2.677  30.474 -0.3101  0.2877 -0.1541
   10SAPS  H13X 1313   4.563   2.623  30.526 -1.4107 -0.1444  1.1826
   10SAPS  H13Y 1314   4.385   2.653  30.523 -0.0153  1.5161  1.0962
   10SAPS  C314 1315   4.494   2.835  30.488  0.4346  0.4759 -0.2196
   10SAPS  H14X 1316   4.394   2.871  30.456 -0.7154 -1.7950  0.5875
   10SAPS  H14Y 1317   4.574   2.874  30.422  0.3424 -1.2524 -1.4308
   10SAPS  C315 1318   4.521   2.883  30.629  0.5384 -0.2554  0.2775
   10SAPS  H15X 1319   4.622   2.859  30.669 -1.1335 -1.3581  4.4196
   10SAPS  H15Y 1320   4.457   2.836  30.707  0.9072 -1.1819  0.0294
   10SAPS  C316 1321   4.518   3.041  30.641  0.2930 -0.5017  0.7339
   10SAPS  H16X 1322   4.462   3.072  30.732  0.0814  0.2933  0.3300
   10SAPS  H16Y 1323   4.448   3.067  30.559  1.8831  0.4499 -0.3730
   10SAPS  C317 1324   4.660   3.102  30.622 -0.2431  0.6227 -0.6636
   10SAPS  H17X 1325   4.722   3.052  30.545  0.6864  1.4121 -0.4397
   10SAPS  H17Y 1326   4.720   3.066  30.708 -1.3869 -0.8735 -0.4357
   10SAPS  C318 1327   4.656   3.257  30.611 -0.3055 -0.1359  0.0416
   10SAPS  H18X 1328   4.689   3.291  30.510 -2.1901  2.3389  0.1570
   10SAPS  H18Y 1329   4.717   3.302  30.692 -1.7954  1.1738  0.4816
   10SAPS  H18Z 1330   4.555   3.299  30.631 -0.0769  0.2446  0.4209
   11SAPS     N 1331   2.806   0.653  25.901  0.3875 -0.1393 -0.7023
   11SAPS   HN1 1332   2.858   0.740  25.926 -1.4508  0.4794  1.2450
   11SAPS   HN2 1333   2.864   0.566  25.892  0.0433 -0.1825 -3.1662
   11SAPS   HN3 1334   2.747   0.667  25.817 -0.3006  0.8417 -0.0717
   11SAPS   C12 1335   2.717   0.639  26.021  0.4330  0.6029  0.6033
   11SAPS  H12A 1336   2.778   0.614  26.107  1.3167  3.1732  0.8115
   11SAPS   C13 1337   2.636   0.761  26.066  0.2677 -0.0399  0.2983
   11SAPS  O13A 1338   2.652   0.873  26.002 -0.5355 -0.1133 -0.2551
   11SAPS  O13B 1339   2.587   0.762  26.178 -0.4753  0.2017 -0.6568
   11SAPS   C11 1340   2.615   0.522  25.996  0.1781 -0.6918 -0.4785
   11SAPS  H11A 1341   2.565   0.540  25.898  0.1570  2.4470  0.0056
   11SAPS  H11B 1342   2.527   0.515  26.063 -0.6260  1.0989 -1.2736
   11SAPS     P 1343   2.585   0.266  25.989 -0.6307  0.6765 -0.2147
   11SAPS   O13 1344   2.507   0.259  26.116  0.3632  0.3929 -0.0837
   11SAPS   O14 1345   2.511   0.276  25.861 -0.2864  0.3375 -0.2518
   11SAPS   O12 1346   2.683   0.397  25.999  0.2925  0.5321  0.2454
   11SAPS   O11 1347   2.688   0.140  25.971 -0.3726 -0.1202  0.3820
   11SAPS    C1 1348   2.813   0.126  26.033 -0.2407 -0.3967 -0.4054
   11SAPS    HA 1349   2.848   0.212  26.094  0.3201  0.2431 -1.5927
   11SAPS    HB 1350   2.827   0.035  26.095 -1.1885 -1.4943 -1.7117
   11SAPS    C2 1351   2.926   0.105  25.926  0.2596 -0.0084 -0.0669
   11SAPS    HS 1352   2.939   0.204  25.877  1.2741  1.0533  2.1551
   11SAPS   O21 1353   2.884   0.004  25.835  0.5786 -0.4037 -0.0224
   11SAPS   C21 1354   2.887   0.043  25.702  0.7272  0.1733  0.5491
   11SAPS   O22 1355   2.937   0.143  25.659 -0.1858  0.1540  0.0558
   11SAPS   C22 1356   2.832  -0.082  25.628  0.5540 -0.3044  0.4605
   11SAPS   H2R 1357   2.888  -0.173  25.658 -1.0255 -1.4801 -0.0233
   11SAPS   H2S 1358   2.731  -0.096  25.672  0.4674  0.2350  0.4442
   11SAPS    C3 1359   3.063   0.077  25.992 -0.1608 -0.1125 -0.0933
   11SAPS    HX 1360   3.054  -0.015  26.054 -0.9139  1.2417  1.9001
   11SAPS    HY 1361   3.067   0.155  26.071 -2.2364  0.0337 -0.0641
   11SAPS   O31 1362   3.174   0.065  25.907 -0.8783 -0.0309 -0.6994
   11SAPS   C31 1363   3.206   0.192  25.852  0.1129  0.3560  0.3758
   11SAPS   O32 1364   3.162   0.293  25.904  0.8116  0.1920 -0.2744
   11SAPS   C32 1365   3.307   0.177  25.741 -0.1673  0.1851 -0.5091
   11SAPS   H2X 1366   3.297   0.076  25.698 -2.2408 -0.9376  2.3119
   11SAPS   H2Y 1367   3.411   0.180  25.782  0.5199 -2.3308 -1.8809
   11SAPS   C23 1368   2.808  -0.051  25.474 -0.0055 -0.3332 -0.4615
   11SAPS   H3R 1369   2.896  -0.014  25.418  0.9003  0.5889  1.4574
   11SAPS   H3S 1370   2.732   0.030  25.470  1.3257  1.1067  1.4090
   11SAPS   C24 1371   2.730  -0.165  25.404 -0.4549  0.2010 -0.1935
   11SAPS   H4R 1372   2.674  -0.114  25.322 -2.4137 -0.6431  0.5547
   11SAPS   H4S 1373   2.658  -0.214  25.473  0.4558  0.3958  0.9237
   11SAPS   C25 1374   2.821  -0.267  25.348  0.9174 -0.6898 -0.3788
   11SAPS   H5R 1375   2.913  -0.225  25.306 -0.8264  1.4053 -2.3620
   11SAPS   C26 1376   2.797  -0.393  25.313  0.7605 -0.9216  0.1788
   11SAPS   H6R 1377   2.874  -0.456  25.267 -0.6973 -1.7219 -1.2849
   11SAPS   C27 1378   2.675  -0.473  25.366 -0.2274  0.2855  0.0834
   11SAPS   H7R 1379   2.583  -0.414  25.346 -0.7436 -0.8773 -1.1751
   11SAPS   H7S 1380   2.683  -0.491  25.475  0.2985  1.4758  0.2583
   11SAPS   C28 1381   2.658  -0.604  25.298  0.4959  0.2657 -0.1771
   11SAPS   H8R 1382   2.742  -0.620  25.229  1.9140  2.6040  0.8709
   11SAPS   C29 1383   2.552  -0.687  25.295  0.6571 -0.1712 -0.7084
   11SAPS   H9R 1384   2.541  -0.776  25.231 -1.6840 -1.6046  1.5110
   11SAPS  C210 1385   2.425  -0.675  25.382 -0.1076 -0.2614  0.1832
   11SAPS  H10R 1386   2.426  -0.575  25.432  1.4982  0.0065 -0.3259
   11SAPS  H10S 1387   2.424  -0.746  25.467 -0.7383  2.2249  2.3663
   11SAPS  C211 1388   2.291  -0.692  25.310  0.2021  0.1806  0.2565
   11SAPS  H11R 1389   2.225  -0.777  25.333  0.0938 -0.7914 -3.0672
   11SAPS  C212 1390   2.235  -0.609  25.227  0.0661  0.1446 -0.8236
   11SAPS  H12R 1391   2.148  -0.643  25.170  1.3614  0.6594 -3.2016
   11SAPS  C213 1392   2.277  -0.470  25.171  0.1895 -0.1090 -0.3092
   11SAPS  H13R 1393   2.294  -0.401  25.257 -2.8289  0.0046  0.3021
   11SAPS  H13S 1394   2.194  -0.422  25.116  0.3206  1.0664  0.4844
   11SAPS  C214 1395   2.403  -0.473  25.082 -0.3817  0.4133  0.2249
   11SAPS  H14R 1396   2.460  -0.565  25.060  2.4506  1.7614  1.4081
   11SAPS  C215 1397   2.454  -0.369  25.027 -0.2993 -0.6150  0.8721
   11SAPS  H15R 1398   2.543  -0.375  24.962 -0.7156  0.8814  0.1304
   11SAPS  C216 1399   2.403  -0.229  25.042 -0.7250 -0.2941 -0.3097
   11SAPS  H16R 1400   2.292  -0.230  25.052 -0.9676  1.4488 -2.1055
   11SAPS  H16S 1401   2.426  -0.178  24.946  0.5188  0.4703  0.3667
   11SAPS  C217 1402   2.468  -0.167  25.173  1.3378  0.3215 -0.7011
   11SAPS  H17R 1403   2.578  -0.169  25.156  1.3431 -0.2119 -0.6240
   11SAPS  H17S 1404   2.441  -0.223  25.265 -0.2878 -0.5094 -1.6302
   11SAPS  C218 1405   2.433  -0.017  25.209 -0.2855 -0.8071  0.1659
   11SAPS  H18R 1406   2.496   0.006  25.297  1.1078 -1.3567 -0.6490
   11SAPS  H18S 1407   2.325  -0.002  25.228  0.0910  2.3266  0.3307
   11SAPS  C219 1408   2.472   0.090  25.099  0.6329  0.1545  0.8492
   11SAPS  H19R 1409   2.461   0.189  25.149 -1.5430  0.0925  0.6071
   11SAPS  H19S 1410   2.392   0.087  25.022  2.2821  1.6266 -1.0171
   11SAPS  C220 1411   2.604   0.082  25.034 -0.9109 -0.7758  0.9853
   11SAPS  H20R 1412   2.605  -0.010  24.971 -0.1547 -1.6664  2.2439
   11SAPS  H20S 1413   2.685   0.082  25.110 -0.9614  2.1195  1.1521
   11SAPS  H20T 1414   2.622   0.177  24.979 -0.8399  0.3966  2.9307
   11SAPS   C33 1415   3.287   0.277  25.618 -0.0552 -0.2809 -0.4391
   11SAPS   H3X 1416   3.248   0.371  25.662 -0.5575 -0.6306 -0.1354
   11SAPS   H3Y 1417   3.200   0.247  25.555 -1.0125  2.5532 -0.5932
   11SAPS   C34 1418   3.416   0.299  25.546 -0.0470 -0.0207 -0.0049
   11SAPS   H4X 1419   3.469   0.203  25.529  0.2181 -0.0420  0.8958
   11SAPS   H4Y 1420   3.479   0.356  25.618 -0.8374  1.4117 -0.4112
   11SAPS   C35 1421   3.415   0.398  25.423 -0.1473 -1.3692 -0.0412
   11SAPS   H5X 1422   3.360   0.489  25.455  2.7820  1.4367 -2.3117
   11SAPS   H5Y 1423   3.361   0.353  25.337 -0.3563  0.0561 -0.6893
   11SAPS   C36 1424   3.558   0.438  25.380  0.3130 -0.0776  0.3147
   11SAPS   H6X 1425   3.605   0.354  25.324 -0.8036  0.7745 -2.0237
   11SAPS   H6Y 1426   3.611   0.442  25.478 -0.8185 -0.0428  0.9368
   11SAPS   C37 1427   3.575   0.572  25.305 -0.1467  0.4257 -0.5332
   11SAPS   H7X 1428   3.682   0.597  25.288 -0.0734  0.7094  0.2851
   11SAPS   H7Y 1429   3.530   0.660  25.357  0.8421 -1.5802  4.2297
   11SAPS   C38 1430   3.515   0.570  25.161  0.2338 -0.1152 -0.2170
   11SAPS   H8X 1431   3.408   0.539  25.155  0.4282 -0.6130 -1.2486
   11SAPS   H8Y 1432   3.565   0.487  25.106  0.5251 -0.5203  0.6352
   11SAPS   C39 1433   3.515   0.708  25.084 -0.2041 -0.0205  0.1573
   11SAPS   H9X 1434   3.508   0.798  25.150  2.6232  1.2888 -1.1686
   11SAPS   H9Y 1435   3.431   0.701  25.012  0.0552 -2.1918  0.0085
   11SAPS  C310 1436   3.649   0.716  25.010 -0.5151 -0.5851 -0.2902
   11SAPS  H10X 1437   3.685   0.625  24.958  1.1278 -0.4459  0.5266
   11SAPS  H10Y 1438   3.721   0.728  25.094  0.9037 -0.1920 -1.5191
   11SAPS  C311 1439   3.660   0.837  24.916  0.1733 -0.2957 -0.2092
   11SAPS  H11X 1440   3.631   0.931  24.967  1.3078  0.1904 -0.4465
   11SAPS  H11Y 1441   3.582   0.825  24.838  0.4907 -1.4325 -0.3701
   11SAPS  C312 1442   3.796   0.832  24.838  0.4366 -0.2623  0.1827
   11SAPS  H12X 1443   3.798   0.748  24.765  1.0640  0.0351 -0.1446
   11SAPS  H12Y 1444   3.880   0.808  24.906  0.8553 -3.1852 -1.2237
   11SAPS  C313 1445   3.809   0.963  24.754  0.1370  0.5319 -0.0296
   11SAPS  H13X 1446   3.778   1.046  24.822  0.5699  0.2246  0.5453
   11SAPS  H13Y 1447   3.725   0.954  24.681 -1.8577 -0.3287  2.2257
   11SAPS  C314 1448   3.941   0.994  24.689 -0.2800 -0.8714  0.4477
   11SAPS  H14X 1449   3.934   1.076  24.615  1.5697 -1.2694 -0.2276
   11SAPS  H14Y 1450   3.985   0.908  24.633 -0.8252 -0.5569 -0.4865
   11SAPS  C315 1451   4.049   1.028  24.786 -0.7791 -0.4234  0.4294
   11SAPS  H15X 1452   4.089   0.935  24.833  0.0267  0.2919  1.2040
   11SAPS  H15Y 1453   4.001   1.089  24.866 -3.3170 -0.9538 -0.6046
   11SAPS  C316 1454   4.163   1.118  24.720  0.3959  0.0238  0.8043
   11SAPS  H16X 1455   4.118   1.219  24.710 -0.3425 -0.4522 -0.9389
   11SAPS  H16Y 1456   4.183   1.077  24.619  0.0952 -0.7274  1.0445
   11SAPS  C317 1457   4.286   1.127  24.803 -0.2058  0.5232  0.3566
   11SAPS  H17X 1458   4.315   1.022  24.821 -0.0399  0.4050 -0.5634
   11SAPS  H17Y 1459   4.260   1.179  24.898 -2.8365  0.5048 -0.2771
   11SAPS  C318 1460   4.400   1.193  24.732  1.0632  0.2637 -0.6174
   11SAPS  H18X 1461   4.415   1.150  24.631  1.0442  1.2839 -1.0667
   11SAPS  H18Y 1462   4.492   1.171  24.791  1.0749 -0.1890 -0.8030
   11SAPS  H18Z 1463   4.385   1.302  24.718 -1.4359 -0.2656 -2.6847
   12SAPS     N 1464   3.432   0.642  31.141  0.3002 -0.2108 -0.3304
   12SAPS   HN1 1465   3.354   0.638  31.209 -0.3453  2.0950 -0.8531
   12SAPS   HN2 1466   3.422   0.738  31.103 -1.4438  0.0786  0.7814
   12SAPS   HN3 1467   3.404   0.570  31.071 -1.3043  0.3946 -0.3478
   12SAPS   C12 1468   3.548   0.596  31.221  0.1316  0.1869 -0.4768
   12SAPS  H12A 1469   3.521   0.504  31.270 -0.4810 -0.9707 -2.8343
   12SAPS   C13 1470   3.682   0.567  31.156  0.2678  0.4707  0.3409
   12SAPS  O13A 1471   3.703   0.613  31.036 -0.6490  0.3093 -0.1468
   12SAPS  O13B 1472   3.775   0.521  31.229  0.1916  0.0299 -0.3491
   12SAPS   C11 1473   3.569   0.700  31.333 -0.9352 -0.3283  0.5472
   12SAPS  H11A 1474   3.637   0.781  31.298 -2.8006  1.3334  0.5860
   12SAPS  H11B 1475   3.624   0.654  31.417 -0.1265  1.0349  0.8040
   12SAPS     P 1476   3.433   0.831  31.515 -0.3141  0.0105 -0.2386
   12SAPS   O13 1477   3.358   0.957  31.506  0.9387  0.3111 -0.5219
   12SAPS   O14 1478   3.391   0.732  31.612 -0.6641 -0.2380  0.4936
   12SAPS   O12 1479   3.446   0.762  31.368  0.2181 -0.8158 -0.6757
   12SAPS   O11 1480   3.583   0.881  31.540  1.0720 -0.3153 -0.2385
   12SAPS    C1 1481   3.652   0.821  31.655 -0.8288  0.3648 -0.2487
   12SAPS    HA 1482   3.635   0.883  31.745  0.9346  2.5331 -1.2948
   12SAPS    HB 1483   3.620   0.719  31.681 -0.4596  0.5760  1.0897
   12SAPS    C2 1484   3.806   0.828  31.640  0.1958 -0.0417 -0.4466
   12SAPS    HS 1485   3.831   0.769  31.549 -1.0378 -0.3721 -0.5949
   12SAPS   O21 1486   3.877   0.770  31.747 -0.2713 -0.1717  0.7326
   12SAPS   C21 1487   3.850   0.643  31.769 -0.6364 -0.3296  0.0846
   12SAPS   O22 1488   3.807   0.565  31.686  0.5104 -0.1671 -0.4955
   12SAPS   C22 1489   3.891   0.611  31.909 -0.5364  0.3763 -0.4021
   12SAPS   H2R 1490   3.997   0.644  31.919  0.1069 -1.7085  0.2279
   12SAPS   H2S 1491   3.817   0.663  31.972 -1.7352  2.0038 -2.9717
   12SAPS    C3 1492   3.860   0.973  31.620  0.2757  0.6245 -0.6882
   12SAPS    HX 1493   3.853   1.039  31.710 -1.6407 -0.4208 -0.0160
   12SAPS    HY 1494   3.806   1.020  31.535 -1.1654  1.5319  0.6700
   12SAPS   O31 1495   4.002   0.964  31.598  0.8557 -0.2396  1.3893
   12SAPS   C31 1496   4.033   0.909  31.478 -0.0109 -0.4465 -0.0234
   12SAPS   O32 1497   3.964   0.890  31.380  0.0357  0.3022  0.1137
   12SAPS   C32 1498   4.187   0.893  31.476  0.0070 -0.1490  0.5142
   12SAPS   H2X 1499   4.237   0.991  31.465 -0.6993  0.0940 -0.6886
   12SAPS   H2Y 1500   4.196   0.844  31.377 -1.0784  2.0144 -0.7318
   12SAPS   C23 1501   3.887   0.460  31.938 -1.2067  0.3063 -0.5726
   12SAPS   H3R 1502   3.912   0.389  31.857  1.9241  0.4511  0.1610
   12SAPS   H3S 1503   3.783   0.427  31.962 -0.8957 -0.0719  0.2931
   12SAPS   C24 1504   3.976   0.439  32.064  0.0887  0.4366 -0.0758
   12SAPS   H4R 1505   3.929   0.504  32.140  1.2073  2.3641 -0.9728
   12SAPS   H4S 1506   4.074   0.488  32.049  0.6095  0.5467  3.0496
   12SAPS   C25 1507   3.987   0.302  32.123  0.3252 -0.5731  0.1784
   12SAPS   H5R 1508   4.077   0.239  32.121 -0.1208 -1.2316  0.4169
   12SAPS   C26 1509   3.890   0.253  32.207 -0.3525  0.1665 -0.2255
   12SAPS   H6R 1510   3.901   0.151  32.246  2.4774  0.4656 -0.0273
   12SAPS   C27 1511   3.754   0.311  32.234  0.0310 -0.1729  0.5347
   12SAPS   H7R 1512   3.679   0.230  32.250  0.8132 -1.1815 -0.6396
   12SAPS   H7S 1513   3.711   0.385  32.165 -1.3014 -1.2322  0.1888
   12SAPS   C28 1514   3.759   0.378  32.365  0.0042 -0.0519 -1.0117
   12SAPS   H8R 1515   3.780   0.312  32.450 -1.0665  3.6997  2.5075
   12SAPS   C29 1516   3.739   0.506  32.405 -0.5519  0.0320 -0.2528
   12SAPS   H9R 1517   3.733   0.528  32.512 -3.1477  0.2820 -0.3912
   12SAPS  C210 1518   3.709   0.624  32.319 -1.4606 -0.6125  0.1473
   12SAPS  H10R 1519   3.771   0.618  32.228 -0.5387  1.2421  0.6033
   12SAPS  H10S 1520   3.744   0.713  32.375 -1.1766  0.9799 -2.4434
   12SAPS  C211 1521   3.561   0.621  32.284  0.0677 -0.6803 -0.1371
   12SAPS  H11R 1522   3.515   0.521  32.284 -0.9439 -0.2360  0.3360
   12SAPS  C212 1523   3.485   0.730  32.242 -0.1070  0.4518  0.4410
   12SAPS  H12R 1524   3.378   0.719  32.221 -0.2764 -0.1258  1.5274
   12SAPS  C213 1525   3.549   0.868  32.225  0.2450  0.0697 -0.9642
   12SAPS  H13R 1526   3.643   0.885  32.280 -1.3453  0.7952  1.6998
   12SAPS  H13S 1527   3.475   0.937  32.271  1.7310  0.4946  0.8779
   12SAPS  C214 1528   3.588   0.908  32.082 -0.6521  0.6298 -0.1536
   12SAPS  H14R 1529   3.609   0.825  32.013 -1.1291 -0.0827  0.5428
   12SAPS  C215 1530   3.567   1.028  32.028  0.0921 -0.4101  0.1502
   12SAPS  H15R 1531   3.584   1.034  31.920 -2.1778  0.9743 -0.1905
   12SAPS  C216 1532   3.529   1.154  32.103  0.1844 -0.7109  0.0733
   12SAPS  H16R 1533   3.521   1.143  32.213 -0.3345  1.1626  0.2657
   12SAPS  H16S 1534   3.433   1.204  32.078 -0.4157 -1.8419  0.0309
   12SAPS  C217 1535   3.652   1.246  32.072 -0.0129 -0.2169 -0.6578
   12SAPS  H17R 1536   3.747   1.189  32.076 -0.2347 -0.5733 -0.3732
   12SAPS  H17S 1537   3.659   1.325  32.150 -1.0111  0.1730 -0.9412
   12SAPS  C218 1538   3.652   1.309  31.932 -0.3299 -0.1834  0.4353
   12SAPS  H18R 1539   3.556   1.362  31.919 -0.3475  0.2808  2.2220
   12SAPS  H18S 1540   3.658   1.223  31.861 -0.0986  1.1731 -1.2429
   12SAPS  C219 1541   3.775   1.388  31.892  1.1806 -0.0710 -0.3524
   12SAPS  H19R 1542   3.865   1.324  31.898  1.8127  0.5368 -2.4099
   12SAPS  H19S 1543   3.780   1.473  31.964  1.8152  1.4187 -2.0758
   12SAPS  C220 1544   3.760   1.440  31.753  0.1492 -0.0184  0.0593
   12SAPS  H20R 1545   3.858   1.476  31.716  0.2263 -0.8553 -0.5863
   12SAPS  H20S 1546   3.696   1.530  31.761 -0.3490 -0.2482 -1.1306
   12SAPS  H20T 1547   3.714   1.370  31.680 -1.0321  2.0623 -1.2912
   12SAPS   C33 1548   4.256   0.809  31.585 -0.5696 -0.3635  0.6650
   12SAPS   H3X 1549   4.235   0.857  31.682 -2.7069 -0.2342  0.1978
   12SAPS   H3Y 1550   4.366   0.804  31.573 -0.1729  0.3245  3.3855
   12SAPS   C34 1551   4.202   0.673  31.595 -0.8240  0.5550 -0.7038
   12SAPS   H4X 1552   4.225   0.614  31.504 -2.6146  0.1767 -0.9522
   12SAPS   H4Y 1553   4.092   0.666  31.610 -0.6584 -0.8212 -0.0146
   12SAPS   C35 1554   4.266   0.594  31.715  0.7200 -0.6191 -0.0209
   12SAPS   H5X 1555   4.210   0.606  31.810  0.6927 -0.6721 -0.0291
   12SAPS   H5Y 1556   4.374   0.621  31.714  0.5522  0.0689 -0.1822
   12SAPS   C36 1557   4.254   0.449  31.665  0.4228  0.0928  1.1911
   12SAPS   H6X 1558   4.298   0.419  31.567 -1.5977 -0.5549  0.4288
   12SAPS   H6Y 1559   4.145   0.435  31.652  0.6338 -0.4096 -0.1816
   12SAPS   C37 1560   4.286   0.344  31.774  0.8559 -0.4952  0.8760
   12SAPS   H7X 1561   4.241   0.251  31.735  0.8995  0.1666 -0.8330
   12SAPS   H7Y 1562   4.233   0.371  31.868 -1.8792 -0.7060 -0.4873
   12SAPS   C38 1563   4.434   0.314  31.810 -0.6435 -0.6145 -0.1968
   12SAPS   H8X 1564   4.472   0.390  31.882 -0.4378 -1.5285  0.6841
   12SAPS   H8Y 1565   4.503   0.306  31.724  0.6812  0.7395  0.6941
   12SAPS   C39 1566   4.434   0.173  31.884 -0.9191 -0.3883  0.6383
   12SAPS   H9X 1567   4.399   0.089  31.820 -0.4575  1.3513 -2.0858
   12SAPS   H9Y 1568   4.356   0.168  31.962 -0.8898 -4.4080  0.6290
   12SAPS  C310 1569   4.572   0.144  31.936  0.0508  0.2537 -0.1982
   12SAPS  H10X 1570   4.638   0.227  31.969  0.5426  0.0977 -0.7622
   12SAPS  H10Y 1571   4.634   0.092  31.859  1.5049  1.6305 -0.0094
   12SAPS  C311 1572   4.566   0.064  32.067  0.3362 -0.1658 -0.3752
   12SAPS  H11X 1573   4.658   0.001  32.075 -0.2248 -0.8173  1.0991
   12SAPS  H11Y 1574   4.488  -0.013  32.049  1.3650 -1.2274 -0.5018
   12SAPS  C312 1575   4.559   0.142  32.193  0.7612 -0.0903 -0.0511
   12SAPS  H12X 1576   4.461   0.196  32.191  1.0346  0.4048 -0.6582
   12SAPS  H12Y 1577   4.635   0.223  32.199  0.3900  0.1855  1.5525
   12SAPS  C313 1578   4.571   0.057  32.316 -0.4128 -0.3653 -0.1664
   12SAPS  H13X 1579   4.568   0.127  32.401 -2.9484 -2.2959  1.4762
   12SAPS  H13Y 1580   4.669   0.005  32.313  0.4890  1.2399  0.3720
   12SAPS  C314 1581   4.462  -0.044  32.349  0.8267  0.2446 -0.0843
   12SAPS  H14X 1582   4.489  -0.086  32.448  0.6922  1.1226  0.3382
   12SAPS  H14Y 1583   4.458  -0.134  32.285  0.4718 -0.3402  0.7415
   12SAPS  C315 1584   4.319   0.015  32.378  0.2079  0.1574  0.5061
   12SAPS  H15X 1585   4.278   0.059  32.285 -2.3669 -1.7160  0.6455
   12SAPS  H15Y 1586   4.323   0.098  32.452  2.0837  1.3743 -0.8638
   12SAPS  C316 1587   4.229  -0.104  32.429 -0.0017 -0.5993 -0.1273
   12SAPS  H16X 1588   4.277  -0.152  32.516 -0.9352  0.0224  0.7492
   12SAPS  H16Y 1589   4.223  -0.180  32.348 -0.7258 -0.9878  0.2819
   12SAPS  C317 1590   4.093  -0.053  32.468 -0.4334 -0.1926  0.6191
   12SAPS  H17X 1591   4.054   0.014  32.388  1.5995  1.6167  1.0273
   12SAPS  H17Y 1592   4.111   0.013  32.556  0.0397  0.7404 -0.1536
   12SAPS  C318 1593   3.991  -0.157  32.487  0.7343 -0.4608  0.0298
   12SAPS  H18X 1594   3.950  -0.198  32.393 -1.6559  0.4220  0.6260
   12SAPS  H18Y 1595   3.902  -0.117  32.540 -0.2383 -1.5004 -0.7912
   12SAPS  H18Z 1596   4.032  -0.238  32.551 -0.0795 -1.3613 -0.5703
   13SAPS     N 1597   2.856   2.358  28.110  0.1156  0.2041  0.5647
   13SAPS   HN1 1598   2.917   2.313  28.181  0.1698  0.2499  0.5481
   13SAPS   HN2 1599   2.852   2.457  28.140  1.6031  0.1767  0.9535
   13SAPS   HN3 1600   2.767   2.307  28.126  1.6922 -3.0008  0.0173
   13SAPS   C12 1601   2.903   2.337  27.968  0.7571 -0.1546  0.0216
   13SAPS  H12A 1602   2.993   2.394  27.956 -0.3407  1.4622 -0.9189
   13SAPS   C13 1603   2.942   2.197  27.920  0.3517 -0.2615 -0.3584
   13SAPS  O13A 1604   2.915   2.092  27.983  0.3882 -0.0088 -0.6035
   13SAPS  O13B 1605   2.992   2.199  27.802  0.1729  0.7646 -0.3183
   13SAPS   C11 1606   2.794   2.397  27.876 -0.1332 -0.2870 -0.4262
   13SAPS  H11A 1607   2.696   2.369  27.921 -0.7730  2.7658  0.2928
   13SAPS  H11B 1608   2.816   2.361  27.773 -0.4277 -2.9506  0.3746
   13SAPS     P 1609   2.815   2.633  27.766  0.1066 -0.4585 -0.2372
   13SAPS   O13 1610   2.721   2.579  27.659 -0.3093 -0.3387 -0.2178
   13SAPS   O14 1611   2.791   2.778  27.803 -0.5938 -0.1369  0.1705
   13SAPS   O12 1612   2.794   2.541  27.892 -0.3118  0.3507  0.4694
   13SAPS   O11 1613   2.965   2.610  27.724 -0.1156  0.3609  0.1203
   13SAPS    C1 1614   3.022   2.692  27.621  0.4161  0.1090 -0.5773
   13SAPS    HA 1615   2.988   2.656  27.522 -0.0989 -0.2314 -0.2866
   13SAPS    HB 1616   3.003   2.798  27.646  0.2421 -0.2199  0.8216
   13SAPS    C2 1617   3.178   2.688  27.638 -0.5365  0.1712 -0.0099
   13SAPS    HS 1618   3.215   2.766  27.567 -1.9707  1.8537  1.0087
   13SAPS   O21 1619   3.233   2.556  27.622  0.0625  0.7186  0.4013
   13SAPS   C21 1620   3.206   2.509  27.506 -0.0819 -0.0414  0.9074
   13SAPS   O22 1621   3.187   2.572  27.403  0.3523  0.0924 -0.0036
   13SAPS   C22 1622   3.196   2.352  27.525  0.4992 -0.5605 -0.2239
   13SAPS   H2R 1623   3.273   2.315  27.596  1.8537  1.0565 -0.7772
   13SAPS   H2S 1624   3.089   2.335  27.551 -0.1576  0.2436 -2.1533
   13SAPS    C3 1625   3.232   2.741  27.775  0.6316  0.2128  0.5456
   13SAPS    HX 1626   3.230   2.652  27.841  0.7280 -1.4491 -1.5733
   13SAPS    HY 1627   3.183   2.836  27.805 -0.1654 -0.2801  0.8296
   13SAPS   O31 1628   3.371   2.770  27.763 -0.0699 -0.3065 -0.2860
   13SAPS   C31 1629   3.426   2.840  27.863  0.0227 -0.0814 -0.9531
   13SAPS   O32 1630   3.369   2.882  27.963 -0.4318 -0.6021  0.4586
   13SAPS   C32 1631   3.578   2.830  27.859 -0.5002 -0.1804  0.7421
   13SAPS   H2X 1632   3.622   2.862  27.955  1.1067  1.2109 -0.3910
   13SAPS   H2Y 1633   3.617   2.910  27.792 -1.2974  1.9852  2.7702
   13SAPS   C23 1634   3.214   2.269  27.395 -0.5260  0.5610  0.4338
   13SAPS   H3R 1635   3.160   2.321  27.312  0.9145  3.5498  1.2095
   13SAPS   H3S 1636   3.178   2.166  27.417 -1.8440  1.4698  2.8975
   13SAPS   C24 1637   3.358   2.273  27.343  0.8376  0.0749  0.0392
   13SAPS   H4R 1638   3.379   2.373  27.301 -1.4965  0.3658 -0.5483
   13SAPS   H4S 1639   3.363   2.198  27.261 -2.3354 -0.7295  0.4526
   13SAPS   C25 1640   3.457   2.243  27.453 -0.2867  0.4190  0.2530
   13SAPS   H5R 1641   3.509   2.326  27.504  1.8721 -1.6546  1.6259
   13SAPS   C26 1642   3.499   2.125  27.491  0.2192  1.3117 -0.8847
   13SAPS   H6R 1643   3.581   2.127  27.564 -1.5521 -0.4433  1.3127
   13SAPS   C27 1644   3.450   1.993  27.446 -0.0888 -0.0686  0.0120
   13SAPS   H7R 1645   3.418   1.997  27.339  1.1020  1.8716 -0.3275
   13SAPS   H7S 1646   3.373   1.960  27.519  0.4925  0.4293  0.8690
   13SAPS   C28 1647   3.566   1.892  27.444 -0.5031 -0.2491 -1.0720
   13SAPS   H8R 1648   3.618   1.893  27.541 -0.5767  1.6975 -1.0263
   13SAPS   C29 1649   3.588   1.799  27.347 -0.6820  0.3994  0.5800
   13SAPS   H9R 1650   3.682   1.741  27.353 -2.1262 -2.4528 -1.9877
   13SAPS  C210 1651   3.521   1.801  27.211  0.2702 -0.0198  0.1487
   13SAPS  H10R 1652   3.515   1.910  27.187 -0.4345 -0.0043  0.3520
   13SAPS  H10S 1653   3.419   1.759  27.229 -0.2471  1.0624 -0.1277
   13SAPS  C211 1654   3.588   1.724  27.093  0.6891  0.2396 -1.2471
   13SAPS  H11R 1655   3.523   1.649  27.046  0.7268 -0.5176 -0.1327
   13SAPS  C212 1656   3.708   1.749  27.039  0.0681  0.3761 -1.4736
   13SAPS  H12R 1657   3.743   1.691  26.953  2.8660 -3.0463  1.6522
   13SAPS  C213 1658   3.801   1.864  27.075  0.1416  0.2413  0.0621
   13SAPS  H13R 1659   3.905   1.826  27.086 -0.0782  0.0323  1.7122
   13SAPS  H13S 1660   3.782   1.899  27.179 -1.3091 -0.9174  0.2139
   13SAPS  C214 1661   3.775   1.992  26.999 -0.4492  0.5203  0.4070
   13SAPS  H14R 1662   3.672   2.032  27.003 -0.3353  1.2798 -2.4961
   13SAPS  C215 1663   3.861   2.069  26.938 -0.9805 -0.5142 -0.0168
   13SAPS  H15R 1664   3.821   2.159  26.888 -1.7684 -0.8953 -0.0763
   13SAPS  C216 1665   4.013   2.047  26.922  0.5053  0.7368 -0.0277
   13SAPS  H16R 1666   4.041   1.961  26.986 -1.0395  0.8882  0.8975
   13SAPS  H16S 1667   4.078   2.129  26.956 -0.1467  1.8617 -1.3688
   13SAPS  C217 1668   4.044   1.987  26.779 -0.3762 -0.7349  0.0529
   13SAPS  H17R 1669   4.152   1.961  26.779 -0.0450  0.5385  0.9577
   13SAPS  H17S 1670   4.021   2.071  26.710 -2.5005 -0.5540  0.9240
   13SAPS  C218 1671   3.953   1.870  26.735  0.4775  0.2558  0.0447
   13SAPS  H18R 1672   3.845   1.885  26.758  0.0421 -1.6900 -0.5267
   13SAPS  H18S 1673   3.973   1.778  26.794 -0.8726 -0.9450 -1.2756
   13SAPS  C219 1674   3.980   1.829  26.584 -0.1369 -0.1412 -0.4271
   13SAPS  H19R 1675   3.958   1.913  26.516 -0.6245 -1.2004 -1.6129
   13SAPS  H19S 1676   3.916   1.742  26.557  1.9762 -1.0445 -3.0047
   13SAPS  C220 1677   4.131   1.787  26.565  0.5730 -0.0667  0.7422
   13SAPS  H20R 1678   4.148   1.728  26.473 -1.7655  0.0052  0.2076
   13SAPS  H20S 1679   4.172   1.723  26.646  0.1558  0.3919  1.3312
   13SAPS  H20T 1680   4.201   1.873  26.564  2.6664 -1.6639  1.6924
   13SAPS   C33 1681   3.640   2.696  27.803  0.0024 -0.2131 -0.2445
   13SAPS   H3X 1682   3.616   2.679  27.695  0.0334  3.8971 -1.0754
   13SAPS   H3Y 1683   3.605   2.618  27.873  0.3901  0.6678  0.9689
   13SAPS   C34 1684   3.789   2.704  27.823  0.0200 -0.3790 -0.1101
   13SAPS   H4X 1685   3.825   2.696  27.928  0.6932 -3.3568 -0.4692
   13SAPS   H4Y 1686   3.828   2.790  27.766 -0.5907  0.0331  0.0890
   13SAPS   C35 1687   3.860   2.578  27.761  0.5845 -0.4859  0.1548
   13SAPS   H5X 1688   3.819   2.552  27.661 -1.5423  0.2267  0.7874
   13SAPS   H5Y 1689   3.838   2.495  27.832  1.8984 -0.7083  0.3223
   13SAPS   C36 1690   4.006   2.602  27.736 -0.4660 -0.5944  0.0501
   13SAPS   H6X 1691   4.045   2.649  27.828 -0.2754  3.4304 -1.8454
   13SAPS   H6Y 1692   4.017   2.674  27.652  2.2161  1.6310  2.1448
   13SAPS   C37 1693   4.096   2.476  27.720  0.1501 -0.3322  0.1567
   13SAPS   H7X 1694   4.197   2.520  27.728  0.5604 -0.6709 -2.2364
   13SAPS   H7Y 1695   4.088   2.437  27.616  0.9425  0.1001 -0.0709
   13SAPS   C38 1696   4.072   2.363  27.822 -0.0201 -0.1141 -0.5169
   13SAPS   H8X 1697   3.986   2.300  27.789  1.4134 -1.3702 -2.0018
   13SAPS   H8Y 1698   4.044   2.413  27.917  0.8906 -3.3652  1.6398
   13SAPS   C39 1699   4.187   2.266  27.847  0.2164  0.0722 -0.1441
   13SAPS   H9X 1700   4.194   2.207  27.753  3.8800 -0.2081  0.1780
   13SAPS   H9Y 1701   4.151   2.191  27.921 -0.9004  1.4111  0.7151
   13SAPS  C310 1702   4.324   2.323  27.880  0.1258  0.2625  0.0973
   13SAPS  H10X 1703   4.317   2.406  27.952  1.2028 -0.9917  1.7127
   13SAPS  H10Y 1704   4.355   2.364  27.781 -2.2609 -1.2190 -1.3708
   13SAPS  C311 1705   4.425   2.218  27.923 -0.2756  0.4705 -0.1224
   13SAPS  H11X 1706   4.355   2.132  27.934 -2.4242  2.0019 -1.1104
   13SAPS  H11Y 1707   4.474   2.244  28.019  0.3605 -0.7170 -0.1007
   13SAPS  C312 1708   4.538   2.185  27.821  0.4543  0.0237 -0.1937
   13SAPS  H12X 1709   4.621   2.154  27.888 -0.4510  0.5046  1.2102
   13SAPS  H12Y 1710   4.575   2.281  27.779  1.5858  0.7953  2.3564
   13SAPS  C313 1711   4.510   2.080  27.722 -0.1183 -0.3262 -0.2864
   13SAPS  H13X 1712   4.420   2.094  27.659  0.2038  0.3959 -0.5999
   13SAPS  H13Y 1713   4.494   1.986  27.779  0.9812 -0.6384 -0.4537
   13SAPS  C314 1714   4.617   2.062  27.619 -0.2892  0.8465  0.0086
   13SAPS  H14X 1715   4.711   2.026  27.668 -2.3079  0.0607  3.7423
   13SAPS  H14Y 1716   4.630   2.153  27.558  0.7280 -1.1781 -2.9979
   13SAPS  C315 1717   4.568   1.961  27.509 -0.7345 -0.2352 -0.1523
   13SAPS  H15X 1718   4.488   2.002  27.444 -2.0746  0.4928  1.8493
   13SAPS  H15Y 1719   4.519   1.876  27.561 -0.8340  0.0710  0.2663
   13SAPS  C316 1720   4.691   1.903  27.431 -1.3246 -0.5277 -0.8380
   13SAPS  H16X 1721   4.769   1.887  27.510 -0.3100  0.0586 -1.6957
   13SAPS  H16Y 1722   4.730   1.986  27.368  0.4925 -0.0283  0.8260
   13SAPS  C317 1723   4.674   1.784  27.347  0.4619 -0.3587  0.8362
   13SAPS  H17X 1724   4.602   1.799  27.264 -2.0053 -0.2186  2.8876
   13SAPS  H17Y 1725   4.625   1.716  27.420  0.1689  0.9936  1.9367
   13SAPS  C318 1726   4.813   1.728  27.300 -0.2173  0.3863  0.0715
   13SAPS  H18X 1727   4.877   1.732  27.390  1.1831  2.0686 -0.9279
   13SAPS  H18Y 1728   4.865   1.777  27.215  1.7972 -2.2715 -0.3502
   13SAPS  H18Z 1729   4.803   1.623  27.266 -1.1765  0.1940  0.9148
   14SAPS     N 1730   3.151   3.409  29.454  0.6960  0.1463  0.3997
   14SAPS   HN1 1731   3.119   3.369  29.544  0.6790 -0.9384 -0.0645
   14SAPS   HN2 1732   3.103   3.348  29.384  1.5300 -3.0328  2.3692
   14SAPS   HN3 1733   3.255   3.410  29.453  0.7158 -0.6212 -1.1303
   14SAPS   C12 1734   3.109   3.546  29.450  0.3583 -0.4555  0.2179
   14SAPS  H12A 1735   3.006   3.548  29.482  0.1382  0.0384 -0.5143
   14SAPS   C13 1736   3.205   3.631  29.536  1.2782 -0.3699  0.2399
   14SAPS  O13A 1737   3.317   3.584  29.571  0.2202 -0.2182 -0.3109
   14SAPS  O13B 1738   3.181   3.757  29.550  0.5517  0.0014  0.3860
   14SAPS   C11 1739   3.134   3.606  29.310 -0.2990 -0.0532 -0.1981
   14SAPS  H11A 1740   3.237   3.591  29.271 -1.6426 -0.3042 -4.1001
   14SAPS  H11B 1741   3.128   3.717  29.319  0.7119  0.0855 -1.0232
   14SAPS     P 1742   3.065   3.623  29.068  0.3040 -0.0383  0.6014
   14SAPS   O13 1743   2.951   3.579  28.983  0.4736 -0.0819  0.1305
   14SAPS   O14 1744   3.085   3.770  29.086  0.0175 -0.1600  0.4863
   14SAPS   O12 1745   3.035   3.565  29.209 -0.2632  0.3190  0.1548
   14SAPS   O11 1746   3.200   3.567  29.004 -0.5721 -0.1195 -0.3501
   14SAPS    C1 1747   3.241   3.432  29.050 -0.2992  0.1179  0.4864
   14SAPS    HA 1748   3.290   3.443  29.149  0.3017 -1.1773  0.3515
   14SAPS    HB 1749   3.156   3.365  29.075  0.3007  0.2927  3.4326
   14SAPS    C2 1750   3.343   3.365  28.957  0.0726 -0.9837 -1.1315
   14SAPS    HS 1751   3.369   3.271  29.010  2.4260 -0.0948 -0.5815
   14SAPS   O21 1752   3.462   3.453  28.937 -0.1102  0.2296 -1.1079
   14SAPS   C21 1753   3.566   3.436  29.034  0.0695  0.2148 -0.1145
   14SAPS   O22 1754   3.555   3.354  29.121 -0.7454  1.4782 -0.6234
   14SAPS   C22 1755   3.686   3.530  29.019  0.1966  0.1364 -0.1801
   14SAPS   H2R 1756   3.742   3.508  28.925 -0.4940  2.2074 -1.1409
   14SAPS   H2S 1757   3.650   3.635  29.016 -2.3802 -0.6887 -1.8726
   14SAPS    C3 1758   3.276   3.334  28.826  0.0169  1.3404  0.6597
   14SAPS    HX 1759   3.243   3.421  28.766  0.2649  0.8033 -0.2798
   14SAPS    HY 1760   3.193   3.264  28.849  1.4194 -0.7254 -0.2309
   14SAPS   O31 1761   3.374   3.256  28.746 -0.7399 -0.1810 -0.6031
   14SAPS   C31 1762   3.326   3.216  28.642  0.2488 -0.4527  0.7323
   14SAPS   O32 1763   3.204   3.205  28.616 -0.3368  0.2256  0.4932
   14SAPS   C32 1764   3.438   3.158  28.553  0.0326 -0.2911 -0.5662
   14SAPS   H2X 1765   3.507   3.089  28.607  0.7317  1.0927  0.3508
   14SAPS   H2Y 1766   3.509   3.235  28.516 -1.7453  0.6573 -2.1578
   14SAPS   C23 1767   3.790   3.504  29.129 -0.4499 -0.3426  0.4323
   14SAPS   H3R 1768   3.847   3.409  29.118 -1.0748 -0.5464 -1.2419
   14SAPS   H3S 1769   3.735   3.504  29.226 -2.3163  0.3029 -0.5959
   14SAPS   C24 1770   3.879   3.634  29.142 -0.0454  0.7427 -0.3183
   14SAPS   H4R 1771   3.932   3.625  29.240 -0.0756 -1.5737 -0.4812
   14SAPS   H4S 1772   3.804   3.715  29.157 -0.9999 -0.2350  0.3161
   14SAPS   C25 1773   3.973   3.667  29.028 -0.3277 -0.1752  0.1959
   14SAPS   H5R 1774   3.932   3.743  28.960 -0.8420 -0.4653  0.1684
   14SAPS   C26 1775   4.094   3.613  28.996  0.2841 -0.6742 -0.5437
   14SAPS   H6R 1776   4.149   3.661  28.914 -0.1545  1.9367  0.5553
   14SAPS   C27 1777   4.170   3.520  29.080 -0.0327  0.1847 -0.2065
   14SAPS   H7R 1778   4.239   3.457  29.019  0.6578 -0.5078  1.2128
   14SAPS   H7S 1779   4.101   3.443  29.121 -0.4495 -0.3411 -1.8038
   14SAPS   C28 1780   4.258   3.590  29.181  0.4230  0.0155  0.2576
   14SAPS   H8R 1781   4.227   3.686  29.226 -0.2843 -0.3754  0.6054
   14SAPS   C29 1782   4.380   3.547  29.221 -0.4624  0.2401 -0.1729
   14SAPS   H9R 1783   4.442   3.613  29.284  2.7883 -2.8947  0.2509
   14SAPS  C210 1784   4.453   3.419  29.167 -0.2413 -1.1326 -0.2362
   14SAPS  H10R 1785   4.380   3.338  29.143  0.9914 -2.4939  0.4349
   14SAPS  H10S 1786   4.494   3.375  29.260 -1.7368  0.1137  1.0692
   14SAPS  C211 1787   4.534   3.444  29.049 -0.7579  0.0229 -0.4621
   14SAPS  H11R 1788   4.496   3.511  28.971  0.5210  0.2468 -0.9168
   14SAPS  C212 1789   4.649   3.392  29.022 -0.1191 -0.5226  0.0619
   14SAPS  H12R 1790   4.690   3.394  28.920 -1.4521 -2.8406 -0.6045
   14SAPS  C213 1791   4.724   3.306  29.112  0.1467  0.1012  0.1503
   14SAPS  H13R 1792   4.774   3.228  29.050 -0.7664 -0.9119  0.6646
   14SAPS  H13S 1793   4.656   3.250  29.180  0.4923 -2.4453 -1.4795
   14SAPS  C214 1794   4.822   3.382  29.209  0.0693 -0.0257 -0.2437
   14SAPS  H14R 1795   4.776   3.455  29.277  0.1027  0.2141 -0.4798
   14SAPS  C215 1796   4.954   3.354  29.227 -1.0250  0.7406 -0.7505
   14SAPS  H15R 1797   5.017   3.412  29.296 -1.2978  0.2095 -0.0544
   14SAPS  C216 1798   5.029   3.247  29.147  0.6010 -0.0180 -0.3183
   14SAPS  H16R 1799   5.046   3.278  29.042  0.7184 -2.3994 -1.0638
   14SAPS  H16S 1800   4.981   3.147  29.150  0.9200 -0.5466 -5.0782
   14SAPS  C217 1801   5.167   3.208  29.214 -0.6226  0.1733 -0.1289
   14SAPS  H17R 1802   5.141   3.149  29.304 -1.2242 -1.8923 -1.5775
   14SAPS  H17S 1803   5.224   3.303  29.223 -1.1122  0.4231  0.3586
   14SAPS  C218 1804   5.254   3.117  29.126 -0.2287  0.5050  0.6934
   14SAPS  H18R 1805   5.186   3.033  29.105 -0.8532  1.3929 -0.9759
   14SAPS  H18S 1806   5.344   3.076  29.179 -1.6368 -2.4881  0.9633
   14SAPS  C219 1807   5.313   3.174  28.996 -0.0523 -0.0881 -0.8574
   14SAPS  H19R 1808   5.241   3.234  28.937  1.8890  1.8945 -1.3501
   14SAPS  H19S 1809   5.341   3.095  28.923 -0.4340  0.2144 -1.3400
   14SAPS  C220 1810   5.431   3.269  29.019 -0.4659  0.3103 -0.4301
   14SAPS  H20R 1811   5.486   3.297  28.927 -1.1492  0.1056 -0.9124
   14SAPS  H20S 1812   5.505   3.222  29.087  0.7322  0.0978 -1.8500
   14SAPS  H20T 1813   5.402   3.358  29.081  0.5964  0.7343 -0.5276
   14SAPS   C33 1814   3.385   3.095  28.429  0.1309 -0.0207  0.5778
   14SAPS   H3X 1815   3.332   3.171  28.368  0.6241 -1.1729 -1.3554
   14SAPS   H3Y 1816   3.302   3.026  28.456 -0.8543  0.6787 -0.5591
   14SAPS   C34 1817   3.488   3.017  28.345  0.8333 -0.3573 -0.0613
   14SAPS   H4X 1818   3.590   3.060  28.347  0.4460  0.6217 -0.4306
   14SAPS   H4Y 1819   3.455   3.013  28.239 -0.6136 -1.3253  0.3884
   14SAPS   C35 1820   3.503   2.873  28.388  0.4908  0.1335  0.2873
   14SAPS   H5X 1821   3.409   2.814  28.385  0.1781  0.6292  0.3084
   14SAPS   H5Y 1822   3.537   2.881  28.493  1.4329 -1.1111  0.1090
   14SAPS   C36 1823   3.597   2.790  28.308  0.6664 -0.2731  0.4001
   14SAPS   H6X 1824   3.575   2.791  28.199  2.4848 -2.0536 -0.0301
   14SAPS   H6Y 1825   3.574   2.685  28.335 -0.3943  0.6639  3.6841
   14SAPS   C37 1826   3.741   2.817  28.325  0.3275 -0.4102 -1.1695
   14SAPS   H7X 1827   3.769   2.783  28.427 -0.8095  0.1820 -0.6421
   14SAPS   H7Y 1828   3.734   2.927  28.328  1.3382 -0.3570  0.8706
   14SAPS   C38 1829   3.824   2.742  28.224 -0.2884  0.8921  0.4410
   14SAPS   H8X 1830   3.797   2.777  28.122 -0.4318  0.9765  0.5082
   14SAPS   H8Y 1831   3.803   2.633  28.233 -2.9567  1.4459  2.1449
   14SAPS   C39 1832   3.968   2.753  28.263 -0.2800  0.5759  0.1995
   14SAPS   H9X 1833   3.983   2.701  28.359  0.6731 -1.5152 -1.0221
   14SAPS   H9Y 1834   4.001   2.858  28.277  1.2465  0.2847 -0.9321
   14SAPS  C310 1835   4.057   2.692  28.153  0.1230 -0.3177  0.8285
   14SAPS  H10X 1836   4.043   2.757  28.064  1.1201 -2.5737 -1.0704
   14SAPS  H10Y 1837   4.017   2.589  28.142 -0.9779  0.0269  1.4085
   14SAPS  C311 1838   4.204   2.704  28.192 -0.4555 -0.6420  0.1283
   14SAPS  H11X 1839   4.220   2.797  28.251 -0.1645 -0.8163  0.3234
   14SAPS  H11Y 1840   4.271   2.698  28.104  1.7650  0.3745  1.6580
   14SAPS  C312 1841   4.251   2.595  28.294 -0.7318  0.5650  0.0992
   14SAPS  H12X 1842   4.174   2.578  28.372  1.4797 -0.8912  2.1198
   14SAPS  H12Y 1843   4.335   2.646  28.346 -0.2856 -0.6771  0.6384
   14SAPS  C313 1844   4.307   2.465  28.238  0.0877  0.8232  0.1811
   14SAPS  H13X 1845   4.395   2.472  28.170 -0.6884 -2.6153 -1.4195
   14SAPS  H13Y 1846   4.227   2.423  28.173  0.9281 -1.5507  0.5603
   14SAPS  C314 1847   4.317   2.362  28.351  0.5398 -0.3684 -0.5538
   14SAPS  H14X 1848   4.225   2.362  28.413  0.8549 -2.3538 -0.0289
   14SAPS  H14Y 1849   4.392   2.398  28.426  0.7988  1.1537 -1.4951
   14SAPS  C315 1850   4.348   2.222  28.290 -0.0402 -0.3505  0.7727
   14SAPS  H15X 1851   4.455   2.220  28.260 -0.5384 -0.4211 -1.1480
   14SAPS  H15Y 1852   4.292   2.199  28.196  1.2828  1.1694 -0.4468
   14SAPS  C316 1853   4.324   2.121  28.392 -0.0715 -0.1546  0.4131
   14SAPS  H16X 1854   4.352   2.022  28.350  0.5105 -0.3758  1.3157
   14SAPS  H16Y 1855   4.216   2.117  28.418 -0.2808 -1.9973 -0.5788
   14SAPS  C317 1856   4.422   2.141  28.510  0.3715  0.2686  0.3231
   14SAPS  H17X 1857   4.398   2.234  28.565 -2.6965  0.6023 -1.3522
   14SAPS  H17Y 1858   4.524   2.153  28.468  0.6450 -0.9897  0.5619
   14SAPS  C318 1859   4.397   2.022  28.601 -0.3978  0.5814  0.2188
   14SAPS  H18X 1860   4.400   1.926  28.545 -5.1641 -0.2344  0.8858
   14SAPS  H18Y 1861   4.292   2.019  28.637 -0.5669  0.6361 -0.2548
   14SAPS  H18Z 1862   4.478   2.015  28.677  0.4264  0.4125 -0.6542
   15SAPS     N 1863   2.368   1.335  26.212 -0.5713 -0.1865  0.8820
   15SAPS   HN1 1864   2.390   1.283  26.124 -1.0124  1.6932 -0.3956
   15SAPS   HN2 1865   2.401   1.270  26.287 -0.2164 -1.7991 -0.5817
   15SAPS   HN3 1866   2.267   1.347  26.234 -0.7889 -0.2241 -0.0519
   15SAPS   C12 1867   2.440   1.463  26.214  0.1677 -0.5762  0.8471
   15SAPS  H12A 1868   2.402   1.531  26.140  0.3038  1.0417  2.2085
   15SAPS   C13 1869   2.418   1.538  26.351 -0.4555 -1.0910  0.2113
   15SAPS  O13A 1870   2.338   1.506  26.441  0.2823  0.4284  0.2357
   15SAPS  O13B 1871   2.484   1.652  26.355  0.3214 -0.0560  0.7488
   15SAPS   C11 1872   2.589   1.443  26.176  0.9287 -0.9949  1.0448
   15SAPS  H11A 1873   2.635   1.365  26.240  2.8566 -1.9538 -1.3568
   15SAPS  H11B 1874   2.635   1.540  26.206 -1.8949  0.7274  0.2140
   15SAPS     P 1875   2.623   1.270  25.975 -0.3338  0.1015 -0.0813
   15SAPS   O13 1876   2.513   1.198  26.039 -0.1693  0.3136  0.0471
   15SAPS   O14 1877   2.630   1.276  25.826 -0.3394  0.0797  0.5704
   15SAPS   O12 1878   2.612   1.418  26.031 -0.0721  0.5237  0.2918
   15SAPS   O11 1879   2.754   1.210  26.025 -0.9213 -0.0725  0.4411
   15SAPS    C1 1880   2.875   1.270  26.016 -0.1950 -0.2459  0.2198
   15SAPS    HA 1881   2.868   1.377  26.042  1.6947  0.0797 -0.5254
   15SAPS    HB 1882   2.935   1.225  26.098 -1.5965 -0.3898  1.2224
   15SAPS    C2 1883   2.953   1.267  25.879 -0.3455  0.0714 -0.0761
   15SAPS    HS 1884   2.907   1.350  25.821 -0.8917  1.3101  2.0155
   15SAPS   O21 1885   2.924   1.138  25.818  0.0417  1.1228  0.5073
   15SAPS   C21 1886   2.889   1.138  25.693  0.3493 -0.1262 -0.0632
   15SAPS   O22 1887   2.894   1.237  25.618  0.3139 -0.7252 -0.0204
   15SAPS   C22 1888   2.858   0.997  25.645  0.0657 -0.0261 -1.2425
   15SAPS   H2R 1889   2.881   0.935  25.735  0.2979  0.9099 -0.6396
   15SAPS   H2S 1890   2.751   0.999  25.616 -0.0641  1.1696 -0.7383
   15SAPS    C3 1891   3.099   1.282  25.899  0.1357 -0.5628 -0.3517
   15SAPS    HX 1892   3.117   1.196  25.966 -0.7696 -0.7463 -0.3341
   15SAPS    HY 1893   3.122   1.372  25.960 -1.5066  0.2421 -0.8586
   15SAPS   O31 1894   3.180   1.274  25.785 -0.8333  0.5929  0.4759
   15SAPS   C31 1895   3.187   1.375  25.701  0.4951 -0.5135  0.5744
   15SAPS   O32 1896   3.138   1.489  25.720 -0.4781 -0.2063  0.5316
   15SAPS   C32 1897   3.246   1.331  25.572 -0.8435  0.3069  0.2170
   15SAPS   H2X 1898   3.170   1.264  25.525 -0.5685 -0.6521  1.0944
   15SAPS   H2Y 1899   3.337   1.269  25.589 -0.3556  0.8915 -0.2335
   15SAPS   C23 1900   2.950   0.951  25.533 -0.1021 -0.0970 -0.6031
   15SAPS   H3R 1901   2.959   1.039  25.466 -1.5329  0.0688 -0.6041
   15SAPS   H3S 1902   2.896   0.867  25.485  0.0485 -0.8116  0.4335
   15SAPS   C24 1903   3.088   0.906  25.582 -0.3260 -0.0757  0.2412
   15SAPS   H4R 1904   3.069   0.847  25.674 -2.0477 -0.9892 -0.6588
   15SAPS   H4S 1905   3.133   1.003  25.613  2.2228 -0.1052 -2.8613
   15SAPS   C25 1906   3.169   0.834  25.485 -0.3457 -0.1753 -0.3717
   15SAPS   H5R 1907   3.175   0.724  25.490 -3.5643 -0.5139 -1.9594
   15SAPS   C26 1908   3.261   0.885  25.388 -0.2914  1.0137 -1.1672
   15SAPS   H6R 1909   3.312   0.815  25.321 -1.2171 -1.3642  0.4935
   15SAPS   C27 1910   3.278   1.029  25.361 -0.0573 -0.8318 -0.0553
   15SAPS   H7R 1911   3.366   1.063  25.420 -0.5160  1.8466 -0.7789
   15SAPS   H7S 1912   3.196   1.090  25.404  0.3511  0.0665 -0.5204
   15SAPS   C28 1913   3.289   1.047  25.203  0.3307  0.3784 -0.1789
   15SAPS   H8R 1914   3.386   1.018  25.160 -0.3469 -0.9771 -0.8505
   15SAPS   C29 1915   3.189   1.078  25.121  0.1138 -0.4294  0.3216
   15SAPS   H9R 1916   3.202   1.097  25.013  2.3352 -0.3862  0.5487
   15SAPS  C210 1917   3.051   1.121  25.163  0.5106 -0.4024  0.5982
   15SAPS  H10R 1918   3.007   1.040  25.225 -0.1923 -0.9539 -0.5807
   15SAPS  H10S 1919   2.981   1.127  25.077  1.2838 -0.6479 -0.0592
   15SAPS  C211 1920   3.021   1.253  25.240  0.4285 -0.1096 -0.2460
   15SAPS  H11R 1921   2.956   1.247  25.329 -1.6587  2.3379 -1.4550
   15SAPS  C212 1922   3.064   1.380  25.205  0.3020  0.4397  0.7536
   15SAPS  H12R 1923   3.034   1.469  25.262 -2.6502 -0.1235  0.2485
   15SAPS  C213 1924   3.133   1.414  25.072  0.1265  0.1111  0.3409
   15SAPS  H13R 1925   3.162   1.318  25.023  2.9401  1.9119 -1.8614
   15SAPS  H13S 1926   3.231   1.464  25.087 -0.6307  1.9135 -0.4494
   15SAPS  C214 1927   3.047   1.485  24.970  0.2495 -0.0852 -0.0781
   15SAPS  H14R 1928   2.939   1.469  24.977  0.1216  0.5502 -0.5913
   15SAPS  C215 1929   3.082   1.575  24.886  0.2373 -0.8128  0.4548
   15SAPS  H15R 1930   3.008   1.633  24.828  3.6174  2.1698 -1.2348
   15SAPS  C216 1931   3.226   1.622  24.874 -0.5326  0.7488  0.7514
   15SAPS  H16R 1932   3.300   1.546  24.908  0.6804  0.8187 -1.5435
   15SAPS  H16S 1933   3.231   1.691  24.961  0.9635 -1.1088  2.2688
   15SAPS  C217 1934   3.285   1.713  24.758 -0.3578  0.2020 -0.0258
   15SAPS  H17R 1935   3.258   1.669  24.659  3.0819  0.6306 -1.2787
   15SAPS  H17S 1936   3.394   1.703  24.772 -0.1637  1.7233 -0.2272
   15SAPS  C218 1937   3.242   1.858  24.775 -0.7215  0.5393  0.0697
   15SAPS  H18R 1938   3.314   1.905  24.847 -0.0008 -0.3046 -0.0778
   15SAPS  H18S 1939   3.149   1.876  24.833  0.1387  0.3070  1.6089
   15SAPS  C219 1940   3.249   1.930  24.645  0.0769 -0.1619 -0.7289
   15SAPS  H19R 1941   3.334   1.898  24.581  1.3862 -1.4215  1.4943
   15SAPS  H19S 1942   3.283   2.028  24.685 -2.7216  0.3653  0.6450
   15SAPS  C220 1943   3.116   1.931  24.568  0.2639  0.1856 -0.3442
   15SAPS  H20R 1944   3.136   1.963  24.463  0.7987  3.4470  0.6272
   15SAPS  H20S 1945   3.049   2.015  24.597 -0.5721 -0.4193 -0.4894
   15SAPS  H20T 1946   3.069   1.830  24.568  1.2319 -0.2765  0.3590
   15SAPS   C33 1947   3.272   1.454  25.480  0.2809  0.4024 -0.8342
   15SAPS   H3X 1948   3.297   1.545  25.539 -1.6557  2.4235 -2.9274
   15SAPS   H3Y 1949   3.175   1.477  25.431  0.6191  0.3294 -1.5331
   15SAPS   C34 1950   3.390   1.417  25.387 -0.0253  0.5194  0.2626
   15SAPS   H4X 1951   3.379   1.319  25.335  0.6989  0.0834  0.9087
   15SAPS   H4Y 1952   3.489   1.397  25.435  0.9837 -3.9482 -3.0011
   15SAPS   C35 1953   3.421   1.516  25.276  0.3402 -0.2058 -0.1569
   15SAPS   H5X 1954   3.328   1.575  25.264  0.6077 -0.1292 -2.3763
   15SAPS   H5Y 1955   3.436   1.480  25.172 -0.7255  0.5572 -0.5873
   15SAPS   C36 1956   3.532   1.628  25.308  0.3446 -0.6277  0.7055
   15SAPS   H6X 1957   3.634   1.583  25.309  0.7969  0.2931 -0.6392
   15SAPS   H6Y 1958   3.504   1.658  25.411 -1.6023  1.7033 -0.4148
   15SAPS   C37 1959   3.507   1.754  25.224  0.5497 -0.3148 -0.3804
   15SAPS   H7X 1960   3.547   1.843  25.276 -0.9605  1.1821 -1.6802
   15SAPS   H7Y 1961   3.398   1.770  25.212  0.8189  2.0297 -0.0479
   15SAPS   C38 1962   3.569   1.751  25.083 -0.2562  0.1250 -0.7911
   15SAPS   H8X 1963   3.553   1.843  25.022 -0.5677  0.5502 -0.0844
   15SAPS   H8Y 1964   3.558   1.660  25.020  6.9970 -2.0880  0.1489
   15SAPS   C39 1965   3.729   1.741  25.088  0.6105  0.2118  0.1338
   15SAPS   H9X 1966   3.765   1.702  24.991 -0.3866  0.0314 -0.1760
   15SAPS   H9Y 1967   3.764   1.674  25.170 -1.2930  1.9315  2.5194
   15SAPS  C310 1968   3.797   1.878  25.109 -0.1306  0.4684  0.0510
   15SAPS  H10X 1969   3.766   1.915  25.209  1.4328  1.2191  0.2796
   15SAPS  H10Y 1970   3.760   1.951  25.033 -0.5637 -0.0726 -0.2638
   15SAPS  C311 1971   3.947   1.853  25.109  0.5501 -0.0734  0.0980
   15SAPS  H11X 1972   3.964   1.814  25.006  1.4380 -0.2842  0.3161
   15SAPS  H11Y 1973   3.982   1.780  25.185  0.7052  0.6669  0.7349
   15SAPS  C312 1974   4.025   1.983  25.142 -0.7082  0.7329 -0.0672
   15SAPS  H12X 1975   4.009   1.994  25.252  0.4590  1.9734  0.0139
   15SAPS  H12Y 1976   3.982   2.078  25.104 -1.9677 -0.5623 -2.0079
   15SAPS  C313 1977   4.175   1.973  25.116 -0.4399 -0.1026  0.8177
   15SAPS  H13X 1978   4.208   1.876  25.159  1.9545 -0.0602 -0.7289
   15SAPS  H13Y 1979   4.229   2.042  25.184  2.2325 -1.5931  0.3394
   15SAPS  C314 1980   4.201   1.994  24.967 -0.5003  0.3622  0.2411
   15SAPS  H14X 1981   4.166   2.098  24.952 -2.2661 -0.2583 -0.1845
   15SAPS  H14Y 1982   4.130   1.935  24.904 -0.3936  0.9061 -0.4029
   15SAPS  C315 1983   4.346   1.973  24.931 -0.1280 -0.0668 -0.1847
   15SAPS  H15X 1984   4.381   1.879  24.978  0.4404  0.0006 -0.4727
   15SAPS  H15Y 1985   4.409   2.053  24.976  1.0053 -1.3189  0.5084
   15SAPS  C316 1986   4.375   1.957  24.776  0.0114 -0.0816  0.2571
   15SAPS  H16X 1987   4.375   2.057  24.727 -0.5666  0.5667  1.5499
   15SAPS  H16Y 1988   4.293   1.909  24.719 -2.2566  3.0795  0.5887
   15SAPS  C317 1989   4.508   1.892  24.744 -0.3802  0.3358 -0.5137
   15SAPS  H17X 1990   4.523   1.800  24.805 -0.1538  0.0622 -0.9765
   15SAPS  H17Y 1991   4.588   1.966  24.765 -0.4570  0.0483  0.8886
   15SAPS  C318 1992   4.511   1.841  24.609 -0.8460  0.1360  0.4642
   15SAPS  H18X 1993   4.496   1.924  24.536  1.3001  1.3455  1.2982
   15SAPS  H18Y 1994   4.428   1.768  24.600 -1.9825  1.3408  0.8212
   15SAPS  H18Z 1995   4.611   1.795  24.594 -0.3170  0.2196  3.1999
   16SAPS     N 1996   2.404   1.312  26.625 -0.1763  0.3520  1.1342
   16SAPS   HN1 1997   2.389   1.332  26.726 -0.5107 -0.7996  1.3268
   16SAPS   HN2 1998   2.506   1.328  26.614  0.1621 -1.4326  1.3633
   16SAPS   HN3 1999   2.337   1.363  26.564 -2.4379 -1.4087  1.9952
   16SAPS   C12 2000   2.381   1.164  26.617  0.1711  0.3409 -0.5424
   16SAPS  H12A 2001   2.280   1.146  26.651  0.0006  0.5855 -0.9179
   16SAPS   C13 2002   2.394   1.102  26.477 -0.4856  0.0938  0.2085
   16SAPS  O13A 2003   2.462   1.161  26.386  0.5140 -0.7228  0.3518
   16SAPS  O13B 2004   2.350   0.986  26.460 -0.0989  0.5153  0.2277
   16SAPS   C11 2005   2.468   1.085  26.723  0.4246 -0.4225  0.2733
   16SAPS  H11A 2006   2.569   1.062  26.683  0.0314 -1.6983 -0.0381
   16SAPS  H11B 2007   2.425   0.982  26.726  2.0524 -1.1378  0.6614
   16SAPS     P 2008   2.394   1.102  26.975  0.0773  0.0744  0.0610
   16SAPS   O13 2009   2.467   0.992  27.041 -0.1429  0.0555 -0.1137
   16SAPS   O14 2010   2.363   1.217  27.061 -0.0048  0.3353  0.2224
   16SAPS   O12 2011   2.470   1.155  26.842 -0.4548 -0.4899 -0.3403
   16SAPS   O11 2012   2.257   1.040  26.926 -0.3065  0.2836 -0.3073
   16SAPS    C1 2013   2.126   1.080  26.962 -0.0108  0.0692 -0.2189
   16SAPS    HA 2014   2.113   1.073  27.072 -1.6719 -0.2795 -0.4075
   16SAPS    HB 2015   2.109   1.182  26.922  4.4562 -0.0431 -3.0836
   16SAPS    C2 2016   2.021   0.986  26.896  0.4186  0.6596  0.7206
   16SAPS    HS 2017   1.926   1.043  26.907  0.5202  0.9451  0.1389
   16SAPS   O21 2018   2.015   0.846  26.964  0.3257  0.2788 -0.2094
   16SAPS   C21 2019   1.934   0.848  27.072 -0.0607 -0.3919 -0.2208
   16SAPS   O22 2020   1.875   0.945  27.115  0.0881  0.2522  0.2764
   16SAPS   C22 2021   1.933   0.706  27.130 -1.1550  0.1147  0.3481
   16SAPS   H2R 2022   1.948   0.641  27.041 -2.4729 -0.1180  0.2770
   16SAPS   H2S 2023   2.026   0.695  27.190 -0.7858  1.2030  0.0235
   16SAPS    C3 2024   2.045   0.962  26.739  0.3572  0.1187  0.1266
   16SAPS    HX 2025   2.130   0.893  26.722  0.6281  0.0473  1.6620
   16SAPS    HY 2026   2.069   1.062  26.698 -2.2232  0.8003  0.0719
   16SAPS   O31 2027   1.924   0.907  26.679 -0.0271  0.1576  0.1042
   16SAPS   C31 2028   1.824   0.992  26.657  0.6363  1.3810  0.0159
   16SAPS   O32 2029   1.820   1.104  26.693  0.0298 -0.2119  0.6100
   16SAPS   C32 2030   1.726   0.921  26.561 -0.0695 -0.7629  0.7776
   16SAPS   H2X 2031   1.635   0.887  26.614 -1.4553  2.4719  0.7191
   16SAPS   H2Y 2032   1.777   0.835  26.512  0.8896  0.0392  0.3298
   16SAPS   C23 2033   1.802   0.680  27.211 -1.1472  0.5729  0.2949
   16SAPS   H3R 2034   1.795   0.757  27.291 -2.0596  1.2783 -0.4242
   16SAPS   H3S 2035   1.815   0.581  27.259  0.1720  1.5567  2.0431
   16SAPS   C24 2036   1.675   0.688  27.122 -0.7808  0.9151 -0.0178
   16SAPS   H4R 2037   1.697   0.769  27.049  4.0254 -1.0507 -1.1348
   16SAPS   H4S 2038   1.596   0.710  27.197  0.6933  1.0547  1.5585
   16SAPS   C25 2039   1.668   0.556  27.048  0.3491  0.5816 -0.4704
   16SAPS   H5R 2040   1.758   0.520  26.996  0.0868 -0.5383 -0.1783
   16SAPS   C26 2041   1.556   0.478  27.051  0.1296 -0.4681 -0.4432
   16SAPS   H6R 2042   1.549   0.392  26.983  0.5929 -1.5034  0.7849
   16SAPS   C27 2043   1.438   0.492  27.146  0.0568  0.3472 -0.0374
   16SAPS   H7R 2044   1.453   0.487  27.256  0.7012 -0.2842 -0.1453
   16SAPS   H7S 2045   1.371   0.403  27.156  0.3091 -0.0277 -1.4885
   16SAPS   C28 2046   1.351   0.606  27.109  0.3618  1.0242 -0.9036
   16SAPS   H8R 2047   1.349   0.679  27.191  2.3911 -0.1051  0.2311
   16SAPS   C29 2048   1.261   0.612  27.010  0.7220  0.0910  0.3633
   16SAPS   H9R 2049   1.190   0.692  26.981 -2.0168 -2.5056 -0.5789
   16SAPS  C210 2050   1.262   0.515  26.894  0.4419  0.4046  0.6495
   16SAPS  H10R 2051   1.156   0.499  26.868  1.1569 -0.8791 -1.7815
   16SAPS  H10S 2052   1.318   0.422  26.921 -1.9680 -0.9973  1.1162
   16SAPS  C211 2053   1.324   0.575  26.765  0.0322  0.2832 -0.1527
   16SAPS  H11R 2054   1.386   0.663  26.788 -0.8995  1.3623 -1.5782
   16SAPS  C212 2055   1.307   0.532  26.634 -0.0527  0.3141  0.2743
   16SAPS  H12R 2056   1.364   0.590  26.560 -1.2365  1.2903  0.1066
   16SAPS  C213 2057   1.218   0.417  26.586  0.5168  0.4055 -0.7395
   16SAPS  H13R 2058   1.158   0.370  26.667  2.3470  1.1773  1.1853
   16SAPS  H13S 2059   1.288   0.342  26.543  1.1208 -0.5493  1.7322
   16SAPS  C214 2060   1.116   0.466  26.488 -0.2926 -0.5420  0.5173
   16SAPS  H14R 2061   1.053   0.543  26.535  0.7102 -0.0273  1.0458
   16SAPS  C215 2062   1.102   0.434  26.357  0.0730 -0.2496 -0.4118
   16SAPS  H15R 2063   1.014   0.478  26.309 -1.5317  0.0077  2.4978
   16SAPS  C216 2064   1.192   0.351  26.271 -0.5517 -0.1609  0.3742
   16SAPS  H16R 2065   1.297   0.347  26.307 -1.0447 -3.1048  1.8524
   16SAPS  H16S 2066   1.195   0.405  26.174  0.0218  0.3677  0.6801
   16SAPS  C217 2067   1.150   0.205  26.250  0.3263  0.0088 -0.2971
   16SAPS  H17R 2068   1.225   0.157  26.183  1.9665  0.3719  1.2028
   16SAPS  H17S 2069   1.044   0.207  26.218 -0.1775  2.9417  1.2342
   16SAPS  C218 2070   1.176   0.117  26.378  0.1724  0.5006  0.0143
   16SAPS  H18R 2071   1.131   0.181  26.457  1.7517  2.2703 -0.4568
   16SAPS  H18S 2072   1.286   0.117  26.389  0.5132  1.2908 -2.8011
   16SAPS  C219 2073   1.128  -0.033  26.365 -0.0502  0.2635  0.3370
   16SAPS  H19R 2074   1.161  -0.075  26.268  0.1065 -2.7035  1.5689
   16SAPS  H19S 2075   1.017  -0.040  26.362 -0.1524  0.4692  2.1519
   16SAPS  C220 2076   1.178  -0.117  26.480 -0.3914 -0.5169  0.5313
   16SAPS  H20R 2077   1.290  -0.114  26.478 -0.3599 -1.1993  0.9927
   16SAPS  H20S 2078   1.131  -0.217  26.472 -0.7284 -0.3705  0.6943
   16SAPS  H20T 2079   1.141  -0.073  26.575 -0.3236 -0.2740  0.4450
   16SAPS   C33 2080   1.667   1.021  26.460 -0.1177  0.3910  0.0673
   16SAPS   H3X 2081   1.751   1.066  26.403 -0.4987 -0.9929 -1.6768
   16SAPS   H3Y 2082   1.615   1.104  26.512 -0.6729 -0.5071  0.9782
   16SAPS   C34 2083   1.562   0.959  26.368  0.1945 -0.4784  0.2818
   16SAPS   H4X 2084   1.601   0.856  26.350  2.1158  0.0214  1.3304
   16SAPS   H4Y 2085   1.563   1.014  26.271  2.9807 -0.9814 -0.0629
   16SAPS   C35 2086   1.424   0.949  26.430 -0.0136 -0.2334  0.2366
   16SAPS   H5X 2087   1.381   1.049  26.452  0.2251 -0.2399  0.7588
   16SAPS   H5Y 2088   1.442   0.889  26.522 -2.8276 -0.4837  0.7288
   16SAPS   C36 2089   1.314   0.865  26.350 -1.1147 -0.1077  0.0566
   16SAPS   H6X 2090   1.234   0.815  26.409 -1.4884 -1.3015 -1.3953
   16SAPS   H6Y 2091   1.367   0.779  26.304  2.0286  2.6629 -1.9133
   16SAPS   C37 2092   1.249   0.954  26.239 -0.5148  0.1136  0.0248
   16SAPS   H7X 2093   1.308   0.982  26.150 -0.6272 -1.4854 -0.5884
   16SAPS   H7Y 2094   1.215   1.046  26.290 -0.2625  0.5787 -0.6430
   16SAPS   C38 2095   1.114   0.901  26.184 -0.6332 -0.5266 -0.8795
   16SAPS   H8X 2096   1.060   0.970  26.117 -1.4833 -2.4719 -2.3016
   16SAPS   H8Y 2097   1.052   0.898  26.276  1.7597  2.4678  1.0510
   16SAPS   C39 2098   1.112   0.766  26.105  0.7491  0.0137 -0.0060
   16SAPS   H9X 2099   1.008   0.737  26.079  1.1007  1.0495 -2.9682
   16SAPS   H9Y 2100   1.150   0.687  26.173 -1.5375 -0.2502  1.0279
   16SAPS  C310 2101   1.207   0.764  25.976 -0.0267 -0.4453 -0.1421
   16SAPS  H10X 2102   1.307   0.773  26.022 -0.7455 -1.0136  1.6270
   16SAPS  H10Y 2103   1.189   0.854  25.913  2.0178  0.8693  1.0420
   16SAPS  C311 2104   1.207   0.624  25.900  0.4517 -0.0029 -0.9626
   16SAPS  H11X 2105   1.248   0.548  25.970 -0.5147 -0.7279 -1.1662
   16SAPS  H11Y 2106   1.265   0.625  25.806 -0.8753  2.8846 -1.8627
   16SAPS  C312 2107   1.066   0.581  25.862 -0.4813  0.1674 -0.1829
   16SAPS  H12X 2108   1.002   0.672  25.850  0.7182  0.9063 -1.3061
   16SAPS  H12Y 2109   1.023   0.533  25.952 -1.1700  0.3656 -0.4010
   16SAPS  C313 2110   1.061   0.490  25.736 -0.5813 -0.2012 -1.0245
   16SAPS  H13X 2111   1.110   0.391  25.740  1.2712  0.6263 -1.8072
   16SAPS  H13Y 2112   1.123   0.547  25.663 -0.2355  2.5297  1.2430
   16SAPS  C314 2113   0.912   0.477  25.698 -0.5276 -0.5201 -0.2094
   16SAPS  H14X 2114   0.912   0.403  25.615  0.7727 -1.3516  0.4936
   16SAPS  H14Y 2115   0.868   0.571  25.658  0.6777  0.3666  0.4966
   16SAPS  C315 2116   0.811   0.424  25.804 -0.5871 -0.2033 -0.1590
   16SAPS  H15X 2117   0.713   0.393  25.763 -0.9792 -3.2765  2.6029
   16SAPS  H15Y 2118   0.797   0.505  25.878 -1.6795 -0.7203  0.2181
   16SAPS  C316 2119   0.852   0.307  25.893 -0.0597  0.4936  0.1316
   16SAPS  H16X 2120   0.961   0.300  25.913  0.8358  0.4661 -3.8375
   16SAPS  H16Y 2121   0.832   0.221  25.825 -0.7120  0.8689 -0.1626
   16SAPS  C317 2122   0.774   0.282  26.031 -0.0389 -0.0547  0.3549
   16SAPS  H17X 2123   0.801   0.179  26.060  3.0431  0.6413  0.2394
   16SAPS  H17Y 2124   0.666   0.290  26.003  0.2821 -0.8999 -1.2652
   16SAPS  C318 2125   0.815   0.384  26.131 -0.6098 -0.5513  0.1665
   16SAPS  H18X 2126   0.782   0.363  26.235 -2.9840 -1.1249 -0.6542
   16SAPS  H18Y 2127   0.786   0.488  26.102 -0.3994 -0.5511 -0.0510
   16SAPS  H18Z 2128   0.925   0.400  26.126 -0.6834 -0.0157  0.1360
   17SAPC     N 2129   1.060   2.199  38.687  0.8928  0.5567  0.0526
   17SAPC   C12 2130   0.965   2.096  38.741 -0.5672 -0.3544  0.5572
   17SAPC  H12A 2131   0.935   2.030  38.661 -2.5901 -0.4315  1.3070
   17SAPC  H12B 2132   0.878   2.145  38.783 -0.8218 -1.6839  1.6741
   17SAPC   C13 2133   1.186   2.137  38.638  0.4567  0.5753 -0.3417
   17SAPC  H13A 2134   1.254   2.219  38.620  0.8786 -0.0156 -1.5189
   17SAPC  H13B 2135   1.234   2.068  38.706  1.8735  0.6303 -1.2458
   17SAPC  H13C 2136   1.169   2.085  38.545 -1.2952 -1.3295  0.9605
   17SAPC   C14 2137   0.990   2.279  38.580  0.7400  0.1288 -1.0991
   17SAPC  H14A 2138   0.894   2.318  38.610 -0.0654 -2.8010  0.4989
   17SAPC  H14B 2139   1.057   2.353  38.539 -2.0805  2.5633 -1.6262
   17SAPC  H14C 2140   0.969   2.216  38.494  0.3961  0.9287 -1.6123
   17SAPC   C15 2141   1.098   2.296  38.794  0.4351 -0.4885 -0.0492
   17SAPC  H15A 2142   1.186   2.356  38.772  0.1641  0.0520  0.3167
   17SAPC  H15B 2143   1.018   2.362  38.821  0.2105 -0.3368 -1.0587
   17SAPC  H15C 2144   1.128   2.247  38.885 -2.3411 -0.9272  0.7206
   17SAPC   C11 2145   1.017   2.022  38.859  0.2987  0.5996  0.4861
   17SAPC  H11A 2146   1.123   1.992  38.841  0.6388  2.8456 -1.8412
   17SAPC  H11B 2147   0.951   1.935  38.874 -0.2034  1.1683  1.6872
   17SAPC     P 2148   1.030   2.046  39.118 -0.8236  0.2633  0.6039
   17SAPC   O13 2149   1.143   1.949  39.108 -0.8280  0.0692  0.0192
   17SAPC   O14 2150   1.037   2.155  39.217 -0.1559 -0.0980  0.2137
   17SAPC   O12 2151   1.009   2.106  38.975  0.2636  0.4802 -0.2435
   17SAPC   O11 2152   0.898   1.958  39.140 -0.5287  0.4388  0.2990
   17SAPC    C1 2153   0.765   2.000  39.108  0.5075  0.3585 -0.3227
   17SAPC    HA 2154   0.730   2.103  39.129 -0.7715 -0.2269  0.5442
   17SAPC    HB 2155   0.741   1.979  39.001  0.6683  1.0983 -0.5051
   17SAPC    C2 2156   0.675   1.909  39.198  0.0446  0.2497 -0.6196
   17SAPC    HS 2157   0.572   1.949  39.212  0.9712  2.1618  1.4185
   17SAPC   O21 2158   0.717   1.888  39.336  0.1115  0.4179 -0.7683
   17SAPC   C21 2159   0.721   2.001  39.405 -0.3795  0.3930  0.0492
   17SAPC   O22 2160   0.680   2.108  39.371 -0.2655  0.4653  0.2584
   17SAPC   C22 2161   0.759   1.970  39.550 -0.6949  0.0335  0.5984
   17SAPC   H2R 2162   0.851   1.909  39.536  1.2250  3.3085 -2.7829
   17SAPC   H2S 2163   0.785   2.070  39.590 -0.0207  0.3958 -0.6720
   17SAPC    C3 2164   0.659   1.770  39.127  0.1463 -0.3682 -0.3077
   17SAPC    HX 2165   0.748   1.705  39.143 -0.2036 -1.9885 -3.8799
   17SAPC    HY 2166   0.646   1.779  39.017 -0.5497 -0.6908 -0.2639
   17SAPC   O31 2167   0.545   1.705  39.190 -0.4067 -0.1472  0.3667
   17SAPC   C31 2168   0.429   1.723  39.140  0.1358 -0.6539 -0.2532
   17SAPC   O32 2169   0.414   1.779  39.030  0.3447  0.2850 -0.2059
   17SAPC   C32 2170   0.319   1.654  39.222 -0.7966 -0.0222  0.8165
   17SAPC   H2X 2171   0.219   1.694  39.196 -1.1162 -0.5595  1.1913
   17SAPC   H2Y 2172   0.339   1.671  39.330  0.0571 -1.6040  0.9386
   17SAPC   C23 2173   0.651   1.910  39.628 -0.0770  0.1978  0.7650
   17SAPC   H3R 2174   0.652   1.799  39.634  0.7553  0.2633  3.1925
   17SAPC   H3S 2175   0.549   1.938  39.594 -0.5283  0.7442  2.4209
   17SAPC   C24 2176   0.652   1.944  39.779 -0.4086 -0.1423  0.3760
   17SAPC   H4R 2177   0.656   2.055  39.790 -2.3604 -0.2010  2.2560
   17SAPC   H4S 2178   0.754   1.922  39.818 -0.0484 -1.2791 -1.1283
   17SAPC   C25 2179   0.544   1.901  39.872 -0.0726 -1.0221  0.4127
   17SAPC   H5R 2180   0.457   1.969  39.872  1.2967  0.8413 -1.1407
   17SAPC   C26 2181   0.549   1.800  39.967  0.5068  0.1012  0.9505
   17SAPC   H6R 2182   0.463   1.789  40.034  1.9764  1.4618  3.1906
   17SAPC   C27 2183   0.649   1.692  40.000  0.3528 -1.3447 -0.7296
   17SAPC   H7R 2184   0.712   1.728  40.084  0.9889 -1.2161 -1.2480
   17SAPC   H7S 2185   0.721   1.693  39.915  1.9158  4.1239  0.2492
   17SAPC   C28 2186   0.600   1.558  40.023  0.1895  0.8645  0.0594
   17SAPC   H8R 2187   0.599   1.487  39.939  1.0300 -0.3078  1.0082
   17SAPC   C29 2188   0.542   1.499  40.127  0.5158  0.5742  0.5107
   17SAPC   H9R 2189   0.522   1.392  40.111 -1.1158  1.0995 -1.4089
   17SAPC  C210 2190   0.510   1.557  40.271 -0.0956 -0.0798  0.1759
   17SAPC  H10R 2191   0.459   1.478  40.331 -1.1728  0.7765  0.4207
   17SAPC  H10S 2192   0.443   1.645  40.258 -0.6997 -0.5070  0.3749
   17SAPC  C211 2193   0.636   1.586  40.343 -0.4842  0.3906  0.6287
   17SAPC  H11R 2194   0.714   1.637  40.284  0.3744 -1.6365 -0.0959
   17SAPC  C212 2195   0.674   1.570  40.470  0.0830 -0.1949  0.0853
   17SAPC  H12R 2196   0.781   1.592  40.484  0.7976 -0.6522 -3.5482
   17SAPC  C213 2197   0.587   1.521  40.578  0.0916  0.1264  0.5080
   17SAPC  H13R 2198   0.482   1.521  40.540  1.0522  3.3324 -2.7034
   17SAPC  H13S 2199   0.586   1.586  40.667 -0.0118  0.4491  0.2701
   17SAPC  C214 2200   0.620   1.380  40.624 -0.5174 -0.9157  0.0270
   17SAPC  H14R 2201   0.662   1.315  40.545  0.4925 -0.0679 -0.1608
   17SAPC  C215 2202   0.609   1.335  40.749  0.2782  1.1593 -1.0875
   17SAPC  H15R 2203   0.644   1.231  40.756  2.6772  1.8814 -1.2355
   17SAPC  C216 2204   0.565   1.392  40.879  0.5590  0.9899  0.9352
   17SAPC  H16R 2205   0.474   1.335  40.907  2.6229 -2.0072  2.1791
   17SAPC  H16S 2206   0.542   1.499  40.861  0.7262  0.7768 -0.6800
   17SAPC  C217 2207   0.665   1.371  40.997 -0.4673 -0.8019 -0.0022
   17SAPC  H17R 2208   0.764   1.418  40.979 -0.7120  0.6463  2.0516
   17SAPC  H17S 2209   0.700   1.266  40.992  1.7342 -0.0622 -2.0813
   17SAPC  C218 2210   0.616   1.430  41.129 -0.4252 -0.8494  0.0872
   17SAPC  H18R 2211   0.526   1.380  41.170 -0.7483 -1.3226 -1.1622
   17SAPC  H18S 2212   0.599   1.539  41.121 -2.1440 -1.1369 -0.5256
   17SAPC  C219 2213   0.724   1.395  41.238  1.1324 -0.2616 -0.6632
   17SAPC  H19R 2214   0.817   1.454  41.225  2.5745 -2.1414  0.5632
   17SAPC  H19S 2215   0.745   1.288  41.223  0.7988 -0.4965  0.4154
   17SAPC  C220 2216   0.675   1.428  41.378  0.3014  0.1722 -0.1791
   17SAPC  H20R 2217   0.614   1.338  41.400  0.4352  0.2695  0.6247
   17SAPC  H20S 2218   0.610   1.518  41.389 -0.5578 -0.2292 -1.7290
   17SAPC  H20T 2219   0.751   1.437  41.459  1.4161 -1.1076 -1.0334
   17SAPC   C33 2220   0.308   1.501  39.193  0.2599 -0.1313  0.0922
   17SAPC   H3X 2221   0.404   1.451  39.214  1.2099  1.7529  0.5018
   17SAPC   H3Y 2222   0.269   1.491  39.090 -2.4010  2.7510  0.6550
   17SAPC   C34 2223   0.199   1.442  39.279 -0.2989  0.2198 -0.2222
   17SAPC   H4X 2224   0.209   1.476  39.384  2.0525  2.9296 -1.1840
   17SAPC   H4Y 2225   0.186   1.331  39.274  0.2575  0.0834  0.8680
   17SAPC   C35 2226   0.054   1.483  39.231 -0.7563 -0.5449 -0.2368
   17SAPC   H5X 2227   0.031   1.440  39.131 -1.1991 -4.0820  1.2333
   17SAPC   H5Y 2228   0.039   1.593  39.228 -0.2744 -0.4064  1.4059
   17SAPC   C36 2229  -0.051   1.421  39.324 -1.0474  0.0344 -0.0429
   17SAPC   H6X 2230  -0.006   1.428  39.426  0.5735 -2.8761 -0.4712
   17SAPC   H6Y 2231  -0.061   1.311  39.315  1.9428 -0.7566  3.8031
   17SAPC   C37 2232  -0.188   1.487  39.316  0.1251 -0.2109 -0.2531
   17SAPC   H7X 2233  -0.230   1.450  39.220 -2.5559  1.6316  0.1087
   17SAPC   H7Y 2234  -0.193   1.598  39.315 -0.2266 -0.2193 -1.4909
   17SAPC   C38 2235  -0.297   1.430  39.410 -0.3053 -0.7600  0.1805
   17SAPC   H8X 2236  -0.263   1.397  39.511  1.3553 -0.4947 -0.2522
   17SAPC   H8Y 2237  -0.329   1.338  39.356  0.5310 -1.3173  0.6168
   17SAPC   C39 2238  -0.419   1.520  39.432  0.4526  0.0521 -0.1373
   17SAPC   H9X 2239  -0.469   1.550  39.337  3.3308  1.0965 -1.4368
   17SAPC   H9Y 2240  -0.389   1.618  39.474  3.0204 -0.4611 -0.6455
   17SAPC  C310 2241  -0.520   1.451  39.520 -0.3073  1.0852  0.3269
   17SAPC  H10X 2242  -0.477   1.412  39.615 -0.5435  0.0427  0.0230
   17SAPC  H10Y 2243  -0.552   1.354  39.475  2.3365  1.7293 -3.4218
   17SAPC  C311 2244  -0.637   1.539  39.542 -0.3512 -0.0173 -0.4152
   17SAPC  H11X 2245  -0.602   1.642  39.521 -0.1268 -0.5114 -2.7356
   17SAPC  H11Y 2246  -0.661   1.536  39.651 -0.8023  0.5296 -0.4931
   17SAPC  C312 2247  -0.770   1.518  39.463  0.4538 -0.1319 -0.2932
   17SAPC  H12X 2248  -0.784   1.408  39.473 -1.6586  0.0967 -0.3006
   17SAPC  H12Y 2249  -0.765   1.541  39.354  1.7391  0.1903 -0.1885
   17SAPC  C313 2250  -0.874   1.600  39.535 -0.2671 -0.2665 -0.0317
   17SAPC  H13X 2251  -0.842   1.705  39.551 -1.0946 -0.0493  0.2772
   17SAPC  H13Y 2252  -0.881   1.566  39.640  0.8324 -1.1392 -0.2234
   17SAPC  C314 2253  -1.014   1.601  39.464 -0.8489 -0.2561  0.3142
   17SAPC  H14X 2254  -0.990   1.590  39.356 -2.7269  0.4877 -0.2257
   17SAPC  H14Y 2255  -1.045   1.706  39.482  2.5493  1.0569 -0.6013
   17SAPC  C315 2256  -1.103   1.490  39.506  0.0016  0.6152  0.4795
   17SAPC  H15X 2257  -1.134   1.486  39.612 -0.4440  0.4088  0.3478
   17SAPC  H15Y 2258  -1.051   1.393  39.488 -1.6252 -0.0831 -0.8987
   17SAPC  C316 2259  -1.225   1.501  39.418 -0.2300  0.0436  0.3557
   17SAPC  H16X 2260  -1.201   1.469  39.314 -0.7707 -1.3945  0.6460
   17SAPC  H16Y 2261  -1.256   1.607  39.410  2.1265  0.6691 -1.6409
   17SAPC  C317 2262  -1.346   1.424  39.463  0.3839  0.1830 -0.0340
   17SAPC  H17X 2263  -1.361   1.463  39.566  2.2914 -1.0581  0.7816
   17SAPC  H17Y 2264  -1.329   1.314  39.468 -0.3994 -0.0004 -1.0986
   17SAPC  C318 2265  -1.470   1.449  39.375 -0.1783 -0.3016  0.2107
   17SAPC  H18X 2266  -1.561   1.395  39.407 -0.4899 -0.1417 -0.3801
   17SAPC  H18Y 2267  -1.502   1.555  39.384 -1.6423 -0.8973  2.9556
   17SAPC  H18Z 2268  -1.447   1.422  39.270 -0.0329  1.9412 -0.4054
   18SAPC     N 2269   1.708   1.636  43.310  0.2203  0.3577  0.5280
   18SAPC   C12 2270   1.606   1.581  43.211 -0.1515 -0.4783 -0.7748
   18SAPC  H12A 2271   1.515   1.638  43.211 -0.3197 -0.7442 -1.4353
   18SAPC  H12B 2272   1.574   1.481  43.239  0.4864 -0.5613 -0.3076
   18SAPC   C13 2273   1.765   1.772  43.272 -0.4655  0.1182 -1.0371
   18SAPC  H13A 2274   1.849   1.797  43.335 -0.7807 -0.6095 -0.3208
   18SAPC  H13B 2275   1.792   1.770  43.167  0.1586 -0.7413 -0.8690
   18SAPC  H13C 2276   1.707   1.858  43.303 -0.2922 -0.4243  0.9330
   18SAPC   C14 2277   1.661   1.646  43.454 -0.8785 -0.2363 -0.0883
   18SAPC  H14A 2278   1.645   1.544  43.486  2.9475 -1.0937 -0.4537
   18SAPC  H14B 2279   1.739   1.687  43.516  0.1468  0.0643 -1.5396
   18SAPC  H14C 2280   1.575   1.712  43.459 -0.7860 -0.0222 -1.1719
   18SAPC   C15 2281   1.827   1.539  43.304 -0.4371  0.1600 -0.0447
   18SAPC  H15A 2282   1.786   1.440  43.317 -2.0670  1.1072  3.3550
   18SAPC  H15B 2283   1.880   1.555  43.211 -0.0832  1.2563  0.3222
   18SAPC  H15C 2284   1.888   1.556  43.391 -1.9400  1.3967  0.8353
   18SAPC   C11 2285   1.649   1.559  43.061 -0.0506 -0.0089  0.5667
   18SAPC  H11A 2286   1.567   1.512  43.003 -1.8555  0.5265  2.5582
   18SAPC  H11B 2287   1.735   1.488  43.062 -0.8575 -1.0511 -0.5419
   18SAPC     P 2288   1.599   1.787  42.931  0.3191 -0.2206  0.3046
   18SAPC   O13 2289   1.483   1.814  43.016 -0.9972 -0.4674 -0.4185
   18SAPC   O14 2290   1.679   1.907  42.896  0.4329  0.3031 -0.2219
   18SAPC   O12 2291   1.694   1.684  43.006  0.3252  0.5764 -0.6449
   18SAPC   O11 2292   1.555   1.717  42.802 -0.3754 -0.4721  0.1805
   18SAPC    C1 2293   1.647   1.696  42.688  0.0707 -0.1758 -0.4866
   18SAPC    HA 2294   1.659   1.782  42.619  1.6032  1.5339  1.7681
   18SAPC    HB 2295   1.748   1.670  42.726 -0.8649 -0.6490  1.8427
   18SAPC    C2 2296   1.606   1.576  42.604 -0.8191 -0.4268 -0.2189
   18SAPC    HS 2297   1.678   1.566  42.520 -2.2774  0.3574 -1.6246
   18SAPC   O21 2298   1.474   1.609  42.553 -0.3100 -0.0403  0.4460
   18SAPC   C21 2299   1.475   1.653  42.430 -0.3504  1.2259  0.2163
   18SAPC   O22 2300   1.573   1.675  42.363 -0.0723 -0.2387 -0.3505
   18SAPC   C22 2301   1.333   1.663  42.369  0.5583  0.4729  0.9269
   18SAPC   H2R 2302   1.251   1.686  42.441  0.3637 -1.9617  1.5722
   18SAPC   H2S 2303   1.343   1.756  42.310  2.4468  0.4391  1.1340
   18SAPC    C3 2304   1.599   1.448  42.692 -0.6247 -0.1563  0.1388
   18SAPC    HX 2305   1.528   1.463  42.775 -1.5116 -3.6060  0.1564
   18SAPC    HY 2306   1.707   1.432  42.714 -0.2689  1.2683 -0.4288
   18SAPC   O31 2307   1.560   1.342  42.601 -0.1535 -0.0250  0.9215
   18SAPC   C31 2308   1.558   1.218  42.641 -0.0504 -0.3575  0.0133
   18SAPC   O32 2309   1.607   1.178  42.740 -0.6332  0.1842  0.2019
   18SAPC   C32 2310   1.450   1.145  42.557  0.1543 -0.3066 -0.2378
   18SAPC   H2X 2311   1.357   1.205  42.551  1.3233  1.5025 -1.7024
   18SAPC   H2Y 2312   1.428   1.047  42.605  2.8287 -0.0974  1.6338
   18SAPC   C23 2313   1.294   1.548  42.278  0.5942  0.2378  0.3629
   18SAPC   H3R 2314   1.195   1.582  42.241  0.5900 -0.3117 -0.1441
   18SAPC   H3S 2315   1.287   1.456  42.339  0.5004 -1.0106 -1.4519
   18SAPC   C24 2316   1.381   1.535  42.146  1.0138  0.4172 -0.5142
   18SAPC   H4R 2317   1.347   1.443  42.092  2.4367 -0.8799  0.7160
   18SAPC   H4S 2318   1.483   1.502  42.174  0.5119 -3.5195 -2.5014
   18SAPC   C25 2319   1.377   1.650  42.058  0.0182 -0.2849 -0.7213
   18SAPC   H5R 2320   1.444   1.727  42.101  0.6443 -0.4977 -1.2918
   18SAPC   C26 2321   1.305   1.663  41.947 -0.2039 -0.2261  0.4558
   18SAPC   H6R 2322   1.327   1.759  41.898 -1.3930 -1.2800 -2.3629
   18SAPC   C27 2323   1.214   1.556  41.877  0.2580 -1.1337  0.4210
   18SAPC   H7R 2324   1.108   1.571  41.904  0.3461  1.8599 -0.4801
   18SAPC   H7S 2325   1.233   1.450  41.903 -0.2033 -1.1241  0.7948
   18SAPC   C28 2326   1.223   1.567  41.722 -0.2602 -0.0707 -0.5433
   18SAPC   H8R 2327   1.305   1.518  41.668  3.3871  3.9849  0.7726
   18SAPC   C29 2328   1.150   1.644  41.642  0.1903  1.0589 -0.9364
   18SAPC   H9R 2329   1.183   1.656  41.538  0.6977  0.8241 -0.8050
   18SAPC  C210 2330   1.036   1.732  41.685 -0.7727 -0.1732 -1.3221
   18SAPC  H10R 2331   1.041   1.828  41.629  0.9789 -0.9053 -2.5333
   18SAPC  H10S 2332   1.046   1.752  41.793  0.0209  0.2568 -1.4740
   18SAPC  C211 2333   0.902   1.666  41.675 -0.2129  0.1963 -0.2568
   18SAPC  H11R 2334   0.878   1.591  41.753 -0.3268 -0.9854 -1.4009
   18SAPC  C212 2335   0.815   1.686  41.580  0.3061  0.0676  0.3782
   18SAPC  H12R 2336   0.719   1.632  41.589  1.2829 -1.5842  1.2740
   18SAPC  C213 2337   0.826   1.796  41.471  0.4386  0.6862 -0.1141
   18SAPC  H13R 2338   0.931   1.815  41.441  0.9293 -0.8864  0.5163
   18SAPC  H13S 2339   0.798   1.893  41.519  0.5613  0.7140 -0.0999
   18SAPC  C214 2340   0.738   1.774  41.350 -0.1511  0.4741  0.6932
   18SAPC  H14R 2341   0.639   1.741  41.384 -0.6351  0.8808 -0.3104
   18SAPC  C215 2342   0.770   1.777  41.221  0.2872  0.0063  0.0732
   18SAPC  H15R 2343   0.689   1.741  41.156 -1.4855  2.8693  0.4974
   18SAPC  C216 2344   0.896   1.825  41.150 -0.6311  0.7475  0.2173
   18SAPC  H16R 2345   0.985   1.828  41.217  0.3283 -1.6409 -0.8282
   18SAPC  H16S 2346   0.881   1.928  41.113  0.1004  0.6847 -0.2846
   18SAPC  C217 2347   0.946   1.742  41.029  0.1663 -0.4434  0.8717
   18SAPC  H17R 2348   0.978   1.645  41.071 -0.0184 -1.5817 -1.4562
   18SAPC  H17S 2349   1.037   1.793  40.990 -0.4393 -0.4303 -0.5998
   18SAPC  C218 2350   0.847   1.734  40.911  0.4423 -0.3730  0.2292
   18SAPC  H18R 2351   0.806   1.836  40.900  0.0843 -0.5419  0.0062
   18SAPC  H18S 2352   0.765   1.663  40.933 -2.4117  2.7136  0.3121
   18SAPC  C219 2353   0.904   1.690  40.771  0.4309  0.2559 -1.0255
   18SAPC  H19R 2354   0.988   1.758  40.746  0.4673  0.0149 -1.5733
   18SAPC  H19S 2355   0.824   1.702  40.694 -1.2229  0.2493  0.6352
   18SAPC  C220 2356   0.959   1.551  40.765 -0.4617  0.0540  1.0882
   18SAPC  H20R 2357   0.999   1.527  40.663 -1.5125 -5.0961  1.6258
   18SAPC  H20S 2358   0.880   1.473  40.773 -0.8420  0.4514  1.2427
   18SAPC  H20T 2359   1.038   1.541  40.843 -0.6420  2.2933  1.6164
   18SAPC   C33 2360   1.505   1.122  42.415 -0.1160  0.7190  0.8863
   18SAPC   H3X 2361   1.431   1.058  42.362 -0.1195 -0.3380  2.1087
   18SAPC   H3Y 2362   1.599   1.062  42.413 -0.7137 -0.2574 -1.2990
   18SAPC   C34 2363   1.537   1.247  42.338  0.1727  0.1151 -0.1844
   18SAPC   H4X 2364   1.608   1.316  42.389  1.0106 -0.0535 -1.0820
   18SAPC   H4Y 2365   1.443   1.306  42.326 -0.5425 -0.8816  0.3515
   18SAPC   C35 2366   1.601   1.229  42.198  0.4429 -0.3500 -0.2440
   18SAPC   H5X 2367   1.693   1.168  42.210  0.5994  0.1280  1.1623
   18SAPC   H5Y 2368   1.642   1.330  42.176 -0.9157  0.0266 -1.1603
   18SAPC   C36 2369   1.500   1.199  42.088 -0.0003 -0.4210  0.3235
   18SAPC   H6X 2370   1.408   1.254  42.117 -0.3224 -0.4104 -0.6820
   18SAPC   H6Y 2371   1.481   1.090  42.096 -1.8299 -0.1902 -0.4823
   18SAPC   C37 2372   1.551   1.239  41.942  0.2844 -0.0572  0.2824
   18SAPC   H7X 2373   1.640   1.185  41.904 -0.1749  1.0158 -2.5105
   18SAPC   H7Y 2374   1.559   1.350  41.938 -2.8654  0.2232 -0.9503
   18SAPC   C38 2375   1.438   1.206  41.841  0.4482  0.4638  0.4761
   18SAPC   H8X 2376   1.343   1.245  41.884  0.4938  0.4869  0.5567
   18SAPC   H8Y 2377   1.437   1.095  41.844  0.7306  0.4457 -0.0126
   18SAPC   C39 2378   1.459   1.248  41.690  0.4617 -0.0639  0.1596
   18SAPC   H9X 2379   1.544   1.193  41.644  1.7697  1.5211  0.5835
   18SAPC   H9Y 2380   1.498   1.351  41.680 -0.5459  0.4756  1.5298
   18SAPC  C310 2381   1.332   1.219  41.604  0.3597  0.8476 -0.5033
   18SAPC  H10X 2382   1.250   1.288  41.632 -1.7903 -1.1983 -1.4947
   18SAPC  H10Y 2383   1.309   1.118  41.641 -0.6115  1.9006  1.9506
   18SAPC  C311 2384   1.365   1.224  41.457  0.2747 -0.2706  0.7008
   18SAPC  H11X 2385   1.449   1.152  41.440  1.3737  0.9291  0.9029
   18SAPC  H11Y 2386   1.421   1.317  41.432  0.3240 -1.0761 -2.7059
   18SAPC  C312 2387   1.259   1.200  41.352  0.2093 -0.6642 -0.1424
   18SAPC  H12X 2388   1.172   1.268  41.365  0.4166 -0.3353 -0.4522
   18SAPC  H12Y 2389   1.221   1.097  41.368 -0.9742 -0.6718 -2.5357
   18SAPC  C313 2390   1.323   1.197  41.210  0.2834 -0.0488 -1.5710
   18SAPC  H13X 2391   1.429   1.164  41.219  0.6061  1.5232  4.7091
   18SAPC  H13Y 2392   1.323   1.304  41.182  0.7714  0.4344  0.1493
   18SAPC  C314 2393   1.238   1.117  41.102  0.2826  0.4765  0.3695
   18SAPC  H14X 2394   1.227   1.011  41.131  0.7096  0.5590  0.8363
   18SAPC  H14Y 2395   1.300   1.129  41.010  1.6976 -3.0450  0.7107
   18SAPC  C315 2396   1.095   1.171  41.090  0.3159  0.9282 -0.4895
   18SAPC  H15X 2397   1.085   1.282  41.094 -2.8712  0.8556 -2.8011
   18SAPC  H15Y 2398   1.041   1.139  41.182 -0.6905  1.4628 -0.8827
   18SAPC  C316 2399   1.010   1.115  40.976  0.0893  0.1766  0.2151
   18SAPC  H16X 2400   0.904   1.146  40.988 -0.3239 -0.6144 -1.1317
   18SAPC  H16Y 2401   1.012   1.004  40.968 -0.9732  0.2765 -3.1516
   18SAPC  C317 2402   1.068   1.176  40.850 -0.0188  0.3767  0.2189
   18SAPC  H17X 2403   1.179   1.182  40.849  0.0478 -0.4822  1.3415
   18SAPC  H17Y 2404   1.046   1.285  40.844  0.7399  0.5049 -0.4208
   18SAPC  C318 2405   1.009   1.129  40.716 -0.1826 -0.0469  0.7845
   18SAPC  H18X 2406   1.035   1.201  40.636  0.3872  0.4065  1.3620
   18SAPC  H18Y 2407   0.899   1.121  40.713 -0.3120  1.3289  1.2435
   18SAPC  H18Z 2408   1.050   1.027  40.699  0.6023  0.1637  1.3202
   19SAPC     N 2409   1.130   2.402  42.482 -0.6338 -0.4140 -0.0673
   19SAPC   C12 2410   1.001   2.480  42.446 -0.8329 -0.1198 -0.5565
   19SAPC  H12A 2411   0.924   2.458  42.518 -2.1924  0.2860 -1.8365
   19SAPC  H12B 2412   0.961   2.438  42.355  1.3351 -0.6199 -1.3294
   19SAPC   C13 2413   1.122   2.258  42.514  0.0570 -0.2732  0.2447
   19SAPC  H13A 2414   1.215   2.206  42.497 -0.2491 -1.1876  1.2447
   19SAPC  H13B 2415   1.086   2.226  42.611 -2.2454 -4.2468 -1.6805
   19SAPC  H13C 2416   1.051   2.207  42.451  1.1497 -0.0291 -1.2300
   19SAPC   C14 2417   1.227   2.416  42.369  0.4697  0.2771 -0.0890
   19SAPC  H14A 2418   1.196   2.356  42.285 -2.1440  1.5206 -0.1228
   19SAPC  H14B 2419   1.221   2.515  42.326 -2.7730  0.4301  0.4259
   19SAPC  H14C 2420   1.329   2.388  42.390  0.5411  0.5947 -0.0011
   19SAPC   C15 2421   1.202   2.465  42.598  0.4698  0.2360 -0.0287
   19SAPC  H15A 2422   1.276   2.397  42.638 -1.8091 -1.7011  1.2053
   19SAPC  H15B 2423   1.250   2.558  42.572  1.3453 -0.1661  0.1135
   19SAPC  H15C 2424   1.141   2.494  42.682  0.1905 -1.7561  0.5200
   19SAPC   C11 2425   1.009   2.635  42.416 -0.1555  0.7216  0.5159
   19SAPC  H11A 2426   1.064   2.660  42.510 -2.0974 -0.6717  2.1059
   19SAPC  H11B 2427   0.904   2.671  42.409 -1.6044 -3.2792 -1.3487
   19SAPC     P 2428   1.037   2.683  42.156 -0.0503 -0.1641 -0.0443
   19SAPC   O13 2429   0.912   2.606  42.130 -0.6993  0.1311  0.3064
   19SAPC   O14 2430   1.033   2.828  42.128  0.5059 -0.1024 -0.1046
   19SAPC   O12 2431   1.091   2.662  42.304  0.0449  0.2108 -0.2030
   19SAPC   O11 2432   1.151   2.616  42.066 -0.3827 -0.0413 -0.4292
   19SAPC    C1 2433   1.158   2.468  42.063 -0.1329 -0.1648 -0.4714
   19SAPC    HA 2434   1.264   2.439  42.076  0.8613  3.6885  1.7390
   19SAPC    HB 2435   1.089   2.421  42.137  0.9528 -0.9736  0.0504
   19SAPC    C2 2436   1.122   2.410  41.917 -0.3820  0.7037 -0.6661
   19SAPC    HS 2437   1.167   2.309  41.927 -2.0273  0.0890  1.1311
   19SAPC   O21 2438   1.191   2.487  41.814  0.4348  0.0155  0.1054
   19SAPC   C21 2439   1.328   2.486  41.823 -0.1609 -1.0501  1.1782
   19SAPC   O22 2440   1.396   2.420  41.891 -0.1675 -0.3506 -0.3481
   19SAPC   C22 2441   1.378   2.580  41.711 -0.3616  0.0090  0.4880
   19SAPC   H2R 2442   1.353   2.516  41.623 -0.5353  1.6564 -0.7111
   19SAPC   H2S 2443   1.312   2.668  41.700  0.4018  0.3560 -2.1240
   19SAPC    C3 2444   0.981   2.407  41.879 -0.2726  0.0706  0.7780
   19SAPC    HX 2445   0.934   2.508  41.879  0.8027  0.6067  2.0494
   19SAPC    HY 2446   0.921   2.356  41.958 -0.7328  1.0821  1.1048
   19SAPC   O31 2447   0.960   2.336  41.753  0.1383 -0.1945 -0.6032
   19SAPC   C31 2448   0.841   2.299  41.727  0.7109  0.3212 -0.2038
   19SAPC   O32 2449   0.735   2.330  41.784 -0.1648  0.2240 -0.0652
   19SAPC   C32 2450   0.850   2.217  41.596 -0.0277 -0.5614  0.3385
   19SAPC   H2X 2451   0.830   2.111  41.624  0.4467 -0.4096  1.2657
   19SAPC   H2Y 2452   0.946   2.231  41.541 -0.6947 -0.4853 -0.8540
   19SAPC   C23 2453   1.528   2.608  41.715  0.4162  0.8233  0.5786
   19SAPC   H3R 2454   1.565   2.626  41.612 -1.9415 -0.5466 -0.5971
   19SAPC   H3S 2455   1.586   2.522  41.756  0.9902  1.1382  0.4391
   19SAPC   C24 2456   1.566   2.732  41.803  0.4163 -0.1584 -0.6314
   19SAPC   H4R 2457   1.541   2.699  41.906 -0.2909 -1.5889 -1.2380
   19SAPC   H4S 2458   1.508   2.824  41.777  1.4902  0.8471  0.4007
   19SAPC   C25 2459   1.713   2.777  41.813 -0.1341  0.3271 -0.2964
   19SAPC   H5R 2460   1.772   2.712  41.879 -0.2959  0.8148  0.3316
   19SAPC   C26 2461   1.766   2.856  41.720  0.1439 -0.1240 -0.5242
   19SAPC   H6R 2462   1.875   2.870  41.714  0.5594 -3.1713 -2.5122
   19SAPC   C27 2463   1.688   2.937  41.621  0.3132 -1.1518 -0.7705
   19SAPC   H7R 2464   1.653   3.027  41.675  0.6737 -0.7437 -1.2143
   19SAPC   H7S 2465   1.599   2.880  41.586  1.2040 -1.0267 -3.4348
   19SAPC   C28 2466   1.779   2.973  41.511  0.4131  0.3327  0.3311
   19SAPC   H8R 2467   1.761   2.917  41.418  1.5812 -2.7399  1.8203
   19SAPC   C29 2468   1.874   3.072  41.506 -0.0194 -0.3731  0.0969
   19SAPC   H9R 2469   1.926   3.072  41.409  0.7957 -1.9181  0.4920
   19SAPC  C210 2470   1.911   3.172  41.609 -0.2926 -0.2530 -0.1226
   19SAPC  H10R 2471   1.831   3.169  41.686 -0.8142  1.9520 -0.5195
   19SAPC  H10S 2472   1.922   3.273  41.564 -0.0879 -0.5707 -0.8080
   19SAPC  C211 2473   2.041   3.139  41.673 -0.3352  0.0085 -0.0110
   19SAPC  H11R 2474   2.080   3.040  41.647 -1.2947  0.2618 -2.7665
   19SAPC  C212 2475   2.100   3.215  41.771  0.5189  0.3890 -0.0878
   19SAPC  H12R 2476   2.198   3.178  41.803  0.5309  1.4006  1.1254
   19SAPC  C213 2477   2.047   3.344  41.831  0.5329  0.8401 -0.2281
   19SAPC  H13R 2478   1.990   3.325  41.924 -1.6577  3.1391 -0.9855
   19SAPC  H13S 2479   1.987   3.405  41.760  1.5888  2.2535  0.0520
   19SAPC  C214 2480   2.163   3.433  41.863  0.0330  0.1470  0.3614
   19SAPC  H14R 2481   2.217   3.393  41.951 -1.6537 -0.8444  0.9817
   19SAPC  C215 2482   2.208   3.542  41.790 -0.2186 -0.1949 -1.0328
   19SAPC  H15R 2483   2.293   3.600  41.827 -0.5710 -0.8650  0.9709
   19SAPC  C216 2484   2.140   3.604  41.669  0.0048  0.7319 -0.2584
   19SAPC  H16R 2485   2.180   3.707  41.655  0.8305  0.6417  1.1876
   19SAPC  H16S 2486   2.029   3.601  41.676 -0.0160 -0.5195 -0.8500
   19SAPC  C217 2487   2.191   3.519  41.548 -0.0224  0.2287 -0.0325
   19SAPC  H17R 2488   2.144   3.419  41.555 -1.8316  0.8241 -2.5252
   19SAPC  H17S 2489   2.300   3.498  41.544 -0.2715 -1.7272  1.6584
   19SAPC  C218 2490   2.153   3.580  41.413 -0.3032  0.6486  0.8249
   19SAPC  H18R 2491   2.196   3.681  41.399 -0.3763  0.7838  1.5511
   19SAPC  H18S 2492   2.042   3.589  41.422 -0.2906  0.7368  0.8863
   19SAPC  C219 2493   2.190   3.485  41.294 -0.3860  0.4348 -0.1142
   19SAPC  H19R 2494   2.151   3.381  41.306 -2.8640  1.4726  1.9660
   19SAPC  H19S 2495   2.301   3.476  41.287 -0.3841 -0.5964  0.8416
   19SAPC  C220 2496   2.134   3.526  41.155  0.9581 -0.1191  0.0700
   19SAPC  H20R 2497   2.159   3.633  41.141 -0.9240  0.3354 -0.1338
   19SAPC  H20S 2498   2.026   3.504  41.143  1.3236 -1.1240 -1.8008
   19SAPC  H20T 2499   2.189   3.463  41.081  2.1579  0.9305  0.0374
   19SAPC   C33 2500   0.763   2.270  41.483  0.4142 -0.1593  0.7596
   19SAPC   H3X 2501   0.773   2.381  41.480 -3.2950  0.2845  0.3689
   19SAPC   H3Y 2502   0.657   2.256  41.512  0.3526  1.5752  1.5391
   19SAPC   C34 2503   0.785   2.215  41.338 -0.5917 -1.2854  0.4391
   19SAPC   H4X 2504   0.753   2.109  41.330 -1.1617 -1.2286  1.6875
   19SAPC   H4Y 2505   0.891   2.227  41.310 -0.4955 -0.4844  1.0850
   19SAPC   C35 2506   0.710   2.291  41.227  0.5445 -0.4195 -0.6953
   19SAPC   H5X 2507   0.727   2.400  41.240  0.6952 -0.8024  3.7542
   19SAPC   H5Y 2508   0.601   2.278  41.247  0.8042 -2.2630 -0.3567
   19SAPC   C36 2509   0.745   2.256  41.080  0.8710 -0.3786 -0.2760
   19SAPC   H6X 2510   0.838   2.197  41.094  1.1364  0.0526 -0.2263
   19SAPC   H6Y 2511   0.778   2.352  41.035  0.1905  0.6513  1.3476
   19SAPC   C37 2512   0.645   2.170  41.005 -0.9318 -0.2594  0.5987
   19SAPC   H7X 2513   0.560   2.231  40.967 -0.0755  0.1986 -0.6421
   19SAPC   H7Y 2514   0.605   2.087  41.066  0.8728 -1.8662 -0.2997
   19SAPC   C38 2515   0.714   2.093  40.887  0.1401 -0.1554 -0.3062
   19SAPC   H8X 2516   0.655   2.004  40.856 -1.1072  1.0573 -1.5920
   19SAPC   H8Y 2517   0.806   2.045  40.926  0.0070 -1.2822 -1.3105
   19SAPC   C39 2518   0.738   2.178  40.762 -0.0019 -0.4178 -0.6461
   19SAPC   H9X 2519   0.807   2.264  40.780 -2.2799  1.4624 -0.4727
   19SAPC   H9Y 2520   0.646   2.235  40.739  1.0839  1.6474 -0.1512
   19SAPC  C310 2521   0.773   2.106  40.635 -0.5245 -0.5811  0.6723
   19SAPC  H10X 2522   0.849   2.032  40.668  0.1884  0.4184  1.3503
   19SAPC  H10Y 2523   0.834   2.183  40.582  1.2492 -1.2415  1.6722
   19SAPC  C311 2524   0.656   2.061  40.555  0.0136 -0.0699 -0.9136
   19SAPC  H11X 2525   0.597   2.153  40.534  0.6469  0.7571  0.7754
   19SAPC  H11Y 2526   0.585   1.998  40.613 -0.8863  0.2560 -1.6422
   19SAPC  C312 2527   0.682   1.993  40.422 -0.7053 -0.1715  0.3231
   19SAPC  H12X 2528   0.737   1.897  40.428 -1.9907 -0.8925  0.9183
   19SAPC  H12Y 2529   0.739   2.065  40.359  0.1673 -0.0003  1.2735
   19SAPC  C313 2530   0.552   1.965  40.335 -0.0455  0.2625  0.3731
   19SAPC  H13X 2531   0.466   1.949  40.404  0.1929  3.0081  1.4022
   19SAPC  H13Y 2532   0.568   1.869  40.280 -1.1662 -0.3628  1.0823
   19SAPC  C314 2533   0.513   2.069  40.233  0.5602  0.1909  0.7971
   19SAPC  H14X 2534   0.576   2.057  40.143 -3.1057  2.4947 -2.3910
   19SAPC  H14Y 2535   0.515   2.170  40.278  0.4531  0.1347  0.9308
   19SAPC  C315 2536   0.371   2.046  40.176  0.7150 -0.0501  0.2213
   19SAPC  H15X 2537   0.363   1.941  40.140  1.3226  0.1147 -0.4118
   19SAPC  H15Y 2538   0.358   2.110  40.086  0.5759 -1.8883 -1.1265
   19SAPC  C316 2539   0.258   2.084  40.276 -0.2946  0.5285  0.4184
   19SAPC  H16X 2540   0.267   2.180  40.331  0.3285 -0.3200  1.8452
   19SAPC  H16Y 2541   0.269   2.008  40.356 -1.3191  0.4915  0.5449
   19SAPC  C317 2542   0.113   2.066  40.223 -0.0599 -0.3110 -1.1363
   19SAPC  H17X 2543   0.092   2.151  40.153  1.3649  0.9374 -0.1081
   19SAPC  H17Y 2544   0.044   2.095  40.305 -0.3386  1.8447 -2.0387
   19SAPC  C318 2545   0.076   1.939  40.146 -0.3282  0.0492  0.1592
   19SAPC  H18X 2546   0.095   1.853  40.213 -0.1446  0.3415  0.4853
   19SAPC  H18Y 2547   0.133   1.927  40.051 -0.7093 -1.6406  0.1045
   19SAPC  H18Z 2548  -0.029   1.947  40.110  0.0706 -2.4348 -1.8425
   20SAPC     N 2549   0.012   2.828  42.492  0.1468 -0.6095 -0.7770
   20SAPC   C12 2550  -0.119   2.794  42.409  0.8012  0.2604 -1.1242
   20SAPC  H12A 2551  -0.103   2.763  42.308 -2.6727  0.6321 -1.9367
   20SAPC  H12B 2552  -0.183   2.881  42.403 -0.6790 -0.8365 -1.7430
   20SAPC   C13 2553   0.067   2.955  42.434  0.1347 -0.5027  0.0426
   20SAPC  H13A 2554   0.161   2.987  42.478  0.2667  0.2722 -0.7858
   20SAPC  H13B 2555   0.099   2.938  42.332  2.1361  0.3575  0.4885
   20SAPC  H13C 2556  -0.008   3.031  42.441 -1.5850 -1.8294 -2.3782
   20SAPC   C14 2557  -0.016   2.850  42.641 -0.6872 -0.1853  0.1258
   20SAPC  H14A 2558   0.080   2.867  42.688  0.1874 -1.8416 -0.9542
   20SAPC  H14B 2559  -0.079   2.936  42.658  1.2238  1.0278  1.4482
   20SAPC  H14C 2560  -0.066   2.763  42.681 -3.0187  1.2481  0.5016
   20SAPC   C15 2561   0.109   2.715  42.487 -0.6633  0.2618  0.4488
   20SAPC  H15A 2562   0.151   2.711  42.388 -0.2354  1.3912  0.5673
   20SAPC  H15B 2563   0.201   2.740  42.539 -0.6298 -0.2943  0.6615
   20SAPC  H15C 2564   0.056   2.629  42.525  0.4103 -0.3723  0.5484
   20SAPC   C11 2565  -0.206   2.670  42.459 -0.5186  0.2800  0.1137
   20SAPC  H11A 2566  -0.308   2.669  42.414 -0.0070 -1.0519 -1.0877
   20SAPC  H11B 2567  -0.223   2.695  42.566  2.5356 -0.4466  0.8605
   20SAPC     P 2568  -0.111   2.475  42.313 -0.1738 -0.1292 -0.0256
   20SAPC   O13 2569   0.027   2.416  42.310 -0.2823 -0.1485 -0.1234
   20SAPC   O14 2570  -0.214   2.365  42.300 -0.3836 -0.2703  0.5957
   20SAPC   O12 2571  -0.135   2.543  42.453  0.3015 -0.5172  1.1482
   20SAPC   O11 2572  -0.124   2.583  42.208  0.4264 -0.6291  0.7636
   20SAPC    C1 2573  -0.016   2.622  42.127  0.0925 -0.3033 -0.3177
   20SAPC    HA 2574  -0.021   2.732  42.118  0.5709 -0.2343  0.2105
   20SAPC    HB 2575   0.083   2.603  42.174  0.3827 -0.3140 -0.9096
   20SAPC    C2 2576  -0.023   2.549  41.993 -0.4503  0.1659 -0.8690
   20SAPC    HS 2577   0.003   2.445  42.020  2.3294  0.7029 -1.1481
   20SAPC   O21 2578   0.079   2.612  41.909  0.0072 -0.1419 -0.4885
   20SAPC   C21 2579   0.199   2.558  41.916  0.0655 -0.2416  0.3682
   20SAPC   O22 2580   0.230   2.471  41.997  0.4782  0.3864 -0.2162
   20SAPC   C22 2581   0.289   2.622  41.810 -0.3228  0.1858 -0.4813
   20SAPC   H2R 2582   0.221   2.643  41.725 -0.3706  1.3539 -0.1725
   20SAPC   H2S 2583   0.329   2.718  41.851  0.6986 -0.9184  1.2547
   20SAPC    C3 2584  -0.161   2.557  41.927  0.1457  0.3258 -0.4693
   20SAPC    HX 2585  -0.203   2.655  41.958 -1.4570 -0.5662  0.2516
   20SAPC    HY 2586  -0.221   2.478  41.976  1.9133  0.2635  1.7466
   20SAPC   O31 2587  -0.151   2.541  41.783 -0.7373  0.4007 -0.5018
   20SAPC   C31 2588  -0.204   2.634  41.710  0.3243  0.1562 -0.6160
   20SAPC   O32 2589  -0.263   2.729  41.749  0.5490 -0.4072 -0.2005
   20SAPC   C32 2590  -0.160   2.620  41.565  0.2639 -0.5254  0.2104
   20SAPC   H2X 2591  -0.223   2.551  41.505 -2.4649 -0.8126  3.1382
   20SAPC   H2Y 2592  -0.060   2.571  41.563  2.2897  3.2532 -1.1974
   20SAPC   C23 2593   0.412   2.536  41.760 -0.7042 -0.1933 -0.0659
   20SAPC   H3R 2594   0.485   2.514  41.841 -0.1667 -0.9600 -0.7470
   20SAPC   H3S 2595   0.481   2.601  41.701 -0.2059 -1.3367 -0.7900
   20SAPC   C24 2596   0.377   2.410  41.674 -0.3155  0.3488 -0.2298
   20SAPC   H4R 2597   0.469   2.361  41.637 -0.8882 -1.0154  0.1094
   20SAPC   H4S 2598   0.330   2.443  41.580 -0.5428 -0.7079 -0.4928
   20SAPC   C25 2599   0.278   2.311  41.737  0.7803  0.3971  0.1418
   20SAPC   H5R 2600   0.176   2.353  41.740  0.4064 -0.5331  0.9059
   20SAPC   C26 2601   0.297   2.176  41.758  0.2779 -0.3343 -0.7872
   20SAPC   H6R 2602   0.227   2.114  41.816  3.6939 -3.1208  0.7718
   20SAPC   C27 2603   0.426   2.093  41.740 -0.5944 -0.7043  1.4272
   20SAPC   H7R 2604   0.523   2.146  41.751 -0.2635 -1.2758  1.2878
   20SAPC   H7S 2605   0.433   2.073  41.631 -1.3955 -1.1434  1.4548
   20SAPC   C28 2606   0.434   1.973  41.828  0.2935  0.3898  0.0556
   20SAPC   H8R 2607   0.462   1.996  41.932  0.2820  1.0786 -0.0902
   20SAPC   C29 2608   0.437   1.844  41.791 -0.0471  0.4768 -0.3036
   20SAPC   H9R 2609   0.451   1.762  41.863 -0.7792 -1.2416 -2.0279
   20SAPC  C210 2610   0.419   1.778  41.658  0.7299  0.1902 -0.6049
   20SAPC  H10R 2611   0.467   1.678  41.651  0.2058  0.0391 -2.4963
   20SAPC  H10S 2612   0.458   1.841  41.575  0.3559  0.3363 -0.6729
   20SAPC  C211 2613   0.267   1.757  41.636 -0.1217 -0.3513  0.0198
   20SAPC  H11R 2614   0.217   1.686  41.703 -0.3896 -0.1868  0.0003
   20SAPC  C212 2615   0.195   1.824  41.552  0.9366 -0.6904 -0.1809
   20SAPC  H12R 2616   0.088   1.799  41.544  0.8547 -1.2157  2.0731
   20SAPC  C213 2617   0.237   1.930  41.446  0.0098  0.7717 -0.2054
   20SAPC  H13R 2618   0.326   1.990  41.474  1.2176 -0.5258 -1.1647
   20SAPC  H13S 2619   0.171   2.017  41.468 -2.7055 -1.1298 -0.3282
   20SAPC  C214 2620   0.245   1.895  41.302 -0.3511 -0.2250  0.5499
   20SAPC  H14R 2621   0.189   1.804  41.277 -0.3104  0.1823 -1.1524
   20SAPC  C215 2622   0.287   1.982  41.203  0.1856  0.0688  0.3548
   20SAPC  H15R 2623   0.294   1.934  41.104  3.4897  2.5466 -0.7774
   20SAPC  C216 2624   0.352   2.115  41.221  0.8242 -0.4789  0.0739
   20SAPC  H16R 2625   0.433   2.123  41.145 -0.6519  0.2161 -1.4910
   20SAPC  H16S 2626   0.405   2.119  41.319  0.1464  0.1604  0.4235
   20SAPC  C217 2627   0.251   2.233  41.206  1.0973 -0.4261 -0.4847
   20SAPC  H17R 2628   0.186   2.211  41.119 -0.9284 -1.3275  1.1730
   20SAPC  H17S 2629   0.311   2.325  41.190  1.0508  0.4292  3.2800
   20SAPC  C218 2630   0.170   2.279  41.335  0.3492 -0.9030 -0.3244
   20SAPC  H18R 2631   0.236   2.295  41.422  0.2010 -2.4594  0.0986
   20SAPC  H18S 2632   0.103   2.194  41.360 -0.9439  0.0406 -0.4512
   20SAPC  C219 2633   0.105   2.418  41.305  0.3578  0.2532 -0.2009
   20SAPC  H19R 2634   0.182   2.497  41.293 -1.9993  2.6875 -0.2726
   20SAPC  H19S 2635   0.057   2.443  41.402 -1.4972 -0.9953 -0.7440
   20SAPC  C220 2636  -0.003   2.423  41.194 -0.2867  0.7755  0.0470
   20SAPC  H20R 2637  -0.086   2.354  41.220  1.4811 -0.9417  1.4992
   20SAPC  H20S 2638   0.044   2.398  41.097  0.7514 -0.4399  0.8213
   20SAPC  H20T 2639  -0.043   2.524  41.173 -0.3157  0.4632 -1.5518
   20SAPC   C33 2640  -0.141   2.756  41.491  0.4194  0.5155  0.0031
   20SAPC   H3X 2641  -0.060   2.814  41.540 -0.5581  0.9879  1.1014
   20SAPC   H3Y 2642  -0.235   2.815  41.498  0.5864  0.8608 -0.5441
   20SAPC   C34 2643  -0.121   2.760  41.342 -0.1034 -0.2641  0.2490
   20SAPC   H4X 2644  -0.188   2.699  41.278  1.0843  0.8519 -2.2049
   20SAPC   H4Y 2645  -0.025   2.709  41.317 -0.2669 -0.0660 -0.8369
   20SAPC   C35 2646  -0.108   2.901  41.296 -0.2788  0.3755  0.1964
   20SAPC   H5X 2647  -0.046   2.944  41.378 -0.5874 -0.0445  0.6576
   20SAPC   H5Y 2648  -0.213   2.936  41.310 -1.5399 -3.1359  0.3889
   20SAPC   C36 2649  -0.050   2.919  41.159 -0.1502  0.2420 -0.4122
   20SAPC   H6X 2650  -0.029   3.028  41.158 -2.7647  0.8169 -1.9251
   20SAPC   H6Y 2651  -0.115   2.887  41.075 -0.3182  0.4277 -0.3525
   20SAPC   C37 2652   0.090   2.846  41.135 -0.0977 -0.1962  0.1819
   20SAPC   H7X 2653   0.090   2.735  41.143  1.6885 -0.3467 -1.3901
   20SAPC   H7Y 2654   0.153   2.887  41.217 -0.4593  0.2171  0.2543
   20SAPC   C38 2655   0.150   2.883  40.998 -0.2266  0.7479  0.3410
   20SAPC   H8X 2656   0.260   2.869  40.997 -0.1701  0.9157 -2.0303
   20SAPC   H8Y 2657   0.133   2.992  40.979 -2.5838  0.5341  0.9132
   20SAPC   C39 2658   0.081   2.793  40.892  0.0264 -0.2854  0.1545
   20SAPC   H9X 2659  -0.028   2.795  40.912  0.4080 -0.8771  2.5573
   20SAPC   H9Y 2660   0.138   2.698  40.903  0.9837  0.0682 -1.3913
   20SAPC  C310 2661   0.109   2.848  40.750 -0.1449 -0.8782 -0.3391
   20SAPC  H10X 2662   0.131   2.763  40.681 -0.7216 -1.5293  0.2656
   20SAPC  H10Y 2663   0.194   2.918  40.758 -0.0583 -1.0043 -0.1319
   20SAPC  C311 2664  -0.006   2.925  40.683 -0.2054  0.4382 -0.1548
   20SAPC  H11X 2665  -0.036   3.005  40.753  0.9260  1.3388 -0.6497
   20SAPC  H11Y 2666  -0.083   2.853  40.647  1.4579 -1.7618  0.4924
   20SAPC  C312 2667   0.051   3.008  40.564  0.3179 -0.2152 -0.5125
   20SAPC  H12X 2668   0.141   3.061  40.601  0.3048  0.5576 -1.5591
   20SAPC  H12Y 2669  -0.027   3.086  40.549  1.1583  0.6029 -0.6875
   20SAPC  C313 2670   0.060   2.923  40.444 -0.0577 -0.1750 -0.1189
   20SAPC  H13X 2671  -0.033   2.882  40.399  1.2983 -1.9942 -1.4274
   20SAPC  H13Y 2672   0.114   2.827  40.457 -0.6441 -0.4869  0.0506
   20SAPC  C314 2673   0.137   2.997  40.334 -0.6710  0.3675  0.4692
   20SAPC  H14X 2674   0.236   3.012  40.382  0.2589  1.3125 -1.6475
   20SAPC  H14Y 2675   0.090   3.097  40.314  2.2102  1.7685  0.2443
   20SAPC  C315 2676   0.156   2.907  40.206  0.3628  0.2571  0.1481
   20SAPC  H15X 2677   0.067   2.885  40.144  1.8509 -1.0280 -1.6720
   20SAPC  H15Y 2678   0.201   2.812  40.241 -2.7075 -2.1759 -1.9754
   20SAPC  C316 2679   0.262   2.961  40.111 -0.4343 -0.4856 -0.1940
   20SAPC  H16X 2680   0.289   2.893  40.027  0.9538 -1.2972  0.8641
   20SAPC  H16Y 2681   0.352   2.973  40.174 -1.2083 -2.1384  1.3057
   20SAPC  C317 2682   0.219   3.097  40.051  0.1067  0.6987 -0.5587
   20SAPC  H17X 2683   0.205   3.169  40.134  2.6077  0.6116  0.0187
   20SAPC  H17Y 2684   0.123   3.087  39.997 -1.0818  1.0195  1.3980
   20SAPC  C318 2685   0.328   3.150  39.956  0.1270  0.0565  0.6700
   20SAPC  H18X 2686   0.319   3.114  39.851  2.3337  0.2528  0.3610
   20SAPC  H18Y 2687   0.425   3.113  39.995  1.6131  0.0548 -2.6590
   20SAPC  H18Z 2688   0.329   3.261  39.955  0.6823  0.0510  0.6696
   21SAPC     N 2689   1.288   0.918  38.953  0.8481  0.2804 -0.3026
   21SAPC   C12 2690   1.212   0.977  38.836  0.4809 -0.0703 -0.4843
   21SAPC  H12A 2691   1.234   0.909  38.755 -0.3386  0.5657 -1.2686
   21SAPC  H12B 2692   1.254   1.073  38.809 -0.8959  0.5647 -0.4890
   21SAPC   C13 2693   1.418   0.866  38.912  0.9114 -0.0529  0.8779
   21SAPC  H13A 2694   1.472   0.942  38.858  0.2563 -0.8891 -1.0429
   21SAPC  H13B 2695   1.473   0.835  39.000  0.3002 -1.6459  0.7314
   21SAPC  H13C 2696   1.407   0.781  38.846  1.2374 -1.8851  3.0553
   21SAPC   C14 2697   1.292   1.038  39.048 -0.3674  0.7704  0.1144
   21SAPC  H14A 2698   1.345   1.123  39.008  1.9507 -0.0666  1.2376
   21SAPC  H14B 2699   1.196   1.067  39.087 -0.1442 -0.7949  1.9518
   21SAPC  H14C 2700   1.340   1.000  39.136 -0.9257  1.8770  0.9136
   21SAPC   C15 2701   1.215   0.809  39.018 -0.1654  0.2562 -0.3961
   21SAPC  H15A 2702   1.116   0.833  39.053 -1.4746 -3.7942 -0.7605
   21SAPC  H15B 2703   1.193   0.720  38.961 -2.0795  1.2168 -1.2423
   21SAPC  H15C 2704   1.264   0.777  39.109 -1.4560 -0.7401 -0.0046
   21SAPC   C11 2705   1.055   1.003  38.851 -0.6846 -0.5503  1.2549
   21SAPC  H11A 2706   0.995   0.910  38.863  0.7204 -1.9456 -1.4587
   21SAPC  H11B 2707   1.025   1.040  38.751  0.1842 -0.3619  1.0487
   21SAPC     P 2708   0.863   1.145  38.962 -0.0462  0.1665  0.4956
   21SAPC   O13 2709   0.870   1.294  38.997 -0.2686  0.0416  0.0678
   21SAPC   O14 2710   0.783   1.112  38.843  0.0275  0.1281  0.5024
   21SAPC   O12 2711   1.015   1.095  38.952 -0.7202  0.3895  0.5082
   21SAPC   O11 2712   0.802   1.062  39.080 -0.7491  0.2043  0.1251
   21SAPC    C1 2713   0.875   1.044  39.195  0.4593 -0.1429 -0.0527
   21SAPC    HA 2714   0.840   0.955  39.252 -1.3142 -0.2193 -1.1927
   21SAPC    HB 2715   0.984   1.026  39.179  0.1919 -1.4597 -0.5569
   21SAPC    C2 2716   0.861   1.164  39.290  0.0205  0.2650  0.0286
   21SAPC    HS 2717   0.910   1.253  39.244 -1.3938  1.4331  0.7103
   21SAPC   O21 2718   0.929   1.128  39.411  0.2749 -0.4127 -0.0579
   21SAPC   C21 2719   1.055   1.182  39.433 -0.0490 -0.0947 -0.8151
   21SAPC   O22 2720   1.124   1.241  39.350  0.2769 -0.8953  0.5173
   21SAPC   C22 2721   1.095   1.126  39.570 -0.0208  0.0330 -0.1112
   21SAPC   H2R 2722   1.020   1.055  39.613 -1.2253  0.7091 -1.0335
   21SAPC   H2S 2723   1.191   1.074  39.549  0.4614  0.3772  1.1852
   21SAPC    C3 2724   0.714   1.190  39.328 -0.1292 -0.2096  0.2015
   21SAPC    HX 2725   0.666   1.092  39.345 -2.2141  0.0224 -3.3300
   21SAPC    HY 2726   0.665   1.221  39.234 -0.6727  1.7017  1.0476
   21SAPC   O31 2727   0.681   1.284  39.434 -0.2922  0.1477 -0.0860
   21SAPC   C31 2728   0.721   1.403  39.410  0.2630 -0.5308 -0.2319
   21SAPC   O32 2729   0.758   1.454  39.304  0.0905  0.2212 -0.0575
   21SAPC   C32 2730   0.697   1.480  39.540 -0.0533 -0.6325  0.8104
   21SAPC   H2X 2731   0.688   1.588  39.514  0.1890 -1.2466 -2.1696
   21SAPC   H2Y 2732   0.783   1.473  39.610 -0.6502  2.5145  2.0203
   21SAPC   C23 2733   1.115   1.239  39.675  0.7058  0.7088  0.1413
   21SAPC   H3R 2734   1.021   1.292  39.698  1.4364  2.1634 -0.1259
   21SAPC   H3S 2735   1.183   1.316  39.633  1.6912 -0.1955  0.0225
   21SAPC   C24 2736   1.181   1.183  39.804  0.6041 -0.2497  0.7344
   21SAPC   H4R 2737   1.279   1.140  39.775 -0.0864 -1.1097 -0.3974
   21SAPC   H4S 2738   1.117   1.099  39.839  0.5871 -0.2301  0.7519
   21SAPC   C25 2739   1.196   1.290  39.908 -0.4082  0.2753  0.1964
   21SAPC   H5R 2740   1.115   1.360  39.933 -1.4822 -0.3669 -1.3337
   21SAPC   C26 2741   1.310   1.311  39.978 -0.0100 -0.8560  0.0499
   21SAPC   H6R 2742   1.322   1.395  40.048  3.7237 -0.7909 -0.4690
   21SAPC   C27 2743   1.438   1.233  39.964  0.1519 -1.0582 -0.0392
   21SAPC   H7R 2744   1.489   1.245  39.866 -2.4456  0.6363 -1.3038
   21SAPC   H7S 2745   1.421   1.124  39.977 -1.3633 -0.6050  2.2179
   21SAPC   C28 2746   1.542   1.264  40.071  0.4267  0.2016 -1.1085
   21SAPC   H8R 2747   1.545   1.199  40.159  1.7503  0.3526 -1.0347
   21SAPC   C29 2748   1.638   1.358  40.043 -0.8842  0.1873  1.0468
   21SAPC   H9R 2749   1.704   1.398  40.122 -1.1918  1.8760  0.4944
   21SAPC  C210 2750   1.650   1.440  39.922 -0.4344 -0.4613 -0.1054
   21SAPC  H10R 2751   1.684   1.543  39.949  1.1544 -0.1495 -2.8932
   21SAPC  H10S 2752   1.548   1.450  39.880 -1.5522  0.8447  2.6667
   21SAPC  C211 2753   1.734   1.386  39.809 -0.2488  0.5293  0.4121
   21SAPC  H11R 2754   1.705   1.288  39.768  2.9332 -0.0700 -0.6631
   21SAPC  C212 2755   1.833   1.457  39.747  0.1309  0.7862 -0.0080
   21SAPC  H12R 2756   1.890   1.393  39.677 -0.7272  0.2548 -0.2443
   21SAPC  C213 2757   1.890   1.596  39.792  0.7044  0.0483 -0.1947
   21SAPC  H13R 2758   1.937   1.585  39.892 -0.8376 -2.7028  0.3370
   21SAPC  H13S 2759   1.806   1.666  39.813  0.4025 -0.4846  0.4272
   21SAPC  C214 2760   1.977   1.664  39.688 -0.4930  0.4306  0.0274
   21SAPC  H14R 2761   1.939   1.678  39.585 -1.0889 -0.1887  0.1571
   21SAPC  C215 2762   2.090   1.727  39.709  0.1178 -0.2941 -0.3356
   21SAPC  H15R 2763   2.147   1.771  39.626 -1.1927  2.1138 -0.0231
   21SAPC  C216 2764   2.171   1.745  39.836  0.2453  0.1513 -0.6867
   21SAPC  H16R 2765   2.113   1.712  39.924  0.6084 -0.0433 -0.5205
   21SAPC  H16S 2766   2.185   1.853  39.861 -2.6309  0.3885  0.2725
   21SAPC  C217 2767   2.304   1.680  39.827 -0.0411 -0.3929  0.4366
   21SAPC  H17R 2768   2.366   1.717  39.743  2.3901  0.0903  2.3221
   21SAPC  H17S 2769   2.301   1.572  39.800  0.2027 -0.5277  0.9224
   21SAPC  C218 2770   2.387   1.695  39.957  0.2730  0.0473  0.1711
   21SAPC  H18R 2771   2.331   1.652  40.042  1.4932 -0.1360  0.9071
   21SAPC  H18S 2772   2.398   1.805  39.970  0.1025 -0.1480  2.2811
   21SAPC  C219 2773   2.525   1.637  39.936 -0.5394 -0.6020 -0.6316
   21SAPC  H19R 2774   2.582   1.707  39.870  1.6928 -0.7950  0.9523
   21SAPC  H19S 2775   2.519   1.529  39.909  0.2949 -1.5561  2.5770
   21SAPC  C220 2776   2.609   1.640  40.067 -0.1834 -0.2091  0.1289
   21SAPC  H20R 2777   2.714   1.603  40.061  0.1282 -0.0634  3.1102
   21SAPC  H20S 2778   2.558   1.567  40.133  2.3777 -2.2100  0.0842
   21SAPC  H20T 2779   2.595   1.742  40.110 -0.5424 -0.5517  0.8308
   21SAPC   C33 2780   0.565   1.430  39.615 -0.7013  0.2795  0.5377
   21SAPC   H3X 2781   0.577   1.471  39.717 -2.2897 -1.5222  1.5126
   21SAPC   H3Y 2782   0.543   1.321  39.615 -0.8543  0.3081  1.3704
   21SAPC   C34 2783   0.435   1.487  39.561  0.5067 -1.2650  0.0041
   21SAPC   H4X 2784   0.415   1.441  39.462 -1.9153  0.5773 -0.4479
   21SAPC   H4Y 2785   0.429   1.597  39.550 -0.1290 -1.2058  0.8552
   21SAPC   C35 2786   0.317   1.460  39.655  0.1135 -0.2663 -0.8006
   21SAPC   H5X 2787   0.325   1.353  39.684  4.3151 -0.2300 -1.1820
   21SAPC   H5Y 2788   0.219   1.470  39.605 -1.0181  0.3414  1.4269
   21SAPC   C36 2789   0.315   1.542  39.789 -0.0881 -0.0347 -0.6872
   21SAPC   H6X 2790   0.324   1.650  39.763 -1.3061  0.4536  0.7585
   21SAPC   H6Y 2791   0.402   1.512  39.850 -0.6506 -2.6286 -1.0313
   21SAPC   C37 2792   0.190   1.518  39.877 -0.3258  0.7145  0.5204
   21SAPC   H7X 2793   0.181   1.412  39.906 -0.0224  0.2744 -0.9056
   21SAPC   H7Y 2794   0.100   1.538  39.814  0.0541 -0.0242 -0.2701
   21SAPC   C38 2795   0.184   1.606  40.007 -0.1146  0.6760  0.0292
   21SAPC   H8X 2796   0.205   1.710  39.974  1.3948  1.1377  2.2621
   21SAPC   H8Y 2797   0.267   1.575  40.074 -2.8116 -4.4362  1.5672
   21SAPC   C39 2798   0.051   1.609  40.069  0.6098 -0.9266 -0.2196
   21SAPC   H9X 2799  -0.013   1.678  40.012 -2.0998 -0.0775  3.4504
   21SAPC   H9Y 2800   0.068   1.641  40.175 -0.3007 -0.4708 -0.2078
   21SAPC  C310 2801  -0.022   1.473  40.079  0.4444 -0.7019 -0.2155
   21SAPC  H10X 2802   0.046   1.395  40.119  0.8561 -0.3956 -0.3193
   21SAPC  H10Y 2803  -0.055   1.439  39.979 -2.1492 -0.1843  0.3712
   21SAPC  C311 2804  -0.146   1.481  40.167 -0.4935 -0.5585 -0.0761
   21SAPC  H11X 2805  -0.147   1.530  40.267 -1.4394 -0.1872 -0.2577
   21SAPC  H11Y 2806  -0.176   1.376  40.186 -0.1874 -0.2617  2.3749
   21SAPC  C312 2807  -0.259   1.578  40.109 -0.1947  0.2663  0.1738
   21SAPC  H12X 2808  -0.253   1.547  40.002 -0.5625 -2.8254  0.9728
   21SAPC  H12Y 2809  -0.210   1.677  40.123  4.6893 -1.6607 -1.0049
   21SAPC  C313 2810  -0.394   1.558  40.173 -0.5073  0.4458 -0.0370
   21SAPC  H13X 2811  -0.430   1.454  40.159 -0.4138  0.3056  0.6933
   21SAPC  H13Y 2812  -0.462   1.629  40.121  1.7271  2.9456  0.2378
   21SAPC  C314 2813  -0.394   1.611  40.317  0.6321  0.1550  0.6629
   21SAPC  H14X 2814  -0.359   1.716  40.331  0.5736  0.1982  0.4929
   21SAPC  H14Y 2815  -0.339   1.533  40.374  0.5725  0.3730  1.0217
   21SAPC  C315 2816  -0.540   1.628  40.355  0.2613  0.5712 -0.5265
   21SAPC  H15X 2817  -0.601   1.537  40.335  1.5388 -0.1614 -1.2233
   21SAPC  H15Y 2818  -0.583   1.704  40.287 -1.6191 -0.2261 -0.2954
   21SAPC  C316 2819  -0.559   1.665  40.496  0.2427  0.4343 -0.0725
   21SAPC  H16X 2820  -0.667   1.690  40.498 -0.2423 -1.5489 -0.1577
   21SAPC  H16Y 2821  -0.486   1.746  40.520  0.3773 -0.1949  1.8430
   21SAPC  C317 2822  -0.522   1.544  40.582 -0.0206 -0.4624 -0.1288
   21SAPC  H17X 2823  -0.412   1.559  40.591 -0.1853 -0.2359  2.2606
   21SAPC  H17Y 2824  -0.547   1.451  40.527 -1.7199  0.3629 -0.8297
   21SAPC  C318 2825  -0.564   1.544  40.727  0.8088 -0.2170 -1.0774
   21SAPC  H18X 2826  -0.673   1.552  40.743  0.5787 -0.4790 -2.3992
   21SAPC  H18Y 2827  -0.514   1.634  40.769  1.0239 -1.4358  1.4518
   21SAPC  H18Z 2828  -0.523   1.447  40.762  0.8910  0.6591  1.4306
   22SAPC     N 2829   1.077   1.578  39.065 -0.2208 -0.2364  0.4884
   22SAPC   C12 2830   1.129   1.430  39.064  0.4702 -1.2311 -0.9219
   22SAPC  H12A 2831   1.037   1.377  39.046  0.4077 -0.5341 -2.9247
   22SAPC  H12B 2832   1.162   1.400  39.162  0.7619 -1.3492 -1.0554
   22SAPC   C13 2833   0.994   1.600  39.186  0.8787 -0.2517 -0.4427
   22SAPC  H13A 2834   1.052   1.585  39.276 -1.0324  3.7302  1.7266
   22SAPC  H13B 2835   0.947   1.697  39.179  0.1760 -0.4612  1.0166
   22SAPC  H13C 2836   0.916   1.529  39.206 -0.1232  1.1429  0.8636
   22SAPC   C14 2837   1.198   1.665  39.074  0.8902 -0.0519  0.1588
   22SAPC  H14A 2838   1.254   1.650  39.165  3.7175 -0.4666 -1.5596
   22SAPC  H14B 2839   1.260   1.646  38.988 -0.5779 -0.4002 -0.8538
   22SAPC  H14C 2840   1.181   1.771  39.065  1.3049 -0.0739 -0.9716
   22SAPC   C15 2841   0.990   1.624  38.949  0.3054  0.7327  0.1259
   22SAPC  H15A 2842   0.898   1.568  38.941  1.4419 -0.9580 -2.6913
   22SAPC  H15B 2843   0.983   1.732  38.955  2.3942  1.1635 -2.8237
   22SAPC  H15C 2844   1.034   1.593  38.855 -1.5236 -0.8440 -0.2905
   22SAPC   C11 2845   1.237   1.385  38.972 -0.5539 -0.2917  0.1202
   22SAPC  H11A 2846   1.209   1.420  38.871  0.4393 -2.1157 -0.8356
   22SAPC  H11B 2847   1.236   1.275  38.960 -2.8754 -0.0004 -4.0467
   22SAPC     P 2848   1.506   1.392  38.978 -0.3658 -0.2533 -0.1692
   22SAPC   O13 2849   1.497   1.247  38.935  0.2222 -0.0790  0.3601
   22SAPC   O14 2850   1.574   1.479  38.883 -0.0319 -0.7798  0.3845
   22SAPC   O12 2851   1.363   1.439  39.020  0.2503 -0.0388 -0.2728
   22SAPC   O11 2852   1.587   1.406  39.108  0.2610 -0.8066 -0.3328
   22SAPC    C1 2853   1.546   1.354  39.237  0.4789 -0.8843  0.0246
   22SAPC    HA 2854   1.465   1.279  39.225 -0.4874  0.1400 -0.0666
   22SAPC    HB 2855   1.638   1.315  39.286  0.7745 -0.3420 -0.0832
   22SAPC    C2 2856   1.487   1.459  39.336 -0.5211  0.7005 -0.0982
   22SAPC    HS 2857   1.396   1.506  39.293 -1.7574  1.8790  3.4126
   22SAPC   O21 2858   1.593   1.546  39.365 -0.0567  0.2436 -0.5164
   22SAPC   C21 2859   1.567   1.669  39.392  1.6382 -0.5691  0.0044
   22SAPC   O22 2860   1.452   1.715  39.395  0.3555 -0.2748 -0.6092
   22SAPC   C22 2861   1.689   1.756  39.413  0.1172 -0.3023  0.4497
   22SAPC   H2R 2862   1.713   1.733  39.519  2.3009 -1.9308 -0.3205
   22SAPC   H2S 2863   1.767   1.727  39.339  0.3132 -0.4353  0.7030
   22SAPC    C3 2864   1.430   1.390  39.466  0.1538 -0.7626  0.6420
   22SAPC    HX 2865   1.507   1.317  39.500 -0.6171 -0.5378  3.0905
   22SAPC    HY 2866   1.339   1.332  39.440 -0.2235 -0.3463  1.0234
   22SAPC   O31 2867   1.399   1.491  39.567  0.1069 -0.4316 -0.1331
   22SAPC   C31 2868   1.282   1.540  39.542  0.0851  0.1024 -0.1888
   22SAPC   O32 2869   1.211   1.521  39.445 -0.2095 -0.6244  0.4182
   22SAPC   C32 2870   1.242   1.624  39.661 -0.0571  0.4351  0.2182
   22SAPC   H2X 2871   1.318   1.703  39.679  2.2493 -0.5698 -3.9120
   22SAPC   H2Y 2872   1.250   1.564  39.754 -2.4741 -1.4816 -0.6928
   22SAPC   C23 2873   1.678   1.914  39.417  0.1747  0.3635 -0.5251
   22SAPC   H3R 2874   1.592   1.946  39.479 -1.0228 -2.4427 -0.5761
   22SAPC   H3S 2875   1.657   1.944  39.312 -0.0402  1.7619 -0.0963
   22SAPC   C24 2876   1.804   1.972  39.471 -0.2078  0.2704 -0.1236
   22SAPC   H4R 2877   1.881   1.951  39.393  0.4854  0.0929  0.5933
   22SAPC   H4S 2878   1.848   1.912  39.554 -2.6372 -1.1118  0.2475
   22SAPC   C25 2879   1.796   2.114  39.512  0.3702 -0.2266 -0.1334
   22SAPC   H5R 2880   1.750   2.131  39.610 -1.0476  2.4830 -1.1674
   22SAPC   C26 2881   1.810   2.216  39.424  0.1575 -0.3074 -0.5958
   22SAPC   H6R 2882   1.799   2.312  39.476 -0.6400  1.0862 -3.1897
   22SAPC   C27 2883   1.830   2.207  39.271  0.8160 -0.3255  0.1540
   22SAPC   H7R 2884   1.868   2.109  39.236 -2.3042 -1.1755 -1.2108
   22SAPC   H7S 2885   1.905   2.284  39.244  2.4864 -1.4408  1.3965
   22SAPC   C28 2886   1.693   2.220  39.205  0.0568  0.4361  0.0808
   22SAPC   H8R 2887   1.602   2.205  39.265 -0.1845 -1.0049 -0.5941
   22SAPC   C29 2888   1.676   2.256  39.080  0.1285 -0.0167 -1.1753
   22SAPC   H9R 2889   1.583   2.294  39.036 -2.0066 -3.1161  0.3375
   22SAPC  C210 2890   1.785   2.285  38.986  0.5796  0.2731 -0.2339
   22SAPC  H10R 2891   1.889   2.250  39.002  0.4840 -0.6194 -1.4745
   22SAPC  H10S 2892   1.811   2.392  39.002  0.5301 -0.0516  2.5689
   22SAPC  C211 2893   1.752   2.265  38.846 -0.0777  0.5736  0.1519
   22SAPC  H11R 2894   1.670   2.328  38.811 -0.2374  0.9935  1.2474
   22SAPC  C212 2895   1.809   2.183  38.752 -0.0951 -0.2564  0.0911
   22SAPC  H12R 2896   1.759   2.184  38.654 -2.0942  0.8019  1.0514
   22SAPC  C213 2897   1.931   2.087  38.767 -0.8683 -0.3114 -0.1666
   22SAPC  H13R 2898   1.909   1.979  38.759  1.2029 -0.7754 -0.1363
   22SAPC  H13S 2899   1.966   2.094  38.872  0.2053 -1.0146 -0.4673
   22SAPC  C214 2900   2.047   2.106  38.677  0.6830 -0.6005  0.3530
   22SAPC  H14R 2901   2.030   2.119  38.569 -0.5734 -1.7249  0.3902
   22SAPC  C215 2902   2.175   2.095  38.713  0.3926  0.1752  0.0025
   22SAPC  H15R 2903   2.252   2.114  38.637  1.7037 -0.6205  1.0862
   22SAPC  C216 2904   2.228   2.086  38.851 -0.6502  0.3226 -0.3967
   22SAPC  H16R 2905   2.299   2.001  38.844 -1.9637 -0.8598  0.2128
   22SAPC  H16S 2906   2.161   2.058  38.935  0.6009  1.1049  0.9053
   22SAPC  C217 2907   2.285   2.219  38.888 -0.2247  0.9476  0.8271
   22SAPC  H17R 2908   2.342   2.264  38.804 -2.5079  0.9258 -0.8261
   22SAPC  H17S 2909   2.352   2.199  38.975 -0.3480  3.1529  1.4824
   22SAPC  C218 2910   2.184   2.313  38.969  0.1276 -0.3236 -0.7830
   22SAPC  H18R 2911   2.128   2.256  39.047  1.8515 -2.4442 -0.9956
   22SAPC  H18S 2912   2.107   2.347  38.896  0.9212  1.0360 -1.0151
   22SAPC  C219 2913   2.247   2.441  39.033  0.5935  0.3241  1.0608
   22SAPC  H19R 2914   2.262   2.507  38.944  2.6244 -1.2580  0.1219
   22SAPC  H19S 2915   2.345   2.411  39.076  0.5186 -2.5733 -0.5139
   22SAPC  C220 2916   2.160   2.493  39.156  0.1081  0.6600  0.8377
   22SAPC  H20R 2917   2.057   2.523  39.126  1.2433  5.8178  1.1773
   22SAPC  H20S 2918   2.194   2.588  39.202  1.1549  0.5259  0.3501
   22SAPC  H20T 2919   2.145   2.414  39.233 -3.5592  0.4875  0.1480
   22SAPC   C33 2920   1.104   1.677  39.642  0.4509  0.0689  0.1371
   22SAPC   H3X 2921   1.026   1.602  39.619 -1.2021  1.1576  1.9458
   22SAPC   H3Y 2922   1.094   1.755  39.564 -1.3821 -0.1176  0.1599
   22SAPC   C34 2923   1.055   1.742  39.773  0.2986 -0.2884  0.4516
   22SAPC   H4X 2924   0.978   1.820  39.754  1.6185  0.9577  0.0697
   22SAPC   H4Y 2925   1.139   1.803  39.812 -1.6308  1.3776  2.2452
   22SAPC   C35 2926   1.006   1.633  39.874 -0.6701  0.1183  0.1266
   22SAPC   H5X 2927   1.031   1.529  39.842  0.1963  0.2588  0.3188
   22SAPC   H5Y 2928   0.897   1.639  39.850 -0.2405  0.8856 -1.8732
   22SAPC   C36 2929   1.055   1.636  40.015  0.4631  0.3068 -0.1564
   22SAPC   H6X 2930   1.045   1.738  40.059 -0.8755 -0.4802  1.4473
   22SAPC   H6Y 2931   1.163   1.609  40.015  0.5453  0.5989 -0.8228
   22SAPC   C37 2932   0.976   1.546  40.104 -0.3416  0.7808  0.4168
   22SAPC   H7X 2933   0.952   1.448  40.057 -1.6499  1.0026  0.5962
   22SAPC   H7Y 2934   0.872   1.583  40.117 -0.0044  1.5529  1.0013
   22SAPC   C38 2935   1.043   1.525  40.240 -0.4523 -0.1444  0.4353
   22SAPC   H8X 2936   1.027   1.620  40.296  0.9923 -0.1368  0.8666
   22SAPC   H8Y 2937   1.152   1.511  40.229 -0.4600  0.2009 -0.1460
   22SAPC   C39 2938   0.977   1.414  40.315 -0.2496  0.3900  0.0929
   22SAPC   H9X 2939   0.868   1.406  40.294  0.0571 -0.8003 -1.1737
   22SAPC   H9Y 2940   0.986   1.437  40.423 -2.2330  0.5488  0.2639
   22SAPC  C310 2941   1.034   1.270  40.296 -0.3993  1.0635  0.4832
   22SAPC  H10X 2942   1.041   1.265  40.185  2.4015  0.5238  0.6165
   22SAPC  H10Y 2943   0.956   1.199  40.329 -0.6380  0.0144 -2.0925
   22SAPC  C311 2944   1.179   1.245  40.344  0.2591  0.2177 -0.2021
   22SAPC  H11X 2945   1.182   1.263  40.454 -1.6620 -1.2250  0.1330
   22SAPC  H11Y 2946   1.254   1.312  40.298 -0.1030  0.7981  0.0431
   22SAPC  C312 2947   1.217   1.103  40.329 -0.6218  0.3804 -0.9528
   22SAPC  H12X 2948   1.222   1.077  40.221 -0.1974  3.7290 -1.8582
   22SAPC  H12Y 2949   1.143   1.034  40.374 -0.3649 -1.6830 -3.4409
   22SAPC  C313 2950   1.346   1.071  40.413 -0.7737 -0.8587  0.4114
   22SAPC  H13X 2951   1.336   1.091  40.522 -0.0483 -2.7818  0.8834
   22SAPC  H13Y 2952   1.434   1.135  40.389 -0.2466 -0.8964  2.0754
   22SAPC  C314 2953   1.372   0.916  40.407  0.2585  0.4031  0.1858
   22SAPC  H14X 2954   1.469   0.901  40.459  0.8747 -0.0581 -1.0534
   22SAPC  H14Y 2955   1.382   0.869  40.307 -0.2467  0.7873 -0.0484
   22SAPC  C315 2956   1.255   0.830  40.464  0.0310 -0.4462  0.1219
   22SAPC  H15X 2957   1.165   0.843  40.400 -0.4758  0.9332  1.0699
   22SAPC  H15Y 2958   1.240   0.857  40.571  1.4535  2.6540 -0.3503
   22SAPC  C316 2959   1.279   0.677  40.456  0.7519  0.3425  0.7633
   22SAPC  H16X 2960   1.201   0.631  40.521  1.9785  0.6879  2.5506
   22SAPC  H16Y 2961   1.373   0.630  40.492  0.1284 -1.7484 -0.1914
   22SAPC  C317 2962   1.263   0.632  40.306  0.1847 -0.0544  0.5469
   22SAPC  H17X 2963   1.353   0.671  40.254  0.1643 -1.3619 -0.5104
   22SAPC  H17Y 2964   1.167   0.664  40.260 -0.0796 -1.8742 -0.2569
   22SAPC  C318 2965   1.253   0.483  40.277 -0.4918 -0.0849 -0.2175
   22SAPC  H18X 2966   1.344   0.428  40.309  1.4597  2.7665 -0.5772
   22SAPC  H18Y 2967   1.225   0.458  40.172 -1.7859 -0.2947  0.1556
   22SAPC  H18Z 2968   1.174   0.439  40.342 -0.3315  0.1976  0.1676
   23SAPC     N 2969   0.849   0.102  39.208 -0.2338 -0.5567  0.5378
   23SAPC   C12 2970   0.965   0.174  39.280  0.4527  0.9658  0.5408
   23SAPC  H12A 2971   1.040   0.202  39.207 -0.1214  0.5584 -0.2135
   23SAPC  H12B 2972   1.013   0.098  39.341 -1.1506 -0.4491  0.1212
   23SAPC   C13 2973   0.914  -0.025  39.145  0.0318  0.0304 -0.0001
   23SAPC  H13A 2974   0.993  -0.004  39.075  0.7258 -1.5108  0.2850
   23SAPC  H13B 2975   0.955  -0.084  39.226  0.6358  0.0068 -0.3240
   23SAPC  H13C 2976   0.842  -0.080  39.087  0.3012  1.7436 -2.1123
   23SAPC   C14 2977   0.754   0.058  39.304  1.0594  0.5691  0.0255
   23SAPC  H14A 2978   0.785  -0.018  39.374 -0.2732  0.0005  0.0279
   23SAPC  H14B 2979   0.725   0.143  39.364  2.2847  1.5889 -0.7832
   23SAPC  H14C 2980   0.670   0.016  39.250  1.7114 -0.1986 -0.4148
   23SAPC   C15 2981   0.783   0.184  39.098 -0.1055  0.1813  0.4020
   23SAPC  H15A 2982   0.685   0.150  39.067  0.7226 -2.4211  0.3973
   23SAPC  H15B 2983   0.776   0.282  39.142  0.0719 -0.4099  1.8088
   23SAPC  H15C 2984   0.852   0.206  39.018  0.3768  1.0958  1.0512
   23SAPC   C11 2985   0.930   0.292  39.355  0.1779  0.1161  0.1284
   23SAPC  H11A 2986   1.013   0.330  39.418  0.8078 -0.7921 -0.1510
   23SAPC  H11B 2987   0.852   0.265  39.429 -0.7034  0.0158 -0.8154
   23SAPC     P 2988   0.978   0.507  39.208  0.2995  0.2416 -0.3361
   23SAPC   O13 2989   1.083   0.444  39.130 -0.0801 -0.6098  0.0746
   23SAPC   O14 2990   0.896   0.614  39.142  0.1946 -0.5703 -0.2832
   23SAPC   O12 2991   0.884   0.406  39.278  0.4312  0.1240 -0.1912
   23SAPC   O11 2992   1.039   0.579  39.328  0.2268 -0.9921  0.1456
   23SAPC    C1 2993   1.016   0.718  39.360  0.6214  0.1103  0.6776
   23SAPC    HA 2994   1.048   0.781  39.275  1.1060  2.1144  2.2726
   23SAPC    HB 2995   0.907   0.737  39.366  0.3856 -1.2894  1.4449
   23SAPC    C2 2996   1.099   0.768  39.484 -0.1150 -0.0745 -0.6737
   23SAPC    HS 2997   1.069   0.870  39.515 -1.4714 -0.9612  1.0743
   23SAPC   O21 2998   1.240   0.754  39.465 -0.5883 -0.1698  0.0620
   23SAPC   C21 2999   1.288   0.846  39.373 -0.0409 -0.2739 -1.1744
   23SAPC   O22 3000   1.213   0.930  39.328  0.1349 -0.1599  0.0191
   23SAPC   C22 3001   1.442   0.842  39.361 -0.1467  0.4768 -0.1094
   23SAPC   H2R 3002   1.487   0.748  39.402  1.3582  1.3505  0.3063
   23SAPC   H2S 3003   1.461   0.853  39.253  1.2274  0.6789  0.1420
   23SAPC    C3 3004   1.074   0.677  39.608  0.1012 -0.2351  0.1621
   23SAPC    HX 3005   1.103   0.572  39.583  0.9022 -0.0205  0.1802
   23SAPC    HY 3006   0.965   0.676  39.632 -0.2621 -1.1623 -1.4296
   23SAPC   O31 3007   1.134   0.742  39.725  0.0207  0.8256  0.1595
   23SAPC   C31 3008   1.247   0.689  39.762 -0.4993  0.1508 -0.1505
   23SAPC   O32 3009   1.287   0.573  39.744 -0.1338 -0.7039  0.4108
   23SAPC   C32 3010   1.328   0.788  39.848  0.2195  0.4085  0.9435
   23SAPC   H2X 3011   1.269   0.793  39.942  0.2735 -1.2242  1.0981
   23SAPC   H2Y 3012   1.327   0.884  39.792  1.3357  0.0067  0.2160
   23SAPC   C23 3013   1.519   0.957  39.423  0.3676 -0.0883  0.1644
   23SAPC   H3R 3014   1.481   1.059  39.398  1.2550 -0.2174 -1.9276
   23SAPC   H3S 3015   1.622   0.956  39.383  0.5412  0.1866  0.5951
   23SAPC   C24 3016   1.533   0.958  39.576 -0.1879  0.4524 -0.8931
   23SAPC   H4R 3017   1.551   0.858  39.619  1.5703  2.5007  3.8097
   23SAPC   H4S 3018   1.439   0.999  39.620 -0.2099  0.0833 -0.5986
   23SAPC   C25 3019   1.646   1.039  39.625  0.2244 -0.7343  0.1518
   23SAPC   H5R 3020   1.617   1.144  39.632 -3.3262 -1.2591 -3.2612
   23SAPC   C26 3021   1.776   1.005  39.642 -0.4437 -0.3793  0.2162
   23SAPC   H6R 3022   1.840   1.088  39.676 -0.2336  1.0572 -3.2860
   23SAPC   C27 3023   1.833   0.869  39.624 -0.1167 -0.4158  0.0318
   23SAPC   H7R 3024   1.907   0.864  39.541 -0.3654 -2.3964 -0.1181
   23SAPC   H7S 3025   1.758   0.795  39.589 -1.1078  0.4973  0.1748
   23SAPC   C28 3026   1.895   0.814  39.750 -0.0101 -0.4482  0.8182
   23SAPC   H8R 3027   1.842   0.732  39.800  0.2417 -0.9551  0.2692
   23SAPC   C29 3028   2.004   0.864  39.811 -0.1458  0.5880  0.6196
   23SAPC   H9R 3029   2.040   0.814  39.902 -1.2538  0.4220  0.9934
   23SAPC  C210 3030   2.102   0.964  39.754  0.7556  0.4109 -0.6762
   23SAPC  H10R 3031   2.082   1.060  39.806 -0.5095 -0.8750  1.3352
   23SAPC  H10S 3032   2.083   0.988  39.647  1.2318 -0.0491 -0.8671
   23SAPC  C211 3033   2.244   0.913  39.773 -0.1922 -0.1504  0.4975
   23SAPC  H11R 3034   2.261   0.824  39.836  0.1457 -1.2089 -1.0268
   23SAPC  C212 3035   2.353   0.971  39.726  0.5910 -0.1164 -0.7131
   23SAPC  H12R 3036   2.450   0.933  39.761 -0.7100 -3.3203 -0.2814
   23SAPC  C213 3037   2.354   1.085  39.632 -0.4757 -0.6457 -0.6156
   23SAPC  H13R 3038   2.350   1.179  39.691  0.4389 -1.2267  0.4112
   23SAPC  H13S 3039   2.279   1.069  39.552 -0.0080  0.1802 -1.2429
   23SAPC  C214 3040   2.493   1.093  39.563  0.4297 -0.7841  1.0701
   23SAPC  H14R 3041   2.503   1.034  39.471  1.6348 -0.2601  0.8459
   23SAPC  C215 3042   2.599   1.172  39.601 -0.3146 -0.1076 -0.1040
   23SAPC  H15R 3043   2.681   1.187  39.531 -0.3898  0.3135 -0.1006
   23SAPC  C216 3044   2.607   1.247  39.733  0.3526 -0.9814 -0.0914
   23SAPC  H16R 3045   2.522   1.319  39.735  0.0091 -1.3963  0.4466
   23SAPC  H16S 3046   2.696   1.313  39.730 -0.8322  0.6702 -1.9790
   23SAPC  C217 3047   2.615   1.164  39.865 -0.6193 -0.2535 -0.3370
   23SAPC  H17R 3048   2.704   1.100  39.842 -0.4393  0.3080 -1.2215
   23SAPC  H17S 3049   2.523   1.107  39.891 -0.8439  0.0769 -0.4048
   23SAPC  C218 3050   2.644   1.250  39.990  0.6820  0.1508  0.7210
   23SAPC  H18R 3051   2.572   1.334  39.994  0.2445 -0.1011 -0.9744
   23SAPC  H18S 3052   2.738   1.302  39.961  0.9725 -1.0242 -0.5627
   23SAPC  C219 3053   2.656   1.171  40.123 -0.0297 -0.8345  0.7724
   23SAPC  H19R 3054   2.723   1.085  40.101 -0.9860 -1.2774 -0.5585
   23SAPC  H19S 3055   2.559   1.134  40.163 -1.8698  1.8206 -0.9544
   23SAPC  C220 3056   2.710   1.254  40.234  1.2475  0.4895 -0.4438
   23SAPC  H20R 3057   2.699   1.191  40.325  2.0414  0.3502 -0.4386
   23SAPC  H20S 3058   2.666   1.356  40.239 -0.3167 -0.2189  0.8835
   23SAPC  H20T 3059   2.818   1.270  40.215  1.0191  1.6519 -0.8557
   23SAPC   C33 3060   1.479   0.751  39.875  0.2066 -0.2267  0.0375
   23SAPC   H3X 3061   1.533   0.848  39.870 -0.7881  0.7964  4.6704
   23SAPC   H3Y 3062   1.520   0.673  39.807 -0.5579  0.0732 -0.8004
   23SAPC   C34 3063   1.500   0.712  40.021  0.0485  0.3554 -0.0259
   23SAPC   H4X 3064   1.454   0.611  40.027 -1.4880  1.0440  0.1951
   23SAPC   H4Y 3065   1.447   0.782  40.088  2.4923  1.4806  0.8643
   23SAPC   C35 3066   1.646   0.701  40.063 -0.4896 -0.3656 -0.3645
   23SAPC   H5X 3067   1.698   0.784  40.010  0.2798  0.8543  2.1249
   23SAPC   H5Y 3068   1.686   0.607  40.020  0.1850 -0.7124  0.9522
   23SAPC   C36 3069   1.659   0.705  40.219 -0.0137 -0.0029 -0.1988
   23SAPC   H6X 3070   1.559   0.683  40.260  0.3744  0.8885  1.3064
   23SAPC   H6Y 3071   1.698   0.803  40.255  2.4310 -0.6213 -0.9007
   23SAPC   C37 3072   1.750   0.600  40.280 -0.4196  0.2467 -0.4282
   23SAPC   H7X 3073   1.769   0.623  40.387  1.8201 -0.8915 -0.5214
   23SAPC   H7Y 3074   1.855   0.601  40.243  0.2718  2.6261  1.3435
   23SAPC   C38 3075   1.704   0.455  40.300  0.5506 -0.5804  0.4070
   23SAPC   H8X 3076   1.658   0.420  40.205 -3.2556  2.7648  0.7696
   23SAPC   H8Y 3077   1.613   0.463  40.362  0.8781  1.1540  0.6973
   23SAPC   C39 3078   1.820   0.367  40.352  0.9663  0.1746 -0.2837
   23SAPC   H9X 3079   1.847   0.392  40.457  0.6353 -0.7028  0.0297
   23SAPC   H9Y 3080   1.905   0.382  40.282  0.6362 -0.4277 -0.8303
   23SAPC  C310 3081   1.784   0.215  40.364  0.3327 -0.3047 -0.2810
   23SAPC  H10X 3082   1.873   0.149  40.358 -0.5194 -1.5690  0.5623
   23SAPC  H10Y 3083   1.730   0.179  40.273  2.0228 -0.6742 -1.1808
   23SAPC  C311 3084   1.719   0.176  40.501  0.4233 -0.2957  0.4724
   23SAPC  H11X 3085   1.616   0.217  40.497  0.2078 -0.9105 -0.3700
   23SAPC  H11Y 3086   1.787   0.213  40.581  1.5743  0.8272 -0.9705
   23SAPC  C312 3087   1.688   0.025  40.508  0.4918 -0.0198 -0.2792
   23SAPC  H12X 3088   1.639  -0.016  40.417 -0.1389 -0.5401  0.2801
   23SAPC  H12Y 3089   1.624   0.006  40.597  3.6284  2.7691  2.8654
   23SAPC  C313 3090   1.815  -0.066  40.519  0.9721  0.2546  0.3389
   23SAPC  H13X 3091   1.882  -0.036  40.603  4.0482 -0.6063 -1.6388
   23SAPC  H13Y 3092   1.868  -0.062  40.422 -0.8701 -1.1687 -0.7721
   23SAPC  C314 3093   1.783  -0.215  40.568 -0.7924 -0.2138  0.5010
   23SAPC  H14X 3094   1.693  -0.264  40.525 -0.0555  0.5703 -2.1487
   23SAPC  H14Y 3095   1.766  -0.218  40.678  1.6833  1.0631  0.9970
   23SAPC  C315 3096   1.906  -0.302  40.530 -0.2594 -0.1099  0.5188
   23SAPC  H15X 3097   1.978  -0.292  40.613 -1.0309 -1.2469  1.3529
   23SAPC  H15Y 3098   1.945  -0.284  40.427  2.8701 -3.6922  0.8645
   23SAPC  C316 3099   1.867  -0.462  40.535  0.3231 -0.1021  0.4253
   23SAPC  H16X 3100   1.789  -0.478  40.458  1.5161 -1.7147 -0.5051
   23SAPC  H16Y 3101   1.830  -0.458  40.640  1.1050  3.0383  0.6772
   23SAPC  C317 3102   1.982  -0.561  40.519 -0.0242  0.4219  0.6337
   23SAPC  H17X 3103   2.068  -0.527  40.581  0.5024  0.4598 -0.1082
   23SAPC  H17Y 3104   2.025  -0.553  40.418 -2.4876  0.4334 -0.4837
   23SAPC  C318 3105   1.940  -0.701  40.539 -0.7137 -0.0856 -0.8678
   23SAPC  H18X 3106   2.035  -0.759  40.541 -0.3958  0.4073 -1.4260
   23SAPC  H18Y 3107   1.868  -0.739  40.464 -0.5014 -2.0207 -0.1466
   23SAPC  H18Z 3108   1.885  -0.707  40.636 -0.1583  0.9015 -0.4775
   24SAPC     N 3109   1.138   1.669  34.322  0.3942  0.1111  0.8527
   24SAPC   C12 3110   1.102   1.523  34.292  0.3217 -0.6333 -0.9476
   24SAPC  H12A 3111   0.997   1.508  34.269  0.1124 -1.6589  0.5669
   24SAPC  H12B 3112   1.120   1.474  34.386  0.4016  0.4403 -0.3981
   24SAPC   C13 3113   1.069   1.728  34.441 -0.8164  0.1942  0.8011
   24SAPC  H13A 3114   0.965   1.743  34.418 -1.0549 -1.3473  0.7724
   24SAPC  H13B 3115   1.074   1.658  34.523  0.3417 -0.7698 -0.0522
   24SAPC  H13C 3116   1.126   1.813  34.475 -0.7650  1.6010 -2.3851
   24SAPC   C14 3117   1.291   1.684  34.326  0.5558  0.3075  0.6054
   24SAPC  H14A 3118   1.332   1.626  34.245 -2.6107  0.5858 -1.3767
   24SAPC  H14B 3119   1.322   1.785  34.303 -1.2808  0.8934  0.5012
   24SAPC  H14C 3120   1.335   1.658  34.421  0.6017  0.1284  0.5355
   24SAPC   C15 3121   1.102   1.746  34.203 -0.8463 -0.2813  0.4830
   24SAPC  H15A 3122   0.997   1.748  34.180 -0.6315 -2.0299 -0.8320
   24SAPC  H15B 3123   1.153   1.841  34.211 -0.0018 -0.4248 -2.2817
   24SAPC  H15C 3124   1.146   1.706  34.113 -0.8652  1.0537 -0.1525
   24SAPC   C11 3125   1.174   1.440  34.184 -0.0075  0.0619 -0.3725
   24SAPC  H11A 3126   1.148   1.332  34.194  1.0857 -0.0598  1.8238
   24SAPC  H11B 3127   1.278   1.426  34.222 -0.3362  0.2035  0.6139
   24SAPC     P 3128   1.149   1.401  33.936  0.3213  0.5972 -0.3682
   24SAPC   O13 3129   1.198   1.265  33.962 -0.3681  0.4400 -0.3923
   24SAPC   O14 3130   1.001   1.416  33.910 -0.5179  0.2347 -0.0542
   24SAPC   O12 3131   1.178   1.498  34.053 -0.3451  0.5485 -0.1050
   24SAPC   O11 3132   1.235   1.471  33.821  0.5954 -0.1954  0.0442
   24SAPC    C1 3133   1.154   1.529  33.722 -0.1877 -0.2788  0.7092
   24SAPC    HA 3134   1.069   1.467  33.686 -0.0672 -0.7149  1.1536
   24SAPC    HB 3135   1.121   1.630  33.754  2.8784  1.2501 -0.6058
   24SAPC    C2 3136   1.238   1.553  33.594 -0.1323 -0.5279  0.2613
   24SAPC    HS 3137   1.272   1.455  33.555 -0.2979 -0.2681 -0.5796
   24SAPC   O21 3138   1.344   1.639  33.628  0.2718 -0.2800 -0.3145
   24SAPC   C21 3139   1.458   1.645  33.561  0.0072 -0.7709 -0.4740
   24SAPC   O22 3140   1.490   1.556  33.486 -0.7204  1.1379 -0.4056
   24SAPC   C22 3141   1.556   1.756  33.620  0.0065  0.2642  0.1689
   24SAPC   H2R 3142   1.500   1.836  33.673  1.7547  0.2807  2.1284
   24SAPC   H2S 3143   1.611   1.712  33.707  1.2739 -0.4369 -0.9537
   24SAPC    C3 3144   1.157   1.615  33.481  0.3877 -0.0226  0.5048
   24SAPC    HX 3145   1.217   1.640  33.391  0.6597  0.5321  0.8341
   24SAPC    HY 3146   1.117   1.709  33.525  0.4431  0.4244 -0.3838
   24SAPC   O31 3147   1.044   1.539  33.427  0.2380  0.1554 -0.5440
   24SAPC   C31 3148   0.942   1.615  33.372 -0.9080 -0.1255 -0.8928
   24SAPC   O32 3149   0.948   1.732  33.356  0.7569  0.0051  0.6950
   24SAPC   C32 3150   0.820   1.541  33.328 -0.0869  0.2783  0.2306
   24SAPC   H2X 3151   0.729   1.572  33.384 -2.4382 -0.5034 -2.9197
   24SAPC   H2Y 3152   0.832   1.434  33.353 -1.5984  0.3286  1.3572
   24SAPC   C23 3153   1.649   1.823  33.510  0.6203 -0.4329  0.4497
   24SAPC   H3R 3154   1.583   1.875  33.437 -4.2886 -3.1972  2.4468
   24SAPC   H3S 3155   1.706   1.742  33.459 -0.2900 -0.1898 -1.0142
   24SAPC   C24 3156   1.758   1.927  33.571 -0.0534 -1.7637 -0.8364
   24SAPC   H4R 3157   1.833   1.945  33.491  1.8072 -2.3194  0.7038
   24SAPC   H4S 3158   1.813   1.881  33.655 -1.2831  0.4531  1.3206
   24SAPC   C25 3159   1.690   2.061  33.614  0.4823  0.0645  0.5851
   24SAPC   H5R 3160   1.582   2.049  33.631  0.1894 -0.3824 -1.3830
   24SAPC   C26 3161   1.747   2.183  33.617 -0.3521 -0.4431  0.6857
   24SAPC   H6R 3162   1.690   2.260  33.673  0.4187  1.2616 -0.8020
   24SAPC   C27 3163   1.886   2.208  33.577  0.2237  0.3113 -0.4161
   24SAPC   H7R 3164   1.898   2.213  33.467 -0.9356  0.6156 -0.5458
   24SAPC   H7S 3165   1.954   2.125  33.603  0.6593 -0.5680 -3.9196
   24SAPC   C28 3166   1.956   2.343  33.618  0.2811  0.2319 -0.1623
   24SAPC   H8R 3167   1.900   2.438  33.612  0.6730  0.4072 -1.4318
   24SAPC   C29 3168   2.085   2.368  33.638 -0.1436  0.0328  0.2505
   24SAPC   H9R 3169   2.109   2.471  33.666  0.0549  0.5890 -1.8480
   24SAPC  C210 3170   2.186   2.257  33.630  0.3360 -0.2009 -0.9596
   24SAPC  H10R 3171   2.284   2.294  33.593  0.9566 -2.5645 -1.8895
   24SAPC  H10S 3172   2.167   2.180  33.552  0.9096  0.9067 -2.2373
   24SAPC  C211 3173   2.203   2.190  33.767  0.0563  0.1085  0.5243
   24SAPC  H11R 3174   2.124   2.118  33.791 -0.3562  0.3897  0.0261
   24SAPC  C212 3175   2.299   2.212  33.862  0.0163 -0.3473  0.2442
   24SAPC  H12R 3176   2.303   2.138  33.943  0.3277 -0.9131 -0.2833
   24SAPC  C213 3177   2.424   2.306  33.850  0.4247 -0.1707  0.5409
   24SAPC  H13R 3178   2.390   2.406  33.815 -2.2033 -0.8978  0.7579
   24SAPC  H13S 3179   2.502   2.260  33.786  3.2456  3.1895  1.2855
   24SAPC  C214 3180   2.486   2.320  33.985  1.0233  0.4835  0.2281
   24SAPC  H14R 3181   2.422   2.296  34.071 -0.8204 -0.5843 -1.3357
   24SAPC  C215 3182   2.614   2.353  33.998  0.0844  0.5225  0.3767
   24SAPC  H15R 3183   2.665   2.357  34.096  1.2131 -0.4033 -0.1601
   24SAPC  C216 3184   2.697   2.402  33.886  0.6182  0.1495 -0.4809
   24SAPC  H16R 3185   2.636   2.457  33.811  1.0062 -1.4673 -2.0452
   24SAPC  H16S 3186   2.721   2.306  33.836 -1.1582 -0.8301  0.4374
   24SAPC  C217 3187   2.820   2.493  33.932  0.5063 -0.0222 -0.3357
   24SAPC  H17R 3188   2.870   2.533  33.841 -0.9869  0.4694 -0.9757
   24SAPC  H17S 3189   2.902   2.437  33.981  0.8418  0.7682  0.0228
   24SAPC  C218 3190   2.775   2.613  34.019  0.8628 -0.2388 -0.1526
   24SAPC  H18R 3191   2.717   2.576  34.106 -0.7230  1.1916 -0.5381
   24SAPC  H18S 3192   2.695   2.657  33.957 -0.9101 -2.6577  0.2655
   24SAPC  C219 3193   2.884   2.711  34.065  0.0145  0.6735 -0.4899
   24SAPC  H19R 3194   2.942   2.746  33.978 -0.3060  0.5042 -0.7748
   24SAPC  H19S 3195   2.946   2.641  34.124 -1.4607  2.1559  3.1398
   24SAPC  C220 3196   2.841   2.817  34.166 -0.0307  0.1796 -0.4069
   24SAPC  H20R 3197   2.775   2.890  34.116 -0.2919  0.6768  0.6295
   24SAPC  H20S 3198   2.925   2.882  34.199 -0.8315  0.8012  0.4171
   24SAPC  H20T 3199   2.792   2.771  34.254  0.2267 -0.6744 -0.6917
   24SAPC   C33 3200   0.776   1.557  33.176  0.4205  0.1473  0.2590
   24SAPC   H3X 3201   0.853   1.527  33.101  0.8057 -2.4075  1.5604
   24SAPC   H3Y 3202   0.750   1.664  33.162  2.3932  0.4258 -1.9397
   24SAPC   C34 3203   0.646   1.477  33.160 -0.4730 -0.1458  0.0128
   24SAPC   H4X 3204   0.572   1.507  33.237  0.9685  0.7124  1.0986
   24SAPC   H4Y 3205   0.674   1.371  33.177  0.3897 -0.1350 -1.1749
   24SAPC   C35 3206   0.576   1.491  33.018  0.4585 -0.5253 -0.2897
   24SAPC   H5X 3207   0.658   1.462  32.949  1.9880  1.1949  0.7053
   24SAPC   H5Y 3208   0.563   1.601  33.009  0.6879 -0.4168  0.6420
   24SAPC   C36 3209   0.456   1.408  32.996 -0.0562  0.7642  0.9527
   24SAPC   H6X 3210   0.390   1.423  33.084  0.1822 -0.3533  1.3540
   24SAPC   H6Y 3211   0.483   1.300  32.984 -1.5512  0.4916 -0.3032
   24SAPC   C37 3212   0.386   1.470  32.873  0.1080  0.3370 -0.1556
   24SAPC   H7X 3213   0.435   1.458  32.774  2.2636 -2.1585  1.1186
   24SAPC   H7Y 3214   0.372   1.578  32.896 -1.3026  0.8335 -2.9237
   24SAPC   C38 3215   0.239   1.412  32.862  0.0854 -1.0472  0.0362
   24SAPC   H8X 3216   0.183   1.432  32.956 -0.2866  1.7664 -0.6896
   24SAPC   H8Y 3217   0.249   1.305  32.837  1.0113 -0.6146 -1.5959
   24SAPC   C39 3218   0.141   1.479  32.754  0.2867  0.0960 -0.0055
   24SAPC   H9X 3219   0.195   1.487  32.657  0.4935  0.4242  0.1341
   24SAPC   H9Y 3220   0.122   1.585  32.783  0.4010 -0.2521  1.4164
   24SAPC  C310 3221   0.003   1.415  32.750  0.1008  0.3563  0.1799
   24SAPC  H10X 3222  -0.056   1.462  32.831 -0.3201 -1.6915  1.1385
   24SAPC  H10Y 3223  -0.004   1.305  32.764  2.7096 -0.1221 -1.5857
   24SAPC  C311 3224  -0.057   1.445  32.605  0.0414 -1.0134 -0.1583
   24SAPC  H11X 3225  -0.166   1.430  32.613 -0.2955  1.2040  0.0813
   24SAPC  H11Y 3226  -0.020   1.367  32.536 -2.3626 -2.2991 -0.0981
   24SAPC  C312 3227  -0.030   1.589  32.552 -0.4758  0.2054  0.0175
   24SAPC  H12X 3228   0.076   1.602  32.521 -0.5896 -0.5073 -0.7087
   24SAPC  H12Y 3229  -0.052   1.656  32.637  0.3068  1.5472 -0.8040
   24SAPC  C313 3230  -0.143   1.618  32.445 -0.2021  0.1528  0.1600
   24SAPC  H13X 3231  -0.117   1.722  32.417  2.4540 -0.6032 -0.4788
   24SAPC  H13Y 3232  -0.248   1.611  32.481 -1.5877  2.0900 -3.0966
   24SAPC  C314 3233  -0.141   1.524  32.326 -0.4252 -0.8034  0.3124
   24SAPC  H14X 3234  -0.180   1.423  32.355 -0.7670 -1.0997 -1.1151
   24SAPC  H14Y 3235  -0.038   1.516  32.286 -0.7791 -3.3174 -0.2802
   24SAPC  C315 3236  -0.237   1.580  32.216  0.3438  0.2960 -0.2065
   24SAPC  H15X 3237  -0.202   1.684  32.207 -0.6872  0.6552 -0.2629
   24SAPC  H15Y 3238  -0.344   1.584  32.248  0.2182  1.3089 -0.7121
   24SAPC  C316 3239  -0.234   1.510  32.084 -0.0967  0.7311  0.0191
   24SAPC  H16X 3240  -0.290   1.414  32.095  2.2266 -0.6123  0.8606
   24SAPC  H16Y 3241  -0.133   1.477  32.052 -0.7270 -3.2003  1.5082
   24SAPC  C317 3242  -0.282   1.599  31.969 -0.1887  0.5508  0.5758
   24SAPC  H17X 3243  -0.201   1.672  31.947  0.3998 -0.3740 -0.4221
   24SAPC  H17Y 3244  -0.372   1.662  31.986  0.6873  2.1447 -0.3925
   24SAPC  C318 3245  -0.301   1.520  31.842 -0.7679 -0.4981 -0.3062
   24SAPC  H18X 3246  -0.326   1.575  31.749 -0.2514  2.8014  1.3533
   24SAPC  H18Y 3247  -0.370   1.433  31.846 -0.8831 -0.4055 -0.2756
   24SAPC  H18Z 3248  -0.199   1.493  31.806 -0.3752 -1.1420  1.2052
   25SAPC     N 3249   2.297   3.395  26.019  0.6363 -0.3461 -0.2989
   25SAPC   C12 3250   2.199   3.276  26.006 -0.4873 -1.1027 -0.7366
   25SAPC  H12A 3251   2.197   3.217  26.096  1.8780  0.1621  0.2346
   25SAPC  H12B 3252   2.252   3.209  25.941  0.8599  0.1367 -0.9671
   25SAPC   C13 3253   2.233   3.492  26.117  0.0694 -1.0752 -0.8167
   25SAPC  H13A 3254   2.137   3.528  26.082  1.9728  2.0438 -3.3451
   25SAPC  H13B 3255   2.207   3.445  26.211 -2.2629  0.8446 -0.3948
   25SAPC  H13C 3256   2.287   3.584  26.134 -2.3793  0.1633  0.8730
   25SAPC   C14 3257   2.424   3.345  26.071 -0.0873 -0.7624 -0.3963
   25SAPC  H14A 3258   2.478   3.431  26.109  1.0085 -2.4431  2.1245
   25SAPC  H14B 3259   2.400   3.276  26.151 -3.3198 -1.3774 -1.7544
   25SAPC  H14C 3260   2.479   3.300  25.990  0.7390  1.4386 -1.1492
   25SAPC   C15 3261   2.323   3.468  25.898 -0.0855  1.0261  0.6595
   25SAPC  H15A 3262   2.232   3.504  25.852  0.6783  0.0815 -1.7333
   25SAPC  H15B 3263   2.384   3.554  25.920 -1.0210  1.9642 -0.2902
   25SAPC  H15C 3264   2.364   3.398  25.827 -1.9945  1.0792 -0.5637
   25SAPC   C11 3265   2.055   3.306  25.980 -0.1796  0.5898 -0.1378
   25SAPC  H11A 3266   2.005   3.209  25.957  3.2414 -1.0485 -1.2890
   25SAPC  H11B 3267   2.047   3.365  25.886  1.5974  0.2116 -0.5674
   25SAPC     P 3268   1.945   3.299  26.228  0.1177 -0.1145  0.1673
   25SAPC   O13 3269   1.909   3.156  26.200  0.2529 -0.2765  0.1061
   25SAPC   O14 3270   2.062   3.321  26.316 -0.0143  0.1890 -0.2801
   25SAPC   O12 3271   1.981   3.368  26.089 -0.1689 -0.4023 -0.7338
   25SAPC   O11 3272   1.822   3.387  26.278 -0.1809 -0.0559  0.5614
   25SAPC    C1 3273   1.693   3.327  26.285  0.7733  0.1731  0.0547
   25SAPC    HA 3274   1.693   3.237  26.352 -1.4483  0.8488  1.0327
   25SAPC    HB 3275   1.630   3.398  26.341 -1.0195 -0.9189 -0.5013
   25SAPC    C2 3276   1.628   3.286  26.147 -0.1766 -0.4787  0.1305
   25SAPC    HS 3277   1.649   3.178  26.136  0.8608 -0.4089  1.1788
   25SAPC   O21 3278   1.675   3.366  26.036 -0.4720  0.1286  0.0841
   25SAPC   C21 3279   1.720   3.304  25.935  0.7465 -0.1122  0.2051
   25SAPC   O22 3280   1.723   3.183  25.918  0.1695 -0.3249 -0.0549
   25SAPC   C22 3281   1.766   3.409  25.830 -0.0061 -0.4791 -0.0067
   25SAPC   H2R 3282   1.695   3.495  25.834  0.5712  0.1239 -1.9619
   25SAPC   H2S 3283   1.865   3.453  25.857 -0.4362  0.9446 -0.6105
   25SAPC    C3 3284   1.473   3.312  26.166 -0.7930 -0.7529  0.0210
   25SAPC    HX 3285   1.456   3.421  26.155 -2.1859 -0.7112  1.9968
   25SAPC    HY 3286   1.438   3.291  26.270  1.3035 -0.0935  0.9182
   25SAPC   O31 3287   1.405   3.233  26.072  0.2525  0.1967  0.2152
   25SAPC   C31 3288   1.387   3.110  26.099 -0.2266  0.8276 -0.6246
   25SAPC   O32 3289   1.429   3.050  26.201  0.0258 -0.4533  0.1272
   25SAPC   C32 3290   1.279   3.047  26.005 -0.4363  0.0102  0.1694
   25SAPC   H2X 3291   1.214   3.129  25.968 -1.8636 -1.1361  0.0418
   25SAPC   H2Y 3292   1.215   2.979  26.065 -0.1767  0.7683  1.3307
   25SAPC   C23 3293   1.783   3.359  25.687  0.3110 -0.2871 -0.0858
   25SAPC   H3R 3294   1.864   3.283  25.686 -0.2672 -1.0556  2.8417
   25SAPC   H3S 3295   1.810   3.448  25.625 -0.7495  2.0274  2.5405
   25SAPC   C24 3296   1.653   3.295  25.634 -0.5884 -0.0899  0.7773
   25SAPC   H4R 3297   1.564   3.359  25.653 -2.0080 -1.5473 -0.6942
   25SAPC   H4S 3298   1.643   3.190  25.668  2.3673 -1.1168 -1.1090
   25SAPC   C25 3299   1.675   3.279  25.483  0.2005 -0.7169  0.5058
   25SAPC   H5R 3300   1.771   3.236  25.452  2.1129  2.3604  1.6357
   25SAPC   C26 3301   1.581   3.307  25.390  0.1423  0.9950  0.2933
   25SAPC   H6R 3302   1.610   3.294  25.285 -1.0343 -0.4767  0.1251
   25SAPC   C27 3303   1.433   3.346  25.416  0.2075  0.3841  0.2914
   25SAPC   H7R 3304   1.382   3.290  25.497 -1.2112 -0.8824 -1.4056
   25SAPC   H7S 3305   1.381   3.326  25.320 -0.1489  0.0926  0.5395
   25SAPC   C28 3306   1.431   3.501  25.443  0.3244 -0.1651 -0.6865
   25SAPC   H8R 3307   1.523   3.552  25.477  1.0260 -2.3281  0.8454
   25SAPC   C29 3308   1.311   3.560  25.442 -0.1598  0.1914  0.5148
   25SAPC   H9R 3309   1.313   3.670  25.435  0.5922  0.0808 -2.4801
   25SAPC  C210 3310   1.177   3.498  25.414  0.2819 -0.9970 -0.0694
   25SAPC  H10R 3311   1.153   3.420  25.489  0.2530 -0.4589  0.4905
   25SAPC  H10S 3312   1.190   3.439  25.321  3.3444 -0.4338 -0.1242
   25SAPC  C211 3313   1.073   3.606  25.415 -0.0308 -0.2489  1.1959
   25SAPC  H11R 3314   1.092   3.696  25.355 -3.0784 -0.7519 -0.7612
   25SAPC  C212 3315   0.951   3.586  25.462 -0.2702 -0.5951  0.2309
   25SAPC  H12R 3316   0.885   3.674  25.465 -0.2647 -0.4776 -1.6702
   25SAPC  C213 3317   0.899   3.475  25.544 -0.1984  0.5892 -0.8692
   25SAPC  H13R 3318   0.884   3.520  25.644  0.1887  1.5616 -1.2353
   25SAPC  H13S 3319   0.965   3.388  25.559 -1.5616 -0.4956 -0.9590
   25SAPC  C214 3320   0.768   3.417  25.490 -0.2514  1.1008  0.2214
   25SAPC  H14R 3321   0.788   3.369  25.393  0.0193 -0.0685  0.8366
   25SAPC  C215 3322   0.649   3.413  25.552 -0.1536  0.4643  0.0230
   25SAPC  H15R 3323   0.571   3.361  25.494  0.2779 -3.3283  2.4852
   25SAPC  C216 3324   0.611   3.465  25.682  0.5327 -0.3460 -0.6410
   25SAPC  H16R 3325   0.626   3.574  25.673 -1.8271  0.1355  0.6498
   25SAPC  H16S 3326   0.686   3.424  25.753  0.7922 -0.1866 -0.8211
   25SAPC  C217 3327   0.474   3.450  25.749 -0.2163 -0.1657 -0.3570
   25SAPC  H17R 3328   0.398   3.495  25.680 -0.7759  0.4416  0.6371
   25SAPC  H17S 3329   0.471   3.496  25.850 -1.5685  2.1744 -1.3790
   25SAPC  C218 3330   0.440   3.303  25.772 -0.0006 -0.0364 -0.3574
   25SAPC  H18R 3331   0.510   3.265  25.850  0.7161  0.9730 -0.4958
   25SAPC  H18S 3332   0.479   3.256  25.680 -0.9406 -1.4950 -0.0443
   25SAPC  C219 3333   0.290   3.274  25.765  0.1299  0.5543 -0.6533
   25SAPC  H19R 3334   0.225   3.328  25.837  1.5080 -0.2179  1.2234
   25SAPC  H19S 3335   0.283   3.168  25.796  1.0843  0.4114 -0.8934
   25SAPC  C220 3336   0.227   3.273  25.631  0.3931  0.4827  0.1611
   25SAPC  H20R 3337   0.258   3.183  25.573 -2.2546  0.1107 -0.8364
   25SAPC  H20S 3338   0.259   3.360  25.569  0.2833 -0.4736 -1.2892
   25SAPC  H20T 3339   0.116   3.268  25.630  0.3630  0.0534 -2.3466
   25SAPC   C33 3340   1.339   2.970  25.881  0.2550 -0.4760  0.9537
   25SAPC   H3X 3341   1.250   2.929  25.830  1.3388 -0.8184 -0.7618
   25SAPC   H3Y 3342   1.392   2.879  25.917 -1.5051 -2.7052 -1.6958
   25SAPC   C34 3343   1.413   3.062  25.779 -0.1710 -0.4296  0.2633
   25SAPC   H4X 3344   1.517   3.084  25.811 -0.3221  2.4554 -0.9159
   25SAPC   H4Y 3345   1.361   3.160  25.777  0.4464 -0.1057 -0.1235
   25SAPC   C35 3346   1.421   2.995  25.648  0.2441 -0.0817 -0.5321
   25SAPC   H5X 3347   1.464   2.892  25.654 -0.2195 -0.2379  0.2585
   25SAPC   H5Y 3348   1.481   3.061  25.582  0.2431  1.1197  0.6160
   25SAPC   C36 3349   1.288   2.979  25.581 -0.4964  0.1851  0.7463
   25SAPC   H6X 3350   1.239   3.077  25.602 -0.9766  0.2711 -0.6745
   25SAPC   H6Y 3351   1.232   2.895  25.629  0.1605 -1.9099 -1.9434
   25SAPC   C37 3352   1.296   2.953  25.429  0.5196  0.6095 -0.8933
   25SAPC   H7X 3353   1.356   2.861  25.412  2.8207  1.9955 -0.7192
   25SAPC   H7Y 3354   1.353   3.033  25.376  2.1265 -0.3657 -0.7056
   25SAPC   C38 3355   1.160   2.931  25.359  0.2327 -0.3129 -0.1935
   25SAPC   H8X 3356   1.101   2.848  25.403 -0.4788 -0.4691 -1.3776
   25SAPC   H8Y 3357   1.183   2.898  25.255  1.5143  1.5853 -0.5628
   25SAPC   C39 3358   1.075   3.061  25.377  0.8175 -0.1562 -0.3309
   25SAPC   H9X 3359   1.143   3.145  25.352 -0.0116  1.4052  2.1978
   25SAPC   H9Y 3360   1.038   3.084  25.480  1.2342 -1.2992  0.0970
   25SAPC  C310 3361   0.957   3.071  25.290  0.7645 -0.5165  0.5469
   25SAPC  H10X 3362   0.996   3.064  25.186  2.8397  1.0651  1.1490
   25SAPC  H10Y 3363   0.915   3.174  25.297  1.7022 -0.0974  0.1615
   25SAPC  C311 3364   0.852   2.957  25.296  0.5682 -0.5049  0.1326
   25SAPC  H11X 3365   0.759   3.016  25.316  0.3822 -0.1996 -1.4539
   25SAPC  H11Y 3366   0.875   2.875  25.366 -0.0758 -3.2030 -2.6029
   25SAPC  C312 3367   0.832   2.891  25.159 -0.4649  0.1244  0.6410
   25SAPC  H12X 3368   0.925   2.844  25.122  0.5722  1.5903  1.2963
   25SAPC  H12Y 3369   0.800   2.965  25.083 -0.9734  1.0404  1.7229
   25SAPC  C313 3370   0.732   2.783  25.174 -0.4198  0.1433  0.2813
   25SAPC  H13X 3371   0.645   2.839  25.215  0.8262  0.5626  2.5336
   25SAPC  H13Y 3372   0.781   2.715  25.247  4.0778  3.0119  0.2657
   25SAPC  C314 3373   0.700   2.700  25.049 -0.3637  0.1271 -0.3572
   25SAPC  H14X 3374   0.801   2.661  25.025  0.9320  2.1983  1.2983
   25SAPC  H14Y 3375   0.653   2.750  24.962  2.6757  3.1909 -0.4376
   25SAPC  C315 3376   0.604   2.592  25.084 -0.7614  0.4284 -0.4203
   25SAPC  H15X 3377   0.504   2.628  25.116 -1.6454 -1.5983 -0.7323
   25SAPC  H15Y 3378   0.653   2.529  25.161  0.2273  1.0570 -0.5135
   25SAPC  C316 3379   0.583   2.495  24.963 -0.4589 -0.0615 -0.5432
   25SAPC  H16X 3380   0.682   2.448  24.948 -0.5362 -2.4930  4.5011
   25SAPC  H16Y 3381   0.546   2.557  24.879 -1.8563  0.6331  0.5436
   25SAPC  C317 3382   0.478   2.381  25.006 -0.1572 -0.1134  0.4331
   25SAPC  H17X 3383   0.384   2.436  25.028  0.3576  1.0529 -0.1743
   25SAPC  H17Y 3384   0.520   2.336  25.099 -2.5360 -0.6078  1.3514
   25SAPC  C318 3385   0.454   2.273  24.901  0.0093  0.1217  0.9446
   25SAPC  H18X 3386   0.555   2.230  24.883  0.6133  1.3778  1.2238
   25SAPC  H18Y 3387   0.413   2.321  24.809  1.6739  2.0091  1.1183
   25SAPC  H18Z 3388   0.381   2.195  24.933 -2.3354  0.3890 -3.1099
   26SAPC     N 3389   0.062   0.586  29.602 -0.1513 -0.0717 -0.1001
   26SAPC   C12 3390  -0.008   0.600  29.743 -0.8251  0.3329  1.1367
   26SAPC  H12A 3391  -0.095   0.539  29.723  1.9241 -3.4233 -0.5275
   26SAPC  H12B 3392  -0.040   0.702  29.757 -3.1822 -0.2844  0.6560
   26SAPC   C13 3393   0.199   0.647  29.606  0.0462 -0.0375  0.6597
   26SAPC  H13A 3394   0.190   0.744  29.652  1.2183  0.2973  0.2048
   26SAPC  H13B 3395   0.276   0.595  29.661  1.1878 -0.2787 -1.0889
   26SAPC  H13C 3396   0.238   0.661  29.507 -1.4394 -1.8083 -0.2399
   26SAPC   C14 3397   0.079   0.443  29.563  0.7385  0.2864  0.5158
   26SAPC  H14A 3398   0.137   0.398  29.642  1.5854 -0.3203 -0.4215
   26SAPC  H14B 3399  -0.013   0.386  29.570  0.3849  0.8955  0.9263
   26SAPC  H14C 3400   0.131   0.421  29.471 -0.8934 -0.8411 -0.1982
   26SAPC   C15 3401  -0.030   0.653  29.498  0.8200 -0.0373 -0.2896
   26SAPC  H15A 3402   0.012   0.643  29.400  5.1268 -0.0254  1.3531
   26SAPC  H15B 3403  -0.128   0.606  29.497  1.1701 -0.9387  1.8619
   26SAPC  H15C 3404  -0.053   0.758  29.511  0.4786  0.4109 -3.6769
   26SAPC   C11 3405   0.058   0.543  29.870 -0.1868 -0.1931  0.2195
   26SAPC  H11A 3406  -0.002   0.570  29.960  0.9628  1.5921  0.5181
   26SAPC  H11B 3407   0.157   0.594  29.872  0.1352 -0.8168  0.2495
   26SAPC     P 3408   0.136   0.310  29.956  0.4614  0.0924  0.1966
   26SAPC   O13 3409   0.095   0.347  30.091 -0.5351  0.1359  0.5995
   26SAPC   O14 3410   0.107   0.176  29.909  0.1816  0.3764  0.2225
   26SAPC   O12 3411   0.068   0.400  29.852  0.5247 -0.7036 -0.3279
   26SAPC   O11 3412   0.288   0.343  29.940 -0.0456  0.4059  0.5095
   26SAPC    C1 3413   0.354   0.457  29.998  0.5622 -0.3071 -0.0897
   26SAPC    HA 3414   0.348   0.533  29.917 -2.5650  0.8782  1.0962
   26SAPC    HB 3415   0.307   0.494  30.091  0.2191  0.6515 -0.6285
   26SAPC    C2 3416   0.506   0.427  30.029 -0.0911  0.5564 -0.5782
   26SAPC    HS 3417   0.565   0.520  30.044 -0.4414  0.4915  1.4813
   26SAPC   O21 3418   0.577   0.369  29.921  0.0382  0.0970 -0.1169
   26SAPC   C21 3419   0.613   0.450  29.815  0.9579  0.3266  0.0712
   26SAPC   O22 3420   0.569   0.569  29.803 -0.3135  0.3053 -0.5870
   26SAPC   C22 3421   0.689   0.374  29.705  0.4367 -0.1988  0.2861
   26SAPC   H2R 3422   0.617   0.304  29.658 -1.0935  2.1620 -1.1050
   26SAPC   H2S 3423   0.704   0.455  29.631 -0.3700  1.1065  1.4836
   26SAPC    C3 3424   0.518   0.328  30.160  0.3991 -0.7210  0.3069
   26SAPC    HX 3425   0.466   0.233  30.139 -0.1338 -0.1275 -1.2361
   26SAPC    HY 3426   0.471   0.379  30.247  1.8307  0.0762  0.6495
   26SAPC   O31 3427   0.656   0.305  30.180  0.3355 -0.1972 -0.1311
   26SAPC   C31 3428   0.725   0.389  30.251 -0.4787  1.3396  1.0707
   26SAPC   O32 3429   0.678   0.480  30.311  0.1107 -0.2953  0.1196
   26SAPC   C32 3430   0.871   0.336  30.262 -0.7164  0.0367  0.2649
   26SAPC   H2X 3431   0.876   0.250  30.191  2.2882  0.9782 -0.7808
   26SAPC   H2Y 3432   0.875   0.297  30.365  1.1255  2.3019  1.1268
   26SAPC   C23 3433   0.813   0.298  29.748  0.1249  0.3202  0.3030
   26SAPC   H3R 3434   0.854   0.249  29.657  2.4539  1.7917  0.4777
   26SAPC   H3S 3435   0.775   0.221  29.818 -0.6050 -0.1963 -0.6353
   26SAPC   C24 3436   0.928   0.383  29.807  0.2369  0.7137 -0.0760
   26SAPC   H4R 3437   1.022   0.323  29.808  0.3859  0.9430 -0.3368
   26SAPC   H4S 3438   0.918   0.405  29.916  0.1663 -2.6391  0.6928
   26SAPC   C25 3439   0.955   0.506  29.735 -0.2677  0.5312  0.1872
   26SAPC   H5R 3440   0.958   0.490  29.626 -1.3417 -0.2718  0.2619
   26SAPC   C26 3441   0.965   0.636  29.781  0.5102  0.7337 -0.2452
   26SAPC   H6R 3442   0.997   0.712  29.709  3.1055 -0.8555 -0.8717
   26SAPC   C27 3443   0.981   0.672  29.928  0.6593 -0.4425  0.9672
   26SAPC   H7R 3444   1.044   0.763  29.938 -0.3351  0.5449 -1.1679
   26SAPC   H7S 3445   1.036   0.589  29.977 -0.9050 -0.6150  2.5639
   26SAPC   C28 3446   0.848   0.681  29.994 -0.3605 -0.2165 -0.5694
   26SAPC   H8R 3447   0.765   0.628  29.945 -0.6866 -0.4538  0.2223
   26SAPC   C29 3448   0.816   0.758  30.101 -0.1606  1.0400 -0.2921
   26SAPC   H9R 3449   0.715   0.748  30.144  0.0664  1.3572  0.3305
   26SAPC  C210 3450   0.902   0.857  30.181 -0.0599 -0.1304  0.1102
   26SAPC  H10R 3451   0.862   0.959  30.165  1.9411  0.9793  1.7500
   26SAPC  H10S 3452   0.999   0.865  30.127 -0.0342  0.9926  0.2961
   26SAPC  C211 3453   0.914   0.844  30.327  0.2463  1.0937 -0.1210
   26SAPC  H11R 3454   0.827   0.889  30.376 -1.9862 -1.1334 -1.7788
   26SAPC  C212 3455   1.019   0.814  30.406  0.0658  0.0121  0.2940
   26SAPC  H12R 3456   1.002   0.823  30.515  1.2045  0.2075  0.4698
   26SAPC  C213 3457   1.157   0.754  30.365  0.1733  0.1099  0.7393
   26SAPC  H13R 3458   1.163   0.722  30.258  3.2371  0.9493  0.5700
   26SAPC  H13S 3459   1.183   0.672  30.434  1.2377  0.1885  0.4445
   26SAPC  C214 3460   1.252   0.863  30.390  0.1663  0.1145  0.3621
   26SAPC  H14R 3461   1.204   0.962  30.401 -0.0943  0.3592 -2.3146
   26SAPC  C215 3462   1.388   0.847  30.384  0.6969  0.3363 -0.2365
   26SAPC  H15R 3463   1.464   0.917  30.422  0.7756 -0.2175  0.6426
   26SAPC  C216 3464   1.456   0.708  30.363 -1.2344  0.3949 -0.4143
   26SAPC  H16R 3465   1.390   0.620  30.378 -0.5975 -0.1878 -0.9351
   26SAPC  H16S 3466   1.529   0.694  30.445 -3.0294 -0.5148  1.1080
   26SAPC  C217 3467   1.529   0.687  30.229  0.2353 -0.5814  0.2870
   26SAPC  H17R 3468   1.581   0.589  30.233 -2.3405 -2.1698 -2.0010
   26SAPC  H17S 3469   1.600   0.769  30.203  0.0954  1.4850  5.3207
   26SAPC  C218 3470   1.429   0.657  30.112  0.2084 -0.0915  0.2531
   26SAPC  H18R 3471   1.354   0.740  30.109  0.6231  0.2695 -0.4600
   26SAPC  H18S 3472   1.369   0.574  30.155 -0.6789  0.1352 -0.5147
   26SAPC  C219 3473   1.511   0.613  29.983 -0.7984 -0.6812 -0.4200
   26SAPC  H19R 3474   1.585   0.534  30.009 -2.5863 -2.1347  0.4627
   26SAPC  H19S 3475   1.561   0.702  29.939 -0.8582  1.3463  3.1317
   26SAPC  C220 3476   1.414   0.558  29.880  0.1861 -0.2318  0.1059
   26SAPC  H20R 3477   1.474   0.536  29.790  1.6443  2.1655  0.4142
   26SAPC  H20S 3478   1.340   0.635  29.849  1.2742  1.0576  0.6155
   26SAPC  H20T 3479   1.349   0.474  29.913 -1.7203 -0.0570 -2.8044
   26SAPC   C33 3480   0.985   0.434  30.231  0.5534  0.1699 -0.2820
   26SAPC   H3X 3481   1.000   0.500  30.319 -1.8818 -0.1551  0.4673
   26SAPC   H3Y 3482   0.935   0.501  30.157  0.2313  0.4694  0.2025
   26SAPC   C34 3483   1.126   0.382  30.178  1.0788 -0.2532  0.6144
   26SAPC   H4X 3484   1.181   0.469  30.137  1.6389  0.7837  3.3944
   26SAPC   H4Y 3485   1.114   0.300  30.104  3.1194 -0.3408  0.3366
   26SAPC   C35 3486   1.212   0.319  30.279 -0.0233 -0.3325  0.3722
   26SAPC   H5X 3487   1.162   0.247  30.346  0.0443 -1.3103 -0.6091
   26SAPC   H5Y 3488   1.259   0.398  30.341  1.3165 -0.9401  0.1542
   26SAPC   C36 3489   1.327   0.240  30.221  0.2411  0.6782 -0.4990
   26SAPC   H6X 3490   1.376   0.297  30.139  2.9005  0.4749  0.8574
   26SAPC   H6Y 3491   1.280   0.148  30.179 -0.3663  0.4812  0.5719
   26SAPC   C37 3492   1.420   0.189  30.336 -0.0297  0.0382  0.5116
   26SAPC   H7X 3493   1.356   0.153  30.419 -0.0934  1.3462  1.0640
   26SAPC   H7Y 3494   1.485   0.267  30.382 -0.0478 -0.3172  1.1575
   26SAPC   C38 3495   1.512   0.073  30.282  0.2214 -0.1051  0.3359
   26SAPC   H8X 3496   1.572   0.122  30.203 -0.5941 -0.2711 -0.4008
   26SAPC   H8Y 3497   1.447  -0.008  30.244 -1.9272  2.2589 -1.3480
   26SAPC   C39 3498   1.611   0.011  30.387 -0.6893 -0.1364 -0.2423
   26SAPC   H9X 3499   1.664   0.102  30.422  0.8706 -0.9093 -0.5241
   26SAPC   H9Y 3500   1.684  -0.049  30.328  0.2307 -1.6258  2.2349
   26SAPC  C310 3501   1.547  -0.082  30.491  0.5894  0.5206 -0.9110
   26SAPC  H10X 3502   1.488  -0.162  30.441  1.1047  0.6608 -1.7579
   26SAPC  H10Y 3503   1.484  -0.032  30.569 -0.8232 -2.0113 -0.3185
   26SAPC  C311 3504   1.657  -0.162  30.571  0.0151 -0.2947  0.3630
   26SAPC  H11X 3505   1.631  -0.143  30.677 -1.9273  1.1255 -0.3114
   26SAPC  H11Y 3506   1.755  -0.114  30.556 -0.4896  1.4680  2.3289
   26SAPC  C312 3507   1.674  -0.314  30.530  0.6924  0.6260  0.5600
   26SAPC  H12X 3508   1.766  -0.368  30.559 -0.1413 -1.1572  0.0120
   26SAPC  H12Y 3509   1.666  -0.322  30.419  1.0256  0.8512  0.5163
   26SAPC  C313 3510   1.564  -0.396  30.602  0.5446  0.1410 -0.3056
   26SAPC  H13X 3511   1.468  -0.367  30.554  0.7193  2.0115  0.3685
   26SAPC  H13Y 3512   1.547  -0.364  30.707  0.8073 -0.7462  0.0132
   26SAPC  C314 3513   1.578  -0.538  30.594 -0.4683 -0.5412  0.1663
   26SAPC  H14X 3514   1.673  -0.560  30.648 -0.8973  0.4878  1.3768
   26SAPC  H14Y 3515   1.591  -0.574  30.489  2.2478  0.1719  0.1937
   26SAPC  C315 3516   1.486  -0.628  30.677 -0.2259 -0.1555 -0.3209
   26SAPC  H15X 3517   1.379  -0.629  30.649 -1.2678 -4.9207  2.6512
   26SAPC  H15Y 3518   1.498  -0.608  30.786  2.5957 -0.9384 -0.4012
   26SAPC  C316 3519   1.540  -0.776  30.662  0.1858  0.8364 -0.7784
   26SAPC  H16X 3520   1.648  -0.768  30.688 -0.8748  2.1032  4.2058
   26SAPC  H16Y 3521   1.525  -0.819  30.560  2.1114 -0.4116 -0.5997
   26SAPC  C317 3522   1.474  -0.879  30.757  0.1215  0.3333 -0.4244
   26SAPC  H17X 3523   1.448  -0.826  30.851  0.2613  0.3865 -0.4146
   26SAPC  H17Y 3524   1.551  -0.949  30.795 -2.4158 -0.6935  3.3387
   26SAPC  C318 3525   1.358  -0.951  30.711  0.3549  0.1297  0.3284
   26SAPC  H18X 3526   1.274  -0.883  30.688  1.7308  1.6833 -0.2292
   26SAPC  H18Y 3527   1.318  -1.021  30.788 -1.2789 -1.9287 -2.2375
   26SAPC  H18Z 3528   1.375  -1.007  30.617 -1.3394 -0.8483  0.5596
   27SAPC     N 3529   3.004   0.978  28.167  0.3069  0.3019  0.4145
   27SAPC   C12 3530   2.948   0.946  28.033  0.1625  0.0082  0.4425
   27SAPC  H12A 3531   3.026   0.933  27.959 -0.5521 -0.9894 -0.1678
   27SAPC  H12B 3532   2.886   1.027  27.998 -1.2622 -2.1280 -2.4129
   27SAPC   C13 3533   3.047   0.856  28.250 -0.1356 -0.5191 -0.3718
   27SAPC  H13A 3534   2.956   0.807  28.281 -0.2142  1.8511  3.8896
   27SAPC  H13B 3535   3.105   0.779  28.201  0.8870  1.1377 -1.8879
   27SAPC  H13C 3536   3.091   0.881  28.346  0.0389  1.0239 -0.8178
   27SAPC   C14 3537   3.124   1.067  28.157  0.2889 -0.2607 -0.9376
   27SAPC  H14A 3538   3.166   1.096  28.252 -2.3194  0.2363  0.1664
   27SAPC  H14B 3539   3.204   1.032  28.094 -0.1643 -0.8743 -1.1805
   27SAPC  H14C 3540   3.102   1.165  28.117  0.9481 -0.4069 -1.6799
   27SAPC   C15 3541   2.918   1.051  28.265  0.5533  0.0651  0.3128
   27SAPC  H15A 3542   2.832   0.988  28.287 -0.1939 -0.3268 -3.1173
   27SAPC  H15B 3543   2.972   1.084  28.353  2.0062  0.0936 -0.5568
   27SAPC  H15C 3544   2.884   1.141  28.216  2.5233  0.9555  0.4905
   27SAPC   C11 3545   2.861   0.819  28.016  0.8930 -0.4217 -0.2386
   27SAPC  H11A 3546   2.922   0.735  28.057  1.8877  0.3437 -0.1135
   27SAPC  H11B 3547   2.826   0.803  27.912 -2.9607 -1.0068  1.0075
   27SAPC     P 3548   2.625   0.929  28.043  0.4104  0.1977 -0.4654
   27SAPC   O13 3549   2.691   1.039  27.964 -0.5889  0.1196 -0.2370
   27SAPC   O14 3550   2.520   0.854  27.966  0.3561  0.0499 -0.4696
   27SAPC   O12 3551   2.734   0.824  28.086 -0.6557 -0.1538  0.2541
   27SAPC   O11 3552   2.569   0.985  28.183 -0.2623 -0.5387  0.2169
   27SAPC    C1 3553   2.570   0.926  28.305 -0.1651 -0.0499  0.0609
   27SAPC    HA 3554   2.671   0.882  28.318  0.0908 -0.3374 -2.3058
   27SAPC    HB 3555   2.553   0.999  28.386  0.7763  0.9294 -0.5896
   27SAPC    C2 3556   2.478   0.805  28.318  0.4189 -0.0911 -0.1198
   27SAPC    HS 3557   2.522   0.709  28.284  2.3328  0.3633  0.9495
   27SAPC   O21 3558   2.355   0.835  28.248  0.2444 -0.2378  0.1761
   27SAPC   C21 3559   2.281   0.728  28.215  0.2022  0.0710 -0.0444
   27SAPC   O22 3560   2.313   0.611  28.238 -0.4646  0.3345 -0.2915
   27SAPC   C22 3561   2.161   0.762  28.132  0.3542  0.4272 -0.6858
   27SAPC   H2R 3562   2.080   0.820  28.183 -1.1839 -0.9330 -1.4907
   27SAPC   H2S 3563   2.196   0.807  28.037  1.8430  0.2682 -0.2426
   27SAPC    C3 3564   2.429   0.777  28.465  0.4235 -0.6932 -0.3226
   27SAPC    HX 3565   2.517   0.733  28.516  0.2019  0.1942  0.8690
   27SAPC    HY 3566   2.340   0.710  28.467 -1.4032  1.5619 -1.5285
   27SAPC   O31 3567   2.383   0.903  28.530  0.5764 -0.2297 -0.4286
   27SAPC   C31 3568   2.448   0.939  28.641  0.7701  0.5837 -0.1084
   27SAPC   O32 3569   2.532   0.876  28.700  0.0294  0.0821  0.3964
   27SAPC   C32 3570   2.416   1.084  28.668  0.1419 -0.4631  0.9578
   27SAPC   H2X 3571   2.440   1.139  28.575 -2.1481  1.3029  1.3397
   27SAPC   H2Y 3572   2.477   1.128  28.750 -1.4865  1.3703  1.2536
   27SAPC   C23 3573   2.079   0.633  28.078 -0.0062 -0.5661 -0.3052
   27SAPC   H3R 3574   2.160   0.566  28.042 -0.1814  0.3326 -2.5830
   27SAPC   H3S 3575   2.030   0.669  27.985 -0.1323 -0.2372 -0.1115
   27SAPC   C24 3576   1.975   0.580  28.175  0.0906  0.5834  0.4327
   27SAPC   H4R 3577   1.921   0.666  28.221  0.0156 -0.3114  2.1162
   27SAPC   H4S 3578   2.023   0.531  28.263 -2.9872 -3.8156 -0.0131
   27SAPC   C25 3579   1.888   0.471  28.116  0.1148  0.1171 -0.4389
   27SAPC   H5R 3580   1.914   0.445  28.012 -1.6085  0.0533 -0.8814
   27SAPC   C26 3581   1.770   0.433  28.168 -1.3189  0.7506 -0.0078
   27SAPC   H6R 3582   1.710   0.372  28.098 -0.1136  1.7866 -2.0175
   27SAPC   C27 3583   1.717   0.466  28.301  0.6876 -0.2256 -0.0542
   27SAPC   H7R 3584   1.609   0.443  28.292  0.8141 -0.1957 -2.1460
   27SAPC   H7S 3585   1.725   0.576  28.316 -2.1374  0.3727 -2.2243
   27SAPC   C28 3586   1.777   0.394  28.418  0.2578 -0.2870 -0.2492
   27SAPC   H8R 3587   1.887   0.384  28.423  0.4824  1.7643 -0.1622
   27SAPC   C29 3588   1.709   0.339  28.518 -0.2664 -0.4037 -0.0734
   27SAPC   H9R 3589   1.762   0.298  28.606 -0.1019  0.2280  0.1283
   27SAPC  C210 3590   1.563   0.341  28.549  0.4029 -0.6295  0.0856
   27SAPC  H10R 3591   1.498   0.337  28.459 -0.8617  0.3267  0.9142
   27SAPC  H10S 3592   1.528   0.437  28.593 -0.5805 -0.1449 -1.6723
   27SAPC  C211 3593   1.530   0.220  28.631  0.0339  0.4282  0.2361
   27SAPC  H11R 3594   1.574   0.123  28.603  1.8948  1.5575 -1.0001
   27SAPC  C212 3595   1.426   0.219  28.719  0.3457  0.2197  0.6492
   27SAPC  H12R 3596   1.399   0.124  28.768 -1.0470 -0.3897 -1.1947
   27SAPC  C213 3597   1.343   0.334  28.766 -0.2514 -0.2097  0.0305
   27SAPC  H13R 3598   1.264   0.347  28.688  0.6608  1.4964 -0.6784
   27SAPC  H13S 3599   1.388   0.435  28.755  1.7394 -0.8982  1.3280
   27SAPC  C214 3600   1.284   0.322  28.903 -0.3625 -0.0584  0.5719
   27SAPC  H14R 3601   1.356   0.302  28.984  0.9389  0.2157 -0.4829
   27SAPC  C215 3602   1.150   0.322  28.934 -0.8472 -0.2237 -0.2561
   27SAPC  H15R 3603   1.117   0.309  29.038 -0.6660  0.0851 -0.1591
   27SAPC  C216 3604   1.045   0.352  28.836  0.1256 -0.7474 -0.4639
   27SAPC  H16R 3605   0.968   0.272  28.844 -0.2923 -0.2052  1.4563
   27SAPC  H16S 3606   1.075   0.362  28.730 -1.9523  0.6543 -0.9739
   27SAPC  C217 3607   0.969   0.488  28.871  0.0252  0.2449  0.1854
   27SAPC  H17R 3608   0.898   0.517  28.791 -0.5895 -0.5021  0.4416
   27SAPC  H17S 3609   1.040   0.573  28.879 -1.0402  1.5290 -2.6011
   27SAPC  C218 3610   0.889   0.476  28.997  0.4668  0.2546 -0.7384
   27SAPC  H18R 3611   0.961   0.484  29.082  0.0532 -2.1557 -0.0691
   27SAPC  H18S 3612   0.840   0.376  29.004  1.0483  0.0384  0.8207
   27SAPC  C219 3613   0.777   0.577  29.012 -0.0558 -0.3135  0.4481
   27SAPC  H19R 3614   0.706   0.575  28.927 -0.9821 -4.4025  1.1127
   27SAPC  H19S 3615   0.832   0.674  29.015 -0.2192 -0.0174 -2.7207
   27SAPC  C220 3616   0.700   0.577  29.143 -0.4718  0.3589  0.0911
   27SAPC  H20R 3617   0.658   0.475  29.155  1.4781 -0.4405  0.5451
   27SAPC  H20S 3618   0.620   0.654  29.149 -0.6760  0.0442  2.1938
   27SAPC  H20T 3619   0.756   0.590  29.237  1.4955 -3.4545 -0.3503
   27SAPC   C33 3620   2.262   1.093  28.697  0.0778 -0.6931 -0.2616
   27SAPC   H3X 3621   2.240   1.002  28.756 -0.3618  0.3006  1.1727
   27SAPC   H3Y 3622   2.213   1.083  28.598  0.3034  1.8913 -0.7020
   27SAPC   C34 3623   2.196   1.220  28.766 -0.3171  0.6837  0.1374
   27SAPC   H4X 3624   2.198   1.312  28.704 -0.1384  0.4984 -0.1406
   27SAPC   H4Y 3625   2.263   1.253  28.848  1.2869 -2.7093  0.3756
   27SAPC   C35 3626   2.047   1.196  28.813 -0.3821 -0.1942 -0.9058
   27SAPC   H5X 3627   2.057   1.094  28.857  1.2847 -0.2175 -1.2868
   27SAPC   H5Y 3628   1.980   1.205  28.725 -2.8222  2.4409  1.0579
   27SAPC   C36 3629   2.005   1.298  28.928  0.8366  0.0388 -0.0587
   27SAPC   H6X 3630   1.973   1.392  28.878  0.5553 -0.6420 -1.1918
   27SAPC   H6Y 3631   2.097   1.314  28.988  2.6241 -0.5256 -2.5062
   27SAPC   C37 3632   1.880   1.247  29.003 -0.2584  0.2499  0.6948
   27SAPC   H7X 3633   1.888   1.145  29.048  1.5058 -0.7492 -1.6942
   27SAPC   H7Y 3634   1.809   1.248  28.918  0.5398 -0.0770  0.0068
   27SAPC   C38 3635   1.836   1.342  29.116 -0.0063  0.7839  0.0530
   27SAPC   H8X 3636   1.787   1.437  29.088 -1.8723  0.0761  0.7551
   27SAPC   H8Y 3637   1.935   1.357  29.166  0.5592 -4.3311  1.0816
   27SAPC   C39 3638   1.755   1.275  29.228  0.0999  0.2304  0.7685
   27SAPC   H9X 3639   1.727   1.354  29.301 -2.1121  1.0239 -0.8123
   27SAPC   H9Y 3640   1.807   1.185  29.268 -4.4406 -2.9223  0.3147
   27SAPC  C310 3641   1.621   1.215  29.184  0.7458 -0.5914 -0.8552
   27SAPC  H10X 3642   1.635   1.158  29.089 -0.1759 -0.6951 -0.9379
   27SAPC  H10Y 3643   1.556   1.302  29.163 -0.4848 -0.6608  2.1880
   27SAPC  C311 3644   1.556   1.127  29.293  0.8869  0.3811 -0.5683
   27SAPC  H11X 3645   1.633   1.050  29.315  0.2886  0.3713  1.6368
   27SAPC  H11Y 3646   1.476   1.066  29.245  0.5478 -0.2802  0.8174
   27SAPC  C312 3647   1.517   1.193  29.433  0.3529 -0.1085  0.1489
   27SAPC  H12X 3648   1.607   1.251  29.460  0.0872  1.1040 -1.4539
   27SAPC  H12Y 3649   1.504   1.108  29.504  0.1962  0.1118  0.3822
   27SAPC  C313 3650   1.396   1.282  29.430 -0.2673  0.4596 -0.2659
   27SAPC  H13X 3651   1.303   1.238  29.387 -0.9465  0.0131  1.5622
   27SAPC  H13Y 3652   1.412   1.377  29.376 -0.8559  0.1775 -0.9548
   27SAPC  C314 3653   1.355   1.332  29.572 -0.6525  0.2936  0.1795
   27SAPC  H14X 3654   1.304   1.253  29.633 -1.5261 -0.5991 -1.6201
   27SAPC  H14Y 3655   1.267   1.395  29.547 -0.4649  0.2852 -0.5143
   27SAPC  C315 3656   1.444   1.424  29.653  0.1336 -0.6899  0.7345
   27SAPC  H15X 3657   1.552   1.405  29.636  0.0374 -1.5546  1.0094
   27SAPC  H15Y 3658   1.427   1.404  29.761  0.4966  2.4001  1.4538
   27SAPC  C316 3659   1.410   1.574  29.631  0.5053 -0.1766  0.1801
   27SAPC  H16X 3660   1.312   1.601  29.676  0.8826  2.0461 -0.2148
   27SAPC  H16Y 3661   1.409   1.600  29.523 -1.7085 -3.1058 -0.6216
   27SAPC  C317 3662   1.510   1.669  29.709  0.1542  0.4021 -0.2463
   27SAPC  H17X 3663   1.483   1.776  29.694  2.2329  0.6641 -2.7174
   27SAPC  H17Y 3664   1.611   1.664  29.664 -0.2490  2.9493 -1.6622
   27SAPC  C318 3665   1.520   1.656  29.862 -0.0488 -0.3550 -0.6835
   27SAPC  H18X 3666   1.553   1.552  29.885 -0.4705 -0.6412 -1.3254
   27SAPC  H18Y 3667   1.424   1.677  29.914 -0.7621  1.1683 -2.5152
   27SAPC  H18Z 3668   1.602   1.723  29.897  0.3507 -1.6309  0.9711
   28SAPC     N 3669   0.173   0.448  21.997 -0.1317 -0.3200  0.6210
   28SAPC   C12 3670   0.130   0.541  22.111 -0.5081  0.3090  0.2626
   28SAPC  H12A 3671   0.050   0.604  22.077  0.2842  0.3084 -1.7498
   28SAPC  H12B 3672   0.208   0.606  22.147  0.5870 -0.7661 -0.0817
   28SAPC   C13 3673   0.211   0.527  21.877 -0.2226 -0.8915 -0.4961
   28SAPC  H13A 3674   0.267   0.456  21.817 -1.3745 -0.6755 -1.8952
   28SAPC  H13B 3675   0.133   0.555  21.807  0.8261  0.3509 -1.2145
   28SAPC  H13C 3676   0.276   0.611  21.896 -0.0556  0.0460 -4.3911
   28SAPC   C14 3677   0.303   0.382  22.032 -0.4390  0.2929  0.1726
   28SAPC  H14A 3678   0.387   0.450  22.037 -0.2211  0.0755 -0.4465
   28SAPC  H14B 3679   0.297   0.330  22.126 -1.1683  0.0557 -0.0000
   28SAPC  H14C 3680   0.334   0.317  21.951 -0.6768 -1.1553  1.2018
   28SAPC   C15 3681   0.064   0.352  21.962  0.5314  0.3608  0.1614
   28SAPC  H15A 3682  -0.033   0.399  21.957  0.2549 -0.3380 -1.9088
   28SAPC  H15B 3683   0.078   0.291  21.874 -0.5571 -0.9288  0.8488
   28SAPC  H15C 3684   0.056   0.289  22.049 -1.5361  1.1627  0.5896
   28SAPC   C11 3685   0.092   0.469  22.239 -0.0093 -0.4413 -0.0779
   28SAPC  H11A 3686  -0.003   0.414  22.225 -1.6882  2.0841  0.5383
   28SAPC  H11B 3687   0.059   0.544  22.314 -2.0062  0.0134 -1.3612
   28SAPC     P 3688   0.301   0.449  22.398  0.1498  0.3562  0.0046
   28SAPC   O13 3689   0.414   0.357  22.429 -0.6785 -0.0878  0.3356
   28SAPC   O14 3690   0.336   0.587  22.351 -0.7124 -0.1549 -0.3942
   28SAPC   O12 3691   0.197   0.380  22.296 -0.0792 -0.1370 -0.2384
   28SAPC   O11 3692   0.229   0.473  22.527 -0.1724  0.4676 -0.0992
   28SAPC    C1 3693   0.133   0.386  22.593  0.8230 -0.0276  0.5937
   28SAPC    HA 3694   0.035   0.440  22.592  0.3281 -0.9169 -0.0936
   28SAPC    HB 3695   0.109   0.287  22.550  0.4330 -0.0671  0.8995
   28SAPC    C2 3696   0.180   0.364  22.738 -0.4241 -0.5217 -0.1332
   28SAPC    HS 3697   0.110   0.309  22.803 -0.5028 -1.4728 -1.0147
   28SAPC   O21 3698   0.201   0.489  22.805  0.0777  0.5509 -0.1100
   28SAPC   C21 3699   0.088   0.551  22.845 -0.3812 -0.0519  0.2201
   28SAPC   O22 3700  -0.019   0.529  22.790  0.1877 -0.0042  0.2816
   28SAPC   C22 3701   0.104   0.654  22.965  1.0615 -0.3159  0.0138
   28SAPC   H2R 3702   0.151   0.737  22.908  1.2579 -1.6221 -1.8344
   28SAPC   H2S 3703   0.001   0.684  22.996  1.1906  2.0324 -1.5847
   28SAPC    C3 3704   0.316   0.282  22.743 -0.2381  0.4212 -0.7109
   28SAPC    HX 3705   0.397   0.321  22.678  0.6165 -1.2478 -0.7152
   28SAPC    HY 3706   0.290   0.183  22.699  0.1483 -0.4134  0.8618
   28SAPC   O31 3707   0.365   0.251  22.879 -0.5961 -0.3170 -0.2414
   28SAPC   C31 3708   0.445   0.352  22.925  0.1599 -0.8392  0.1589
   28SAPC   O32 3709   0.482   0.450  22.853  1.0213  0.2857  0.0215
   28SAPC   C32 3710   0.479   0.330  23.069  0.2739  0.9070  0.3542
   28SAPC   H2X 3711   0.511   0.224  23.077 -1.9366  0.1788  0.1751
   28SAPC   H2Y 3712   0.386   0.341  23.128 -0.4211 -1.6875 -0.1433
   28SAPC   C23 3713   0.206   0.615  23.071 -0.2485 -0.2707  0.1036
   28SAPC   H3R 3714   0.302   0.590  23.020 -1.2332 -0.4272 -1.7301
   28SAPC   H3S 3715   0.179   0.525  23.129  1.2462  0.2338  1.6761
   28SAPC   C24 3716   0.219   0.733  23.169  0.0574  0.4418 -0.0970
   28SAPC   H4R 3717   0.276   0.824  23.140  0.9838  1.1013  3.3514
   28SAPC   H4S 3718   0.116   0.762  23.198 -0.9464 -2.8077  0.0099
   28SAPC   C25 3719   0.296   0.682  23.288 -0.6545  0.3849 -0.3273
   28SAPC   H5R 3720   0.387   0.625  23.263 -2.4494 -1.5567 -3.0622
   28SAPC   C26 3721   0.264   0.694  23.423 -0.5845  0.3700 -0.6701
   28SAPC   H6R 3722   0.324   0.638  23.497 -0.3989  0.6022 -0.6448
   28SAPC   C27 3723   0.137   0.751  23.476  0.5083 -0.4976 -0.1791
   28SAPC   H7R 3724   0.079   0.677  23.535  2.0257 -1.7521 -0.1942
   28SAPC   H7S 3725   0.061   0.775  23.399  1.2094  1.8335 -0.2351
   28SAPC   C28 3726   0.156   0.876  23.570 -0.1183 -0.1193  0.2553
   28SAPC   H8R 3727   0.152   0.973  23.517 -0.0955  0.9963  2.1908
   28SAPC   C29 3728   0.209   0.892  23.692 -0.6864  0.1054  0.2494
   28SAPC   H9R 3729   0.209   0.994  23.733  0.2969 -0.2083  1.0849
   28SAPC  C210 3730   0.261   0.774  23.779 -0.0059 -0.3062  0.6020
   28SAPC  H10R 3731   0.365   0.785  23.817  0.7680 -1.6018 -0.9959
   28SAPC  H10S 3732   0.272   0.688  23.710 -0.2423 -0.2568  0.5028
   28SAPC  C211 3733   0.154   0.740  23.880  0.1018 -0.5418  0.2152
   28SAPC  H11R 3734   0.082   0.664  23.847  0.7257 -0.4307 -1.5266
   28SAPC  C212 3735   0.147   0.767  24.013 -0.5649  0.0557  0.1355
   28SAPC  H12R 3736   0.059   0.732  24.068  0.0545 -3.2044 -0.7614
   28SAPC  C213 3737   0.238   0.860  24.084 -0.1850  0.5334  0.5395
   28SAPC  H13R 3738   0.244   0.956  24.027  1.4450  0.3556  0.3536
   28SAPC  H13S 3739   0.340   0.820  24.067  0.8743  3.9892 -2.8977
   28SAPC  C214 3740   0.208   0.871  24.232  0.6060 -1.0745 -0.1312
   28SAPC  H14R 3741   0.122   0.933  24.262  0.6226 -1.8000  1.5347
   28SAPC  C215 3742   0.270   0.805  24.329 -0.4427  0.0194 -0.2237
   28SAPC  H15R 3743   0.239   0.816  24.434  1.8152  0.3391  0.4593
   28SAPC  C216 3744   0.380   0.704  24.316  0.7766 -0.3653  1.2295
   28SAPC  H16R 3745   0.473   0.735  24.370  1.0982  0.4587  0.2470
   28SAPC  H16S 3746   0.415   0.680  24.213  0.2545  0.6206  0.8127
   28SAPC  C217 3747   0.336   0.566  24.365 -0.0976  0.3382 -0.0853
   28SAPC  H17R 3748   0.410   0.487  24.341 -0.8919  0.0600 -1.8203
   28SAPC  H17S 3749   0.249   0.529  24.307  1.3602  0.4614 -2.4756
   28SAPC  C218 3750   0.314   0.557  24.517 -0.1924  0.0469 -0.3383
   28SAPC  H18R 3751   0.234   0.631  24.541 -0.2853 -0.0870 -0.2291
   28SAPC  H18S 3752   0.397   0.580  24.586  0.6505 -0.5951 -1.1133
   28SAPC  C219 3753   0.264   0.425  24.587 -0.1490 -0.6575 -0.4506
   28SAPC  H19R 3754   0.194   0.386  24.509 -1.2512  2.6606 -1.2693
   28SAPC  H19S 3755   0.206   0.448  24.679  2.8783 -2.4754  2.1011
   28SAPC  C220 3756   0.384   0.337  24.612 -0.4070  0.2673  0.2460
   28SAPC  H20R 3757   0.429   0.317  24.513 -0.4567 -1.9342  0.6251
   28SAPC  H20S 3758   0.353   0.241  24.659  0.5075 -0.5258 -0.7062
   28SAPC  H20T 3759   0.462   0.378  24.681 -0.3168  3.3858 -1.5571
   28SAPC   C33 3760   0.604   0.409  23.106  0.1416  0.5957  0.1216
   28SAPC   H3X 3761   0.587   0.518  23.095 -2.1140  0.6042  2.6441
   28SAPC   H3Y 3762   0.687   0.378  23.040 -0.0644  2.0340 -0.8530
   28SAPC   C34 3763   0.652   0.371  23.245  0.3691  0.4476  0.6476
   28SAPC   H4X 3764   0.754   0.410  23.260  0.1723  2.3235 -2.1133
   28SAPC   H4Y 3765   0.665   0.262  23.258 -0.3724  0.3611  0.7225
   28SAPC   C35 3766   0.560   0.408  23.363 -0.6922  0.0659  0.1988
   28SAPC   H5X 3767   0.470   0.350  23.336 -0.2739 -0.0112 -1.1344
   28SAPC   H5Y 3768   0.544   0.517  23.374  1.0226  0.3892 -0.0882
   28SAPC   C36 3769   0.619   0.365  23.501  0.5054  0.9156  0.2570
   28SAPC   H6X 3770   0.715   0.421  23.504  2.5579 -2.3245  0.0307
   28SAPC   H6Y 3771   0.646   0.258  23.489  0.8209  1.0441 -0.2075
   28SAPC   C37 3772   0.529   0.402  23.617  0.5065 -0.2302  0.0160
   28SAPC   H7X 3773   0.467   0.493  23.604  1.5234  0.7101  1.4797
   28SAPC   H7Y 3774   0.594   0.414  23.707 -1.0828  0.8762  1.0595
   28SAPC   C38 3775   0.420   0.286  23.648 -0.1696 -0.0595 -0.1329
   28SAPC   H8X 3776   0.475   0.189  23.654  2.7623  1.4807 -0.4589
   28SAPC   H8Y 3777   0.345   0.278  23.566 -0.9801  0.3701  0.5566
   28SAPC   C39 3778   0.345   0.331  23.778  0.3275 -0.2717 -0.2859
   28SAPC   H9X 3779   0.286   0.422  23.752  1.9350 -0.0270 -3.4650
   28SAPC   H9Y 3780   0.427   0.359  23.847  1.0390  0.1975 -1.3045
   28SAPC  C310 3781   0.261   0.213  23.826  0.4961 -0.8482 -0.2980
   28SAPC  H10X 3782   0.305   0.111  23.818 -1.5216 -1.8942  1.0796
   28SAPC  H10Y 3783   0.162   0.210  23.775  0.5295 -1.7335 -0.3342
   28SAPC  C311 3784   0.225   0.222  23.975  0.3443 -0.3312 -0.1623
   28SAPC  H11X 3785   0.187   0.325  23.993  1.6791  0.6539 -2.4652
   28SAPC  H11Y 3786   0.310   0.213  24.046  1.3287 -0.5296 -1.3216
   28SAPC  C312 3787   0.109   0.135  24.008 -0.0913  0.5681 -1.0110
   28SAPC  H12X 3788   0.143   0.031  23.988 -5.0439 -1.3137 -1.2209
   28SAPC  H12Y 3789   0.027   0.147  23.933  0.4683  0.0890 -1.7216
   28SAPC  C313 3790   0.055   0.154  24.146  0.2808 -0.2125  0.0695
   28SAPC  H13X 3791  -0.040   0.097  24.142 -0.1571  0.4911  0.2123
   28SAPC  H13Y 3792   0.034   0.262  24.164  0.3670 -0.3824  1.2881
   28SAPC  C314 3793   0.149   0.109  24.259  1.2209  0.6400 -0.0081
   28SAPC  H14X 3794   0.212   0.195  24.289  1.0179  1.3149 -1.4124
   28SAPC  H14Y 3795   0.213   0.022  24.231 -2.4550 -1.4927 -2.7693
   28SAPC  C315 3796   0.069   0.050  24.385  0.3584  0.0100 -0.0001
   28SAPC  H15X 3797   0.021  -0.049  24.368  0.2324 -0.4584  2.6347
   28SAPC  H15Y 3798  -0.012   0.120  24.412  1.0923  2.3027 -3.0781
   28SAPC  C316 3799   0.150   0.026  24.509 -0.2172  1.0362 -0.2966
   28SAPC  H16X 3800   0.175   0.130  24.542 -3.6444  1.5017  1.2597
   28SAPC  H16Y 3801   0.242  -0.030  24.484  1.0528  3.1504 -0.6124
   28SAPC  C317 3802   0.093  -0.059  24.621  0.2545  0.1371  0.1967
   28SAPC  H17X 3803   0.082  -0.155  24.566 -1.5009 -1.1097  2.5502
   28SAPC  H17Y 3804  -0.009  -0.021  24.642  0.1140  0.8802 -1.6443
   28SAPC  C318 3805   0.176  -0.066  24.747  0.1778 -0.5108 -0.7538
   28SAPC  H18X 3806   0.178   0.026  24.809 -1.2400 -2.2734  2.1349
   28SAPC  H18Y 3807   0.278  -0.104  24.726  0.4224 -0.7717  0.8430
   28SAPC  H18Z 3808   0.123  -0.140  24.810 -0.6756  1.5182  1.0335
   29SAPC     N 3809   2.881   1.375  30.722  0.4837 -0.1786 -0.5657
   29SAPC   C12 3810   2.983   1.458  30.795 -0.2710  0.0751  0.0852
   29SAPC  H12A 3811   2.948   1.459  30.897  1.7148 -2.5033  0.9228
   29SAPC  H12B 3812   2.984   1.559  30.758 -0.4732  0.1831  0.3736
   29SAPC   C13 3813   2.859   1.255  30.800 -0.7169 -0.2962  0.4299
   29SAPC  H13A 3814   2.945   1.190  30.795  0.3229  1.0976 -0.4713
   29SAPC  H13B 3815   2.844   1.268  30.906  2.6097  1.4791  0.7855
   29SAPC  H13C 3816   2.771   1.198  30.770 -0.1321 -0.1740 -1.6462
   29SAPC   C14 3817   2.756   1.448  30.725  0.0071 -0.1736 -0.5836
   29SAPC  H14A 3818   2.682   1.394  30.669 -1.3907  1.0362  0.0298
   29SAPC  H14B 3819   2.717   1.443  30.825  1.9271  0.8774  0.2797
   29SAPC  H14C 3820   2.764   1.553  30.698  2.5286 -0.0345  0.3878
   29SAPC   C15 3821   2.918   1.344  30.582 -0.0086  0.4293 -0.1350
   29SAPC  H15A 3822   2.924   1.434  30.523  1.5816  0.8102  0.5614
   29SAPC  H15B 3823   3.022   1.315  30.582 -0.1938 -0.3356 -1.5306
   29SAPC  H15C 3824   2.857   1.266  30.537  1.7946 -0.6472 -0.8196
   29SAPC   C11 3825   3.125   1.395  30.809 -0.1091 -0.1378 -0.7798
   29SAPC  H11A 3826   3.125   1.305  30.874  1.2986 -0.9354 -1.8313
   29SAPC  H11B 3827   3.179   1.471  30.870 -1.4174  1.6386 -1.7558
   29SAPC     P 3828   3.296   1.478  30.618 -0.1381 -0.6747  0.1798
   29SAPC   O13 3829   3.388   1.417  30.522 -0.1702 -0.3563  0.1550
   29SAPC   O14 3830   3.234   1.608  30.573 -0.4037 -0.5944 -0.1545
   29SAPC   O12 3831   3.190   1.370  30.683  0.2276 -0.1941  0.5281
   29SAPC   O11 3832   3.389   1.517  30.737 -0.0430 -0.0330 -0.6423
   29SAPC    C1 3833   3.436   1.424  30.833  0.1799  0.3272 -0.1043
   29SAPC    HA 3834   3.363   1.411  30.916 -0.6806 -1.6964 -1.1162
   29SAPC    HB 3835   3.452   1.327  30.782 -0.3507  0.1779  0.0078
   29SAPC    C2 3836   3.573   1.463  30.886  0.2800  0.2750 -0.4100
   29SAPC    HS 3837   3.588   1.401  30.976 -0.0834  2.0748  0.9506
   29SAPC   O21 3838   3.572   1.602  30.922 -0.2927  1.3409 -0.5364
   29SAPC   C21 3839   3.496   1.630  31.030 -0.0876  0.0246 -0.7551
   29SAPC   O22 3840   3.427   1.549  31.096  0.0660 -0.2764  0.1681
   29SAPC   C22 3841   3.509   1.777  31.067  0.1947 -0.6423  0.2365
   29SAPC   H2R 3842   3.611   1.804  31.030 -0.1245 -0.8036 -0.7972
   29SAPC   H2S 3843   3.435   1.836  31.009 -1.5179 -0.2589  2.6742
   29SAPC    C3 3844   3.683   1.442  30.772 -0.4846 -0.4427 -0.1891
   29SAPC    HX 3845   3.662   1.498  30.679 -1.4804 -0.1993  0.1706
   29SAPC    HY 3846   3.660   1.340  30.736 -0.6757  0.4480 -2.8136
   29SAPC   O31 3847   3.823   1.453  30.818  0.0779 -0.0827 -0.2897
   29SAPC   C31 3848   3.885   1.564  30.782  0.2375  0.2178  0.6291
   29SAPC   O32 3849   3.831   1.661  30.734  0.1112 -0.4347 -0.1627
   29SAPC   C32 3850   4.028   1.557  30.818 -1.1615 -0.0422  0.4340
   29SAPC   H2X 3851   4.049   1.449  30.833  2.0416  0.5896  1.2404
   29SAPC   H2Y 3852   4.049   1.620  30.907  0.9578  3.2719 -2.1993
   29SAPC   C23 3853   3.473   1.808  31.216  0.1511  0.8978 -0.1025
   29SAPC   H3R 3854   3.547   1.763  31.285  0.0237  2.3480  1.0311
   29SAPC   H3S 3855   3.370   1.771  31.237 -0.0198  1.4915  0.1249
   29SAPC   C24 3856   3.466   1.961  31.234 -0.4459 -0.0367 -0.1849
   29SAPC   H4R 3857   3.563   2.003  31.200  1.3475 -2.9785  0.9028
   29SAPC   H4S 3858   3.454   1.971  31.344 -0.4718 -1.9125  0.0309
   29SAPC   C25 3859   3.349   2.039  31.169 -0.5936  0.3131 -0.2933
   29SAPC   H5R 3860   3.260   2.046  31.234  0.4769  1.4469  1.1057
   29SAPC   C26 3861   3.365   2.126  31.066 -0.0430  0.4037  0.1247
   29SAPC   H6R 3862   3.277   2.188  31.043 -1.1353 -1.5945 -1.3915
   29SAPC   C27 3863   3.486   2.148  30.984  0.5992  0.3323 -0.0299
   29SAPC   H7R 3864   3.508   2.045  30.947  2.0626 -0.1898  2.1116
   29SAPC   H7S 3865   3.567   2.161  31.058  1.5793 -1.5712 -0.6961
   29SAPC   C28 3866   3.484   2.242  30.865 -0.5223 -0.2503 -0.3907
   29SAPC   H8R 3867   3.406   2.319  30.869  1.1769  1.5931 -0.7613
   29SAPC   C29 3868   3.581   2.242  30.769  0.5338 -0.3376 -0.5415
   29SAPC   H9R 3869   3.558   2.303  30.680  0.1435 -0.0716 -0.2643
   29SAPC  C210 3870   3.692   2.142  30.779  0.2122  0.1799 -0.2379
   29SAPC  H10R 3871   3.654   2.046  30.737 -0.7682  0.0465  0.8934
   29SAPC  H10S 3872   3.721   2.126  30.885 -1.3145  0.0196  0.1813
   29SAPC  C211 3873   3.808   2.179  30.694 -0.4096  0.5751  0.3010
   29SAPC  H11R 3874   3.785   2.224  30.597  0.2426 -0.1562 -0.2103
   29SAPC  C212 3875   3.935   2.135  30.727 -0.3936 -0.0651  1.0741
   29SAPC  H12R 3876   4.023   2.170  30.671 -1.5403 -1.2625 -1.6787
   29SAPC  C213 3877   3.978   2.047  30.838  0.1965  0.5623 -0.3501
   29SAPC  H13R 3878   4.060   1.981  30.803  0.9981  2.7671 -3.0069
   29SAPC  H13S 3879   3.902   1.967  30.852  0.4172 -0.1366 -2.7617
   29SAPC  C214 3880   3.988   2.116  30.973 -0.0344 -0.3395  0.3286
   29SAPC  H14R 3881   3.922   2.200  31.000  1.4751  0.4566  1.7627
   29SAPC  C215 3882   4.094   2.117  31.055  0.0574 -0.6132 -0.0050
   29SAPC  H15R 3883   4.092   2.177  31.147 -3.1718  0.7133 -0.8193
   29SAPC  C216 3884   4.213   2.023  31.048  0.1407 -0.0736  0.3292
   29SAPC  H16R 3885   4.263   2.056  30.955  0.5250 -0.3254  0.4395
   29SAPC  H16S 3886   4.181   1.922  31.015 -0.2309 -0.1970  1.0417
   29SAPC  C217 3887   4.304   2.039  31.164 -0.6502  0.7064  0.1584
   29SAPC  H17R 3888   4.329   2.147  31.168 -1.3344  0.9946 -1.9785
   29SAPC  H17S 3889   4.401   1.991  31.138 -1.0113  0.4898 -0.8362
   29SAPC  C218 3890   4.264   1.991  31.300  0.9461  0.0364 -0.3349
   29SAPC  H18R 3891   4.256   1.880  31.297 -2.8467  0.1934 -2.2172
   29SAPC  H18S 3892   4.167   2.033  31.334  0.6099  0.3869 -1.6758
   29SAPC  C219 3893   4.374   2.029  31.397 -0.0406 -0.6819 -0.1170
   29SAPC  H19R 3894   4.392   2.138  31.408 -0.5751 -0.3724 -1.9989
   29SAPC  H19S 3895   4.469   1.994  31.350  0.7994  1.9614 -0.5671
   29SAPC  C220 3896   4.374   1.973  31.536  0.0269 -0.3075  0.2421
   29SAPC  H20R 3897   4.466   2.002  31.590 -0.1811  0.7876  0.0434
   29SAPC  H20S 3898   4.373   1.864  31.515 -2.2095  0.1563 -2.9008
   29SAPC  H20T 3899   4.284   1.998  31.595 -0.0309 -0.7025  0.3214
   29SAPC   C33 3900   4.117   1.607  30.703 -0.3657 -0.4418 -0.7060
   29SAPC   H3X 3901   4.061   1.635  30.611 -1.1643  0.4683  0.0258
   29SAPC   H3Y 3902   4.180   1.518  30.682  0.6816 -0.0371  0.6014
   29SAPC   C34 3903   4.204   1.732  30.744  0.4186  0.2670 -0.3969
   29SAPC   H4X 3904   4.244   1.741  30.847 -1.2482  1.5917  0.1919
   29SAPC   H4Y 3905   4.142   1.821  30.717 -2.5573 -1.2586  0.9851
   29SAPC   C35 3906   4.330   1.745  30.655  0.2525 -0.7301 -0.0982
   29SAPC   H5X 3907   4.317   1.743  30.545 -0.0177  1.9954 -0.1902
   29SAPC   H5Y 3908   4.404   1.666  30.683  1.7109 -0.0540 -1.8513
   29SAPC   C36 3909   4.379   1.888  30.677 -0.5814  0.6561  0.7000
   29SAPC   H6X 3910   4.485   1.891  30.644 -1.4113  1.8241 -2.1263
   29SAPC   H6Y 3911   4.363   1.913  30.784  0.9396  2.7563  0.4950
   29SAPC   C37 3912   4.303   1.988  30.589 -0.1443 -0.3022  0.8324
   29SAPC   H7X 3913   4.196   1.985  30.617 -0.1078 -2.3633  0.8986
   29SAPC   H7Y 3914   4.302   1.960  30.481 -1.5434  1.3077  0.3789
   29SAPC   C38 3915   4.359   2.134  30.592 -0.4422 -0.1324 -0.1939
   29SAPC   H8X 3916   4.306   2.209  30.529  0.3935  1.3761  0.8354
   29SAPC   H8Y 3917   4.463   2.132  30.551 -1.6956 -0.4662 -3.6804
   29SAPC   C39 3918   4.351   2.203  30.731  0.5155  0.0951  0.3076
   29SAPC   H9X 3919   4.414   2.152  30.807 -1.5995 -2.6068  0.4203
   29SAPC   H9Y 3920   4.247   2.209  30.768  0.1249 -0.6348 -0.6199
   29SAPC  C310 3921   4.389   2.354  30.715  0.4167 -0.1972  0.6278
   29SAPC  H10X 3922   4.300   2.419  30.700  1.1349  0.4551 -1.1150
   29SAPC  H10Y 3923   4.458   2.358  30.627  0.7972 -1.6967  0.8263
   29SAPC  C311 3924   4.471   2.398  30.834 -0.3873  0.4293  0.1109
   29SAPC  H11X 3925   4.534   2.478  30.790 -0.2251 -0.5529 -1.5228
   29SAPC  H11Y 3926   4.521   2.313  30.883 -1.2263 -1.7667 -2.5731
   29SAPC  C312 3927   4.394   2.468  30.947 -0.2146  0.2888 -0.2124
   29SAPC  H12X 3928   4.334   2.390  30.998 -1.1912  1.8884  1.1782
   29SAPC  H12Y 3929   4.320   2.539  30.903  1.1113  1.2942 -0.8684
   29SAPC  C313 3930   4.484   2.541  31.055  0.1116 -0.0602 -0.3451
   29SAPC  H13X 3931   4.564   2.594  31.000  1.2024 -0.8482  0.4452
   29SAPC  H13Y 3932   4.545   2.461  31.101  1.0284  0.5099 -0.5482
   29SAPC  C314 3933   4.411   2.634  31.154 -0.9304 -0.0733 -0.5681
   29SAPC  H14X 3934   4.484   2.686  31.220 -1.8824 -1.9741  2.1515
   29SAPC  H14Y 3935   4.351   2.575  31.227  0.2928  0.5254  0.9983
   29SAPC  C315 3936   4.318   2.736  31.092  0.3854  0.8584 -0.3896
   29SAPC  H15X 3937   4.262   2.782  31.176  1.6103  1.4429  0.1271
   29SAPC  H15Y 3938   4.243   2.695  31.021  1.5841  1.9210 -2.3481
   29SAPC  C316 3939   4.377   2.854  31.012 -0.1551 -0.0108  0.3463
   29SAPC  H16X 3940   4.424   2.817  30.918  2.8557  2.7133  0.5966
   29SAPC  H16Y 3941   4.458   2.894  31.077 -1.2364 -1.5986  2.8201
   29SAPC  C317 3942   4.293   2.970  30.979  0.1673 -0.3742  0.4354
   29SAPC  H17X 3943   4.346   3.045  30.916  1.1747 -0.0619  1.6235
   29SAPC  H17Y 3944   4.263   3.022  31.072  0.0711 -1.0700  0.7967
   29SAPC  C318 3945   4.170   2.921  30.897 -0.6576  0.4007  0.0363
   29SAPC  H18X 3946   4.209   2.838  30.834  1.6297  1.0886  0.4335
   29SAPC  H18Y 3947   4.122   3.002  30.838 -0.8380  0.4112  0.1960
   29SAPC  H18Z 3948   4.098   2.889  30.975 -0.8297 -0.3859 -0.4334
   30SAPC     N 3949   3.130   1.020  29.968  0.6887  0.1082  0.2898
   30SAPC   C12 3950   3.244   0.937  29.926  0.9359 -1.2900  0.4417
   30SAPC  H12A 3951   3.298   0.988  29.848 -2.3365  0.8738 -0.6546
   30SAPC  H12B 3952   3.210   0.846  29.877 -1.6337 -1.4936  2.3579
   30SAPC   C13 3953   3.165   1.153  30.018  0.1965 -0.6625 -0.2422
   30SAPC  H13A 3954   3.233   1.153  30.102  0.7148 -0.0834 -0.6522
   30SAPC  H13B 3955   3.214   1.201  29.934 -0.8050 -2.2075 -1.7775
   30SAPC  H13C 3956   3.080   1.217  30.033 -0.6838 -1.6072 -1.0009
   30SAPC   C14 3957   3.042   1.040  29.845 -0.1888  0.0269  0.2237
   30SAPC  H14A 3958   2.962   1.101  29.884  1.1583 -0.2278  3.7272
   30SAPC  H14B 3959   3.101   1.095  29.772 -0.9156  0.8034  0.2005
   30SAPC  H14C 3960   3.003   0.949  29.802  0.7431 -0.0253 -0.5517
   30SAPC   C15 3961   3.057   0.949  30.074  0.3563  0.1934 -0.1269
   30SAPC  H15A 3962   2.966   1.001  30.102 -0.0841 -1.0286  0.7649
   30SAPC  H15B 3963   3.027   0.850  30.042 -3.0445  0.9826  0.2236
   30SAPC  H15C 3964   3.119   0.946  30.162  1.0475  0.8684 -0.5753
   30SAPC   C11 3965   3.343   0.892  30.030 -0.3046 -0.5956 -0.2003
   30SAPC  H11A 3966   3.412   0.817  29.986  1.8301  0.8758  0.4928
   30SAPC  H11B 3967   3.285   0.840  30.110 -2.0423 -0.9850 -1.6475
   30SAPC     P 3968   3.529   1.091  30.009  0.3536 -0.3709 -0.2298
   30SAPC   O13 3969   3.463   1.180  29.903 -0.6472 -0.5824 -0.6388
   30SAPC   O14 3970   3.599   1.162  30.119  0.2337 -0.0207  0.1386
   30SAPC   O12 3971   3.422   1.001  30.083  0.7800  0.3898 -0.0755
   30SAPC   O11 3972   3.620   0.982  29.937 -0.2561 -0.4657  0.1503
   30SAPC    C1 3973   3.734   0.928  30.004  0.0763  0.3221  0.1578
   30SAPC    HA 3974   3.729   0.922  30.115 -3.3130 -0.5774  0.0583
   30SAPC    HB 3975   3.738   0.821  29.974 -0.7423  0.0183  1.0772
   30SAPC    C2 3976   3.860   1.008  29.953 -0.1819  0.1782 -0.9735
   30SAPC    HS 3977   3.849   1.112  29.988 -0.6509 -0.3782  0.6243
   30SAPC   O21 3978   3.873   0.988  29.805 -0.3018  0.2106 -0.4156
   30SAPC   C21 3979   3.890   1.110  29.743  0.4889  0.6000  0.2357
   30SAPC   O22 3980   3.878   1.212  29.803 -0.1903 -0.4644 -0.1652
   30SAPC   C22 3981   3.927   1.094  29.593  0.2222  0.5912 -0.8829
   30SAPC   H2R 3982   3.832   1.088  29.536 -0.8903  0.0782  0.9382
   30SAPC   H2S 3983   3.982   1.187  29.567 -1.3164  2.3253  1.7092
   30SAPC    C3 3984   3.989   0.946  30.025  0.9661 -0.0521 -0.0286
   30SAPC    HX 3985   4.074   1.010  29.993  0.8892 -0.6890 -1.6074
   30SAPC    HY 3986   4.005   0.851  29.970  1.0052  1.0773 -2.0833
   30SAPC   O31 3987   3.965   0.924  30.163  0.0695  0.3960 -0.4916
   30SAPC   C31 3988   3.959   1.036  30.239 -0.1725 -0.8171 -0.4245
   30SAPC   O32 3989   3.989   1.146  30.195 -0.5705 -0.1011 -0.2033
   30SAPC   C32 3990   3.907   1.006  30.375 -0.2816  0.2583 -0.1239
   30SAPC   H2X 3991   3.988   0.943  30.419 -0.9346 -2.5224 -2.5576
   30SAPC   H2Y 3992   3.816   0.943  30.373 -1.0688  1.2172  2.0262
   30SAPC   C23 3993   4.013   0.973  29.556 -0.3674 -1.3416 -0.1823
   30SAPC   H3R 3994   3.989   0.949  29.450 -0.2858 -2.9530  0.1363
   30SAPC   H3S 3995   3.991   0.880  29.613  1.0440 -0.7675  1.3819
   30SAPC   C24 3996   4.165   1.001  29.561  0.8062  0.0821  0.4365
   30SAPC   H4R 3997   4.175   1.110  29.544  0.2431  0.5603  2.8757
   30SAPC   H4S 3998   4.221   0.939  29.487 -0.5613 -4.3062  2.7031
   30SAPC   C25 3999   4.229   0.971  29.694  0.2625 -0.8967 -0.3229
   30SAPC   H5R 4000   4.176   0.884  29.736 -0.5940  0.5118  1.6734
   30SAPC   C26 4001   4.314   1.045  29.766 -0.2334  0.2179  0.0021
   30SAPC   H6R 4002   4.351   1.003  29.860  0.2334  2.6284  0.9773
   30SAPC   C27 4003   4.379   1.168  29.707  0.2468  0.5720  0.7713
   30SAPC   H7R 4004   4.385   1.155  29.597 -1.3219  1.6898  0.5180
   30SAPC   H7S 4005   4.487   1.175  29.733  1.1515 -1.8268 -1.9175
   30SAPC   C28 4006   4.307   1.290  29.762 -0.4058 -0.6918  0.6908
   30SAPC   H8R 4007   4.198   1.277  29.759 -0.3967 -0.9918  1.4377
   30SAPC   C29 4008   4.365   1.397  29.824  0.6106  0.0349  0.2828
   30SAPC   H9R 4009   4.299   1.481  29.847  0.2140  0.8171 -3.1488
   30SAPC  C210 4010   4.508   1.444  29.830 -0.6709 -1.1951 -0.2507
   30SAPC  H10R 4011   4.563   1.387  29.751  0.5442 -1.1853  0.5537
   30SAPC  H10S 4012   4.546   1.416  29.931  0.6796  1.0710 -0.0769
   30SAPC  C211 4013   4.525   1.589  29.802 -0.2362 -0.2802 -0.6192
   30SAPC  H11R 4014   4.542   1.599  29.694  1.4255  0.8958 -0.2702
   30SAPC  C212 4015   4.507   1.695  29.878 -0.2443 -0.5756 -0.7407
   30SAPC  H12R 4016   4.530   1.793  29.833  1.7813  0.5561  2.4330
   30SAPC  C213 4017   4.474   1.693  30.029  0.0095 -0.6489 -0.1414
   30SAPC  H13R 4018   4.396   1.614  30.038 -1.2454  0.1734 -2.6688
   30SAPC  H13S 4019   4.423   1.791  30.037  1.0512  0.0473 -1.6204
   30SAPC  C214 4020   4.589   1.684  30.120  0.1690  0.1571 -0.8376
   30SAPC  H14R 4021   4.650   1.593  30.109  0.9461  0.3808  1.2384
   30SAPC  C215 4022   4.613   1.763  30.230  0.7105  0.9293 -0.0757
   30SAPC  H15R 4023   4.701   1.747  30.294  0.1817 -0.3283  0.3640
   30SAPC  C216 4024   4.535   1.883  30.276 -0.3819 -0.3896  0.7455
   30SAPC  H16R 4025   4.538   1.879  30.386  0.9107 -1.3151  0.6954
   30SAPC  H16S 4026   4.431   1.880  30.238 -0.3261 -0.7167  0.6184
   30SAPC  C217 4027   4.609   2.008  30.239  0.4742  0.0346 -0.2058
   30SAPC  H17R 4028   4.713   1.998  30.277  0.7993 -2.3707 -1.4771
   30SAPC  H17S 4029   4.575   2.087  30.308  0.2025  0.7914 -1.1820
   30SAPC  C218 4030   4.617   2.047  30.088 -0.0522 -0.6526  0.0833
   30SAPC  H18R 4031   4.510   2.033  30.062 -1.0378  0.7608  3.0263
   30SAPC  H18S 4032   4.668   1.971  30.024 -0.0169  0.3188 -1.0777
   30SAPC  C219 4033   4.659   2.189  30.046 -0.6115  0.2126  0.3095
   30SAPC  H19R 4034   4.747   2.223  30.105 -0.2659  0.6956 -0.4728
   30SAPC  H19S 4035   4.581   2.260  30.079  1.4094  2.0568  1.3374
   30SAPC  C220 4036   4.670   2.210  29.896 -0.1079  1.1648  0.4315
   30SAPC  H20R 4037   4.593   2.158  29.835  0.1959 -0.5794  1.4787
   30SAPC  H20S 4038   4.770   2.173  29.869 -0.4058 -0.2509  1.1849
   30SAPC  H20T 4039   4.671   2.319  29.872  1.8864  1.0937  0.0371
   30SAPC   C33 4040   3.878   1.130  30.467  0.3925 -0.4846 -0.3229
   30SAPC   H3X 4041   3.840   1.090  30.564  2.1189 -0.1932  0.4960
   30SAPC   H3Y 4042   3.808   1.198  30.414 -0.4211 -0.3125  0.9306
   30SAPC   C34 4043   3.997   1.215  30.502  0.7163  0.2290  0.2315
   30SAPC   H4X 4044   3.963   1.304  30.559  0.9829  2.6308 -3.0908
   30SAPC   H4Y 4045   4.045   1.252  30.409 -0.8656 -1.9117 -1.5448
   30SAPC   C35 4046   4.117   1.136  30.566  0.1210  0.1412 -0.1961
   30SAPC   H5X 4047   4.204   1.204  30.576  1.8660 -2.1307  0.9197
   30SAPC   H5Y 4048   4.146   1.046  30.508 -0.7065 -0.2234 -0.0618
   30SAPC   C36 4049   4.088   1.076  30.708 -0.4121  0.6668 -0.3360
   30SAPC   H6X 4050   4.009   1.000  30.722 -0.0896  0.2125 -0.9169
   30SAPC   H6Y 4051   4.050   1.163  30.766  1.4297  0.3540  1.4402
   30SAPC   C37 4052   4.221   1.007  30.767  0.8884  0.7074 -0.1750
   30SAPC   H7X 4053   4.290   1.083  30.808  0.1954  0.8300  0.7942
   30SAPC   H7Y 4054   4.258   0.945  30.682 -0.0193  1.7374 -1.3471
   30SAPC   C38 4055   4.192   0.910  30.877  0.2382 -0.4702 -0.2153
   30SAPC   H8X 4056   4.105   0.843  30.858 -1.3351  0.7695  2.1252
   30SAPC   H8Y 4057   4.162   0.960  30.972  1.9752  0.7211 -0.2630
   30SAPC   C39 4058   4.315   0.815  30.917  0.0117 -0.2860 -0.0480
   30SAPC   H9X 4059   4.407   0.877  30.906 -1.0100  0.8910 -2.9451
   30SAPC   H9Y 4060   4.307   0.729  30.847  3.0599 -1.4702  0.8889
   30SAPC  C310 4061   4.287   0.752  31.054  0.3304  0.1814 -0.3217
   30SAPC  H10X 4062   4.180   0.723  31.051 -0.1799  2.0304 -1.4240
   30SAPC  H10Y 4063   4.310   0.827  31.132 -0.3313  0.3240 -0.2592
   30SAPC  C311 4064   4.378   0.632  31.093  0.1520 -0.2912  0.3222
   30SAPC  H11X 4065   4.476   0.677  31.116 -0.8758  2.7487 -0.7441
   30SAPC  H11Y 4066   4.393   0.565  31.005 -2.3151  2.4878 -2.4465
   30SAPC  C312 4067   4.340   0.559  31.226  0.7049  0.2164  0.5202
   30SAPC  H12X 4068   4.256   0.489  31.205 -0.1536  1.1480  0.8053
   30SAPC  H12Y 4069   4.302   0.642  31.289  0.8047  1.7886 -1.4218
   30SAPC  C313 4070   4.449   0.484  31.298  0.7551  0.2356 -0.0652
   30SAPC  H13X 4071   4.501   0.418  31.226  0.2890 -1.2520  0.9000
   30SAPC  H13Y 4072   4.388   0.426  31.371 -0.4837  0.4387 -0.9076
   30SAPC  C314 4073   4.548   0.569  31.378  0.5192 -0.5326 -0.2306
   30SAPC  H14X 4074   4.486   0.650  31.423 -2.9034 -3.9400  1.7335
   30SAPC  H14Y 4075   4.621   0.598  31.299  1.8781 -1.3022  0.6983
   30SAPC  C315 4076   4.617   0.495  31.487 -0.2756 -0.0139  0.1405
   30SAPC  H15X 4077   4.540   0.438  31.542 -1.6417  1.9810  0.4321
   30SAPC  H15Y 4078   4.670   0.559  31.560  0.4782  1.4172 -1.5726
   30SAPC  C316 4079   4.711   0.386  31.433  0.3290 -0.9934  0.2764
   30SAPC  H16X 4080   4.788   0.438  31.373 -0.3480  1.1639  1.1827
   30SAPC  H16Y 4081   4.664   0.316  31.360 -0.1239 -0.7823  0.3586
   30SAPC  C317 4082   4.784   0.315  31.548  0.3957  0.7008  0.4928
   30SAPC  H17X 4083   4.707   0.264  31.609 -1.4901  0.3005 -2.1020
   30SAPC  H17Y 4084   4.825   0.395  31.614  2.2133  1.6442 -1.6489
   30SAPC  C318 4085   4.892   0.231  31.502 -0.3317 -0.4198  1.1114
   30SAPC  H18X 4086   4.976   0.287  31.458  1.3441 -1.9016  2.2965
   30SAPC  H18Y 4087   4.872   0.149  31.429  1.6264  0.4957 -0.5235
   30SAPC  H18Z 4088   4.946   0.171  31.579  3.5611  1.1212 -0.1903
   31SAPC     N 4089   2.603   2.122  27.261 -0.0632  0.6323  0.0509
   31SAPC   C12 4090   2.495   2.052  27.195  0.0028  0.1302 -0.2613
   31SAPC  H12A 4091   2.451   1.982  27.265  0.5707 -1.2754 -1.2552
   31SAPC  H12B 4092   2.541   1.987  27.122  1.0584 -1.9252  2.0600
   31SAPC   C13 4093   2.663   2.216  27.164  0.1046 -0.7767  0.5448
   31SAPC  H13A 4094   2.736   2.281  27.211 -1.1543 -0.8335  2.6706
   31SAPC  H13B 4095   2.706   2.169  27.076  1.1110  0.5520  0.2906
   31SAPC  H13C 4096   2.579   2.274  27.129 -1.6077 -2.4674  1.6979
   31SAPC   C14 4097   2.553   2.192  27.383 -0.3805  0.0637 -0.0693
   31SAPC  H14A 4098   2.462   2.246  27.362 -0.6684 -0.7900 -1.0787
   31SAPC  H14B 4099   2.530   2.129  27.468 -2.7038  1.3451  0.3427
   31SAPC  H14C 4100   2.630   2.256  27.423 -2.6272  2.5389  0.6001
   31SAPC   C15 4101   2.715   2.030  27.294 -0.2083 -0.0030 -0.2236
   31SAPC  H15A 4102   2.680   1.956  27.365  3.6671 -0.9138  0.9622
   31SAPC  H15B 4103   2.760   1.986  27.206 -0.9247  0.3507 -0.7855
   31SAPC  H15C 4104   2.800   2.062  27.352  1.5603 -1.3866 -1.8954
   31SAPC   C11 4105   2.383   2.121  27.114 -0.0905  0.4747 -0.2817
   31SAPC  H11A 4106   2.347   2.198  27.186  2.0339  1.5366 -0.2532
   31SAPC  H11B 4107   2.301   2.047  27.107 -1.6199  2.1060 -0.3299
   31SAPC     P 4108   2.333   2.196  26.864  0.2090 -0.1781  0.2989
   31SAPC   O13 4109   2.317   2.343  26.856  0.1397  0.0711 -0.1942
   31SAPC   O14 4110   2.389   2.125  26.747 -0.2666 -0.1913  0.3888
   31SAPC   O12 4111   2.423   2.172  26.987 -0.7656  0.4839  1.1548
   31SAPC   O11 4112   2.186   2.131  26.899  0.4356  0.1874  0.7090
   31SAPC    C1 4113   2.067   2.212  26.895  0.1711  0.5102 -0.5791
   31SAPC    HA 4114   2.073   2.300  26.828 -0.4088 -0.3978 -1.8756
   31SAPC    HB 4115   1.986   2.153  26.846 -0.5055  1.1243 -0.2105
   31SAPC    C2 4116   2.031   2.260  27.040  0.8104  0.8923 -0.9806
   31SAPC    HS 4117   2.120   2.322  27.061  1.5783 -0.3032 -0.5694
   31SAPC   O21 4118   2.027   2.144  27.120 -0.4493  0.4117 -0.7484
   31SAPC   C21 4119   2.061   2.170  27.251 -0.2843 -0.1757 -0.1439
   31SAPC   O22 4120   2.094   2.276  27.298 -0.8969 -0.0807  0.0624
   31SAPC   C22 4121   2.055   2.041  27.326  0.5367  0.3067 -0.7625
   31SAPC   H2R 4122   1.964   1.987  27.293 -0.4475  0.3333  1.6794
   31SAPC   H2S 4123   2.136   1.970  27.297 -2.2154 -2.8625 -1.2346
   31SAPC    C3 4124   1.895   2.337  27.046  0.2554  0.6893 -0.2277
   31SAPC    HX 4125   1.881   2.364  27.153  1.2195 -1.5456  0.5053
   31SAPC    HY 4126   1.811   2.270  27.018  0.5447 -0.2741  1.0974
   31SAPC   O31 4127   1.883   2.458  26.966  0.0059  0.3410 -0.0058
   31SAPC   C31 4128   1.843   2.447  26.847 -0.4372 -0.7575  0.4452
   31SAPC   O32 4129   1.821   2.345  26.785 -0.6380  0.5927 -0.1780
   31SAPC   C32 4130   1.813   2.584  26.785  0.6866  0.0099 -1.6231
   31SAPC   H2X 4131   1.724   2.566  26.721 -0.7794  1.6040 -0.1484
   31SAPC   H2Y 4132   1.903   2.615  26.727  0.7329  0.3014 -1.3949
   31SAPC   C23 4133   2.071   2.058  27.484 -0.1884  0.1045 -0.3468
   31SAPC   H3R 4134   2.168   2.106  27.510  1.1970 -1.7766 -1.6916
   31SAPC   H3S 4135   2.079   1.959  27.534 -1.1547  0.6586  0.9382
   31SAPC   C24 4136   1.955   2.136  27.555  0.1860 -0.4169 -0.1143
   31SAPC   H4R 4137   1.861   2.078  27.543 -0.0341 -0.1326  0.1793
   31SAPC   H4S 4138   1.937   2.240  27.519 -0.8135 -0.1880  0.9641
   31SAPC   C25 4139   1.988   2.139  27.701 -0.3421  0.0475 -1.0105
   31SAPC   H5R 4140   2.057   2.059  27.730  0.2460  1.8105  3.2174
   31SAPC   C26 4141   1.939   2.227  27.790 -0.0166  0.4363 -0.2073
   31SAPC   H6R 4142   1.975   2.218  27.893 -0.8048 -2.1458 -0.0893
   31SAPC   C27 4143   1.840   2.332  27.762  0.6315  0.7013 -0.6148
   31SAPC   H7R 4144   1.741   2.284  27.777  1.7960 -1.8730 -0.7068
   31SAPC   H7S 4145   1.847   2.341  27.651  0.0524 -1.6435 -0.9042
   31SAPC   C28 4146   1.846   2.467  27.829 -0.4792  0.2324  0.3882
   31SAPC   H8R 4147   1.951   2.485  27.858  0.0776 -0.5433 -1.0252
   31SAPC   C29 4148   1.760   2.571  27.826 -0.8632  0.1645 -0.4561
   31SAPC   H9R 4149   1.784   2.666  27.876  0.1865 -0.7694  0.9050
   31SAPC  C210 4150   1.616   2.555  27.782  0.5033 -0.5670  0.1542
   31SAPC  H10R 4151   1.593   2.447  27.769  3.1330 -1.1703 -0.0791
   31SAPC  H10S 4152   1.595   2.595  27.680 -1.0358 -1.0973  0.2338
   31SAPC  C211 4153   1.511   2.609  27.867  0.4516  0.2655 -0.5002
   31SAPC  H11R 4154   1.500   2.550  27.959  0.5819  0.5726 -0.2851
   31SAPC  C212 4155   1.452   2.723  27.836  0.5694  0.4239 -0.0131
   31SAPC  H12R 4156   1.381   2.765  27.909  1.4070 -0.4217  1.3308
   31SAPC  C213 4157   1.484   2.820  27.720 -0.4558  0.3712 -0.2627
   31SAPC  H13R 4158   1.566   2.795  27.650  0.0189  2.8598 -0.7053
   31SAPC  H13S 4159   1.524   2.916  27.761  0.6779 -0.6436  1.1100
   31SAPC  C214 4160   1.363   2.856  27.637 -0.0755 -0.3690  0.3365
   31SAPC  H14R 4161   1.264   2.812  27.655 -1.0053  0.9839 -1.1928
   31SAPC  C215 4162   1.375   2.930  27.521 -0.2335 -0.3356 -0.0282
   31SAPC  H15R 4163   1.280   2.953  27.471 -0.7006 -0.7753  0.6465
   31SAPC  C216 4164   1.507   2.984  27.464  0.1258  0.4182 -0.2098
   31SAPC  H16R 4165   1.581   2.902  27.453  0.0421 -0.1015  2.5297
   31SAPC  H16S 4166   1.543   3.054  27.542 -0.6720  3.1946 -2.1902
   31SAPC  C217 4167   1.492   3.062  27.335  0.0290  0.5642 -0.0782
   31SAPC  H17R 4168   1.590   3.114  27.333  0.0051  0.8294  2.5238
   31SAPC  H17S 4169   1.410   3.137  27.337 -1.4976 -1.0549  0.7337
   31SAPC  C218 4170   1.474   2.968  27.213  0.0839  0.4450  0.1675
   31SAPC  H18R 4171   1.386   2.902  27.226 -0.0651  0.6989  0.4536
   31SAPC  H18S 4172   1.563   2.902  27.206 -2.5451 -3.3610 -0.5939
   31SAPC  C219 4173   1.464   3.036  27.072  0.3486 -0.1758 -0.3177
   31SAPC  H19R 4174   1.439   2.961  26.994 -2.7084  0.3161  0.0645
   31SAPC  H19S 4175   1.567   3.072  27.052 -0.0859  1.0628 -0.3565
   31SAPC  C220 4176   1.363   3.148  27.069  0.6027 -0.1986  0.1542
   31SAPC  H20R 4177   1.374   3.226  27.148  2.8448 -0.3295  0.0383
   31SAPC  H20S 4178   1.266   3.096  27.080  0.1614  0.4030 -0.8174
   31SAPC  H20T 4179   1.358   3.192  26.967 -3.4465 -0.3836  0.1299
   31SAPC   C33 4180   1.766   2.691  26.886 -0.0935 -0.1030 -0.6398
   31SAPC   H3X 4181   1.741   2.787  26.836 -1.5036 -0.8816 -1.5008
   31SAPC   H3Y 4182   1.848   2.710  26.958 -0.4733 -0.3054 -0.1445
   31SAPC   C34 4183   1.639   2.656  26.959 -0.4263  0.1672 -0.7549
   31SAPC   H4X 4184   1.618   2.727  27.042 -3.1059 -1.2841 -0.0758
   31SAPC   H4Y 4185   1.653   2.556  27.007  0.1278  0.3328 -0.5678
   31SAPC   C35 4186   1.518   2.648  26.867 -0.3703  0.0933  0.3432
   31SAPC   H5X 4187   1.504   2.550  26.817  0.0740 -1.2733  2.7209
   31SAPC   H5Y 4188   1.515   2.725  26.788 -0.3889 -0.9871 -0.7399
   31SAPC   C36 4189   1.393   2.647  26.953 -0.4397 -0.0724  0.4622
   31SAPC   H6X 4190   1.392   2.744  27.008 -1.8998  1.0670 -1.4341
   31SAPC   H6Y 4191   1.399   2.570  27.033 -0.2962  0.9383  1.4663
   31SAPC   C37 4192   1.264   2.631  26.871 -0.4517 -0.8683 -0.2899
   31SAPC   H7X 4193   1.276   2.537  26.813 -2.4984 -2.0614  1.0976
   31SAPC   H7Y 4194   1.256   2.716  26.800  0.1595 -1.3618 -0.9569
   31SAPC   C38 4195   1.123   2.626  26.953  0.1533  0.0745 -0.4234
   31SAPC   H8X 4196   1.098   2.726  26.995 -1.8725 -0.0958 -1.1170
   31SAPC   H8Y 4197   1.135   2.551  27.034 -1.3326 -0.2287 -0.4502
   31SAPC   C39 4198   0.998   2.590  26.879  0.1442  0.3105  0.4196
   31SAPC   H9X 4199   0.993   2.484  26.847  2.4558  0.1262  0.5159
   31SAPC   H9Y 4200   0.986   2.659  26.792 -0.9804  1.3359  1.3613
   31SAPC  C310 4201   0.875   2.615  26.973  0.5389 -0.2445  0.3357
   31SAPC  H10X 4202   0.875   2.722  27.000  1.2487  0.1115 -0.9991
   31SAPC  H10Y 4203   0.900   2.563  27.068 -1.3957 -0.0846  0.9601
   31SAPC  C311 4204   0.734   2.570  26.925  0.7494 -0.4972  0.2986
   31SAPC  H11X 4205   0.752   2.465  26.892 -0.3956 -1.1591  1.6634
   31SAPC  H11Y 4206   0.686   2.624  26.841  1.7831 -2.2673 -1.5134
   31SAPC  C312 4207   0.635   2.568  27.040 -0.6586  0.1002  0.2102
   31SAPC  H12X 4208   0.579   2.664  27.037  0.7691  0.9366 -1.2926
   31SAPC  H12Y 4209   0.685   2.555  27.138  0.7833 -2.3342 -0.7372
   31SAPC  C313 4210   0.530   2.457  27.016  0.1683  0.3716 -0.2280
   31SAPC  H13X 4211   0.597   2.368  27.014  1.3547  1.2450 -0.6204
   31SAPC  H13Y 4212   0.478   2.477  26.919 -1.5333 -0.7189  0.4194
   31SAPC  C314 4213   0.423   2.451  27.131 -0.0274 -0.0736 -0.0803
   31SAPC  H14X 4214   0.476   2.413  27.221 -2.6720  0.8538  2.0029
   31SAPC  H14Y 4215   0.347   2.372  27.109 -0.3149 -0.1800  1.1832
   31SAPC  C315 4216   0.348   2.580  27.160  0.0628  0.6574 -0.2339
   31SAPC  H15X 4217   0.306   2.616  27.064  0.2270 -1.9578 -1.3915
   31SAPC  H15Y 4218   0.423   2.652  27.200  2.0281 -1.1541 -0.4493
   31SAPC  C316 4219   0.223   2.557  27.246 -0.1588  0.2470 -0.7605
   31SAPC  H16X 4220   0.248   2.551  27.354  1.2433 -1.1281 -1.1135
   31SAPC  H16Y 4221   0.167   2.472  27.203 -1.9682  0.9827  0.0531
   31SAPC  C317 4222   0.129   2.677  27.218  0.3044 -0.1176  0.1863
   31SAPC  H17X 4223   0.108   2.688  27.110  2.3405 -1.5969 -0.4286
   31SAPC  H17Y 4224   0.170   2.776  27.249 -2.0185  0.9577 -0.0206
   31SAPC  C318 4225  -0.003   2.669  27.295 -0.1007 -0.0109  0.4067
   31SAPC  H18X 4226   0.013   2.645  27.403 -0.7595 -0.4755  0.4086
   31SAPC  H18Y 4227  -0.065   2.591  27.247 -1.4415  1.5477 -0.5119
   31SAPC  H18Z 4228  -0.045   2.769  27.272  3.5098  1.2974 -1.2762
   32SAPC     N 4229   2.107   1.803  26.163 -1.1764 -0.5179  0.3144
   32SAPC   C12 4230   2.062   1.884  26.285  0.3082  0.8338 -0.6822
   32SAPC  H12A 4231   2.080   1.990  26.272 -1.2757  0.9569 -2.2279
   32SAPC  H12B 4232   2.118   1.848  26.370 -1.2248  0.6086  0.2688
   32SAPC   C13 4233   2.041   1.854  26.042 -0.6916  0.1365 -0.7031
   32SAPC  H13A 4234   2.053   1.961  26.042 -0.4568  0.1236 -2.0516
   32SAPC  H13B 4235   2.083   1.804  25.956 -0.4411  0.0269 -0.5153
   32SAPC  H13C 4236   1.933   1.851  26.044 -0.6873  0.2306  0.0402
   32SAPC   C14 4237   2.256   1.828  26.150 -0.0468  0.2339  0.1713
   32SAPC  H14A 4238   2.309   1.763  26.219  1.7959  1.0430 -0.4337
   32SAPC  H14B 4239   2.285   1.812  26.047 -2.9690  1.7222 -1.0232
   32SAPC  H14C 4240   2.285   1.927  26.179 -0.7850  0.6568 -0.4856
   32SAPC   C15 4241   2.074   1.660  26.169 -0.0357 -0.5156  0.1525
   32SAPC  H15A 4242   1.967   1.644  26.171 -0.1472  0.0787  2.7390
   32SAPC  H15B 4243   2.129   1.589  26.109  0.4339 -0.3882  0.4286
   32SAPC  H15C 4244   2.113   1.622  26.262  1.6813  1.7927  0.4780
   32SAPC   C11 4245   1.915   1.868  26.327  0.5184 -0.5431 -0.9980
   32SAPC  H11A 4246   1.846   1.908  26.249 -0.0699 -1.1799 -0.8094
   32SAPC  H11B 4247   1.896   1.939  26.410 -0.3360  1.6136 -2.9120
   32SAPC     P 4248   1.931   1.676  26.515  0.3771  0.1756 -0.2428
   32SAPC   O13 4249   1.909   1.526  26.513  0.4549  0.0742  0.3311
   32SAPC   O14 4250   2.062   1.720  26.562 -0.6689  0.3199  0.1457
   32SAPC   O12 4251   1.884   1.734  26.372  0.1958 -0.3314 -0.0161
   32SAPC   O11 4252   1.821   1.734  26.614 -0.0796  0.4601 -0.2118
   32SAPC    C1 4253   1.684   1.676  26.604  0.2060  0.4256 -0.3544
   32SAPC    HA 4254   1.680   1.572  26.565  0.0871  0.9445 -1.8152
   32SAPC    HB 4255   1.649   1.670  26.709  1.0932  3.3003  0.1847
   32SAPC    C2 4256   1.588   1.758  26.520  0.4072 -0.2062  0.0401
   32SAPC    HS 4257   1.648   1.776  26.429 -1.7595  1.5047 -1.1418
   32SAPC   O21 4258   1.554   1.878  26.595  0.1961  0.0532  0.4293
   32SAPC   C21 4259   1.513   1.979  26.527  0.0345  0.0010  0.2396
   32SAPC   O22 4260   1.528   1.986  26.402  0.6054 -0.1797 -0.8635
   32SAPC   C22 4261   1.437   2.088  26.618  0.6295  0.0049 -0.0372
   32SAPC   H2R 4262   1.399   2.038  26.710 -2.3241 -0.3668 -1.3599
   32SAPC   H2S 4263   1.521   2.149  26.660  2.1458 -2.1032  0.1627
   32SAPC    C3 4264   1.462   1.672  26.479 -0.5088 -0.3501  0.5032
   32SAPC    HX 4265   1.399   1.656  26.569 -1.2298  2.0260  0.4998
   32SAPC    HY 4266   1.493   1.572  26.444 -1.2581 -1.2236  2.2302
   32SAPC   O31 4267   1.376   1.736  26.381  0.1015 -0.2897  0.0563
   32SAPC   C31 4268   1.419   1.734  26.256 -0.3251 -0.8894  0.0943
   32SAPC   O32 4269   1.517   1.669  26.216 -0.5011 -0.5440 -0.1404
   32SAPC   C32 4270   1.343   1.837  26.177 -0.3265  0.0327 -0.6347
   32SAPC   H2X 4271   1.407   1.863  26.090  1.4903 -0.0266  0.6289
   32SAPC   H2Y 4272   1.335   1.925  26.245  1.6340 -0.9880  1.0151
   32SAPC   C23 4273   1.339   2.177  26.546 -0.0532  0.0849  0.6326
   32SAPC   H3R 4274   1.386   2.206  26.449 -0.8712  1.7476  0.6936
   32SAPC   H3S 4275   1.328   2.278  26.592  0.7868  1.2995 -1.6380
   32SAPC   C24 4276   1.201   2.125  26.513  0.1908 -0.1085  0.8468
   32SAPC   H4R 4277   1.216   2.029  26.459  2.0914 -0.2224  1.5058
   32SAPC   H4S 4278   1.151   2.192  26.441  2.0247  1.8095  1.2796
   32SAPC   C25 4279   1.119   2.070  26.636  0.0807 -1.0661 -0.8000
   32SAPC   H5R 4280   1.168   1.992  26.697  2.4754 -0.0034 -1.2303
   32SAPC   C26 4281   0.984   2.084  26.666  0.1993 -0.0204  0.1526
   32SAPC   H6R 4282   0.944   2.042  26.760 -0.2770  0.3218  0.1071
   32SAPC   C27 4283   0.889   2.163  26.587  0.2421 -0.0245  0.6414
   32SAPC   H7R 4284   0.797   2.101  26.593  0.5939 -0.6395 -0.1368
   32SAPC   H7S 4285   0.916   2.173  26.480  1.8920 -0.1330  1.0305
   32SAPC   C28 4286   0.845   2.297  26.637 -0.6955  0.1662 -1.1166
   32SAPC   H8R 4287   0.815   2.289  26.742  0.9021 -0.1812 -0.6570
   32SAPC   C29 4288   0.855   2.423  26.589  0.2164 -0.6667 -0.7395
   32SAPC   H9R 4289   0.802   2.504  26.641  2.2701 -0.3425  0.9626
   32SAPC  C210 4290   0.916   2.462  26.461  0.1522  0.3075  0.6344
   32SAPC  H10R 4291   0.850   2.507  26.384  0.9366 -1.6372 -1.2728
   32SAPC  H10S 4292   0.942   2.365  26.413  1.2920  1.2736 -0.7701
   32SAPC  C211 4293   1.038   2.544  26.484  0.1936  0.1222  0.0339
   32SAPC  H11R 4294   1.122   2.492  26.532  0.9798  0.9226 -0.4359
   32SAPC  C212 4295   1.054   2.674  26.457 -0.1696  0.0183  0.7384
   32SAPC  H12R 4296   1.154   2.716  26.470 -1.3960  3.9736 -1.1336
   32SAPC  C213 4297   0.947   2.754  26.383  0.0616 -0.8547  0.1179
   32SAPC  H13R 4298   0.855   2.768  26.443  0.3244  2.4173 -0.0355
   32SAPC  H13S 4299   0.913   2.701  26.292 -1.0500  1.6712 -1.0597
   32SAPC  C214 4300   0.990   2.894  26.335  0.3553 -0.3164  0.2061
   32SAPC  H14R 4301   1.086   2.903  26.282  0.2021  0.4310  0.0433
   32SAPC  C215 4302   0.917   3.005  26.333  0.1301  0.6694  0.2338
   32SAPC  H15R 4303   0.955   3.094  26.281 -1.3776  2.7056  2.3902
   32SAPC  C216 4304   0.774   3.014  26.377  0.6000 -0.4855 -0.0849
   32SAPC  H16R 4305   0.747   2.969  26.475  1.1802 -2.3091 -0.7283
   32SAPC  H16S 4306   0.692   2.979  26.310 -0.9559 -3.4260  3.0533
   32SAPC  C217 4307   0.743   3.162  26.411  0.3266 -0.4202 -0.2125
   32SAPC  H17R 4308   0.830   3.207  26.464  1.4761 -1.2108 -1.3584
   32SAPC  H17S 4309   0.665   3.158  26.490  0.0355 -1.1536 -0.5278
   32SAPC  C218 4310   0.707   3.266  26.301 -0.4087 -0.4616 -0.1003
   32SAPC  H18R 4311   0.782   3.267  26.220 -0.4876  0.6618 -0.1639
   32SAPC  H18S 4312   0.695   3.360  26.359  1.7498 -0.0572 -0.2235
   32SAPC  C219 4313   0.568   3.221  26.244  0.1114  0.9536 -0.0360
   32SAPC  H19R 4314   0.488   3.215  26.321  0.4491 -3.3364  0.1893
   32SAPC  H19S 4315   0.580   3.120  26.198 -1.2704  0.6088  0.3184
   32SAPC  C220 4316   0.524   3.314  26.127  0.7463  0.5581  0.6157
   32SAPC  H20R 4317   0.527   3.420  26.160 -0.3573  0.4084  1.2589
   32SAPC  H20S 4318   0.423   3.281  26.093  1.3259 -1.7233  0.9334
   32SAPC  H20T 4319   0.589   3.306  26.038  0.6253  2.6461  0.2930
   32SAPC   C33 4320   1.214   1.796  26.121  0.2502 -0.0618 -0.1144
   32SAPC   H3X 4321   1.229   1.741  26.025 -2.7362 -0.2169 -0.5876
   32SAPC   H3Y 4322   1.158   1.884  26.085  0.0891  0.1245  0.5752
   32SAPC   C34 4323   1.115   1.707  26.197 -0.3843 -0.0036 -0.4931
   32SAPC   H4X 4324   1.164   1.632  26.263 -1.0487  0.7065  0.8423
   32SAPC   H4Y 4325   1.053   1.652  26.123 -2.2954  1.8756 -0.3795
   32SAPC   C35 4326   1.022   1.779  26.306  0.6062  0.5510  0.0661
   32SAPC   H5X 4327   1.082   1.840  26.378 -1.1709 -0.8476  2.9142
   32SAPC   H5Y 4328   0.953   1.711  26.360 -1.8767  0.2459 -3.2271
   32SAPC   C36 4329   0.926   1.883  26.242 -0.0904 -0.0591 -0.3411
   32SAPC   H6X 4330   0.975   1.957  26.175 -3.3242  1.8782 -0.7948
   32SAPC   H6Y 4331   0.874   1.931  26.327  1.3965 -0.9670  1.1261
   32SAPC   C37 4332   0.814   1.818  26.159 -0.2907 -0.6971  0.4837
   32SAPC   H7X 4333   0.770   1.724  26.201 -1.3474  0.5946  2.4112
   32SAPC   H7Y 4334   0.856   1.795  26.059 -0.3451  0.6627  0.1312
   32SAPC   C38 4335   0.690   1.915  26.144 -0.2625  0.8652 -0.1674
   32SAPC   H8X 4336   0.726   2.013  26.106 -1.3330  1.1184 -0.5533
   32SAPC   H8Y 4337   0.658   1.933  26.249 -1.9140 -2.7362  0.0975
   32SAPC   C39 4338   0.570   1.884  26.055 -0.5846 -0.2587 -0.0032
   32SAPC   H9X 4339   0.614   1.884  25.953 -1.0988  0.9280 -0.2397
   32SAPC   H9Y 4340   0.500   1.970  26.055 -0.3304  0.0512 -3.0724
   32SAPC  C310 4341   0.500   1.758  26.088  0.0814  0.9442  0.6104
   32SAPC  H10X 4342   0.572   1.674  26.086 -0.3468  0.5236 -2.2338
   32SAPC  H10Y 4343   0.424   1.740  26.009  0.0450  1.1039  0.6065
   32SAPC  C311 4344   0.420   1.752  26.225  0.3819 -0.0258  0.6775
   32SAPC  H11X 4345   0.374   1.852  26.235  0.8257  0.1890  0.6287
   32SAPC  H11Y 4346   0.483   1.732  26.314  0.3749  0.8463  0.8838
   32SAPC  C312 4347   0.311   1.649  26.224  0.0725 -0.4069  0.2128
   32SAPC  H12X 4348   0.342   1.547  26.192 -2.9912 -1.9685  1.8149
   32SAPC  H12Y 4349   0.245   1.689  26.144  0.0580  0.4278  0.6303
   32SAPC  C313 4350   0.223   1.656  26.348 -0.0158 -0.2734  0.2727
   32SAPC  H13X 4351   0.289   1.650  26.437 -0.2510 -2.6297  0.3484
   32SAPC  H13Y 4352   0.165   1.562  26.336  0.4171 -0.7858  2.0313
   32SAPC  C314 4353   0.126   1.771  26.368  0.3158 -0.0607 -0.1487
   32SAPC  H14X 4354   0.041   1.750  26.300 -0.3381  2.0404 -0.0283
   32SAPC  H14Y 4355   0.174   1.865  26.333  0.8111 -1.3482 -3.2538
   32SAPC  C315 4356   0.075   1.776  26.515 -0.5948 -0.3097  0.0487
   32SAPC  H15X 4357   0.168   1.763  26.575 -0.1555  0.0224 -0.5541
   32SAPC  H15Y 4358   0.012   1.689  26.547 -0.5231 -0.8020 -1.1135
   32SAPC  C316 4359   0.009   1.914  26.545 -0.5288 -1.2365  0.3300
   32SAPC  H16X 4360  -0.090   1.911  26.496 -0.7830  2.0293  0.4223
   32SAPC  H16Y 4361   0.069   1.993  26.494 -4.4226  1.8404  0.0962
   32SAPC  C317 4362   0.004   1.946  26.690  0.0761  0.4854 -0.4645
   32SAPC  H17X 4363   0.106   1.950  26.734 -0.8346 -1.4857  2.0521
   32SAPC  H17Y 4364  -0.045   1.856  26.732 -1.0065  0.6300 -1.3726
   32SAPC  C318 4365  -0.061   2.074  26.742  0.3694 -0.1381  0.3660
   32SAPC  H18X 4366  -0.038   2.112  26.844  0.9006  0.8194 -0.1031
   32SAPC  H18Y 4367  -0.171   2.071  26.732  0.4270  1.0644 -0.8515
   32SAPC  H18Z 4368  -0.038   2.153  26.668 -3.3357  0.4816 -0.2752
   33POPC     N 4369   1.139   1.911  36.638  0.2486  0.1144  0.3791
   33POPC   C12 4370   1.050   2.012  36.709 -0.8381  0.0356 -0.1404
   33POPC  H12A 4371   1.092   2.110  36.688  0.7644 -0.8027 -1.0164
   33POPC  H12B 4372   1.070   1.989  36.812  2.3306 -0.0406 -0.6590
   33POPC   C13 4373   1.274   1.910  36.703 -0.0134 -0.2289 -0.0363
   33POPC  H13A 4374   1.330   2.002  36.700 -1.5502  0.7078 -1.5337
   33POPC  H13B 4375   1.273   1.874  36.805  1.9214 -0.1793  0.0462
   33POPC  H13C 4376   1.339   1.841  36.650  0.1788 -0.5081  0.5444
   33POPC   C14 4377   1.082   1.770  36.657 -0.3005 -0.6845 -0.2285
   33POPC  H14A 4378   0.992   1.755  36.599 -0.0256  1.0374 -1.1655
   33POPC  H14B 4379   1.163   1.702  36.637  1.0904 -0.5832  4.0287
   33POPC  H14C 4380   1.042   1.752  36.756  1.8638 -0.8666  0.6572
   33POPC   C15 4381   1.164   1.940  36.494  0.3045 -0.2860  1.2753
   33POPC  H15A 4382   1.073   1.971  36.446  0.2292 -2.0644  0.2009
   33POPC  H15B 4383   1.193   1.851  36.441 -1.8931 -1.7985  2.4829
   33POPC  H15C 4384   1.233   2.021  36.475  0.2836 -1.0078 -2.8702
   33POPC   C11 4385   0.896   2.020  36.696  0.2670  0.7651 -0.0922
   33POPC  H11A 4386   0.860   2.109  36.752 -0.5590  0.7685 -0.6052
   33POPC  H11B 4387   0.866   1.931  36.755  0.8308  0.6803  0.0726
   33POPC     P 4388   0.857   2.137  36.457 -0.3506  0.0186 -0.4479
   33POPC   O13 4389   0.804   2.095  36.329  0.2300  0.2648  0.2662
   33POPC   O14 4390   0.988   2.195  36.456 -0.4536 -0.8976 -0.0876
   33POPC   O12 4391   0.845   2.020  36.564 -0.3523  0.0081 -0.3551
   33POPC   O11 4392   0.771   2.246  36.518  0.1362 -0.4925 -0.0309
   33POPC    C1 4393   0.627   2.218  36.540  0.0259 -0.5208 -0.5570
   33POPC    HA 4394   0.584   2.147  36.466 -0.6524 -0.1732 -0.4988
   33POPC    HB 4395   0.624   2.165  36.638  3.2361 -1.5702 -0.8852
   33POPC    C2 4396   0.545   2.353  36.555 -0.0757 -0.1521 -0.0719
   33POPC    HS 4397   0.616   2.425  36.600  0.1785  0.8117 -1.9077
   33POPC   O21 4398   0.437   2.326  36.650 -0.1416  0.1934  0.9288
   33POPC   C21 4399   0.365   2.430  36.680  0.2735  0.2534 -0.0808
   33POPC   O22 4400   0.388   2.544  36.655 -0.1445 -0.1765 -0.3055
   33POPC   C22 4401   0.240   2.377  36.757  1.0685 -0.4712  0.0051
   33POPC   H2R 4402   0.264   2.331  36.855 -0.7537 -0.4860  0.4797
   33POPC   H2S 4403   0.189   2.303  36.691  2.7312 -0.0134 -1.8792
   33POPC    C3 4404   0.511   2.402  36.411 -0.6749  0.6280  0.0193
   33POPC    HX 4405   0.606   2.397  36.353  0.5484 -0.6125  1.9828
   33POPC    HY 4406   0.477   2.508  36.405 -2.5133  0.0644 -0.0257
   33POPC   O31 4407   0.412   2.316  36.353  0.4926 -0.4037 -0.4450
   33POPC   C31 4408   0.400   2.313  36.220  0.5034 -0.5592  0.0546
   33POPC   O32 4409   0.465   2.383  36.147  0.6421 -0.4907  0.5158
   33POPC   C32 4410   0.302   2.196  36.186  0.0127 -0.1206 -0.8718
   33POPC   H2X 4411   0.203   2.209  36.236  0.3723 -0.5892 -0.0128
   33POPC   H2Y 4412   0.343   2.116  36.251 -0.4064  1.1105  0.9959
   33POPC   C23 4413   0.143   2.495  36.781 -0.7141 -0.3263  0.7319
   33POPC   H3R 4414   0.128   2.555  36.689  0.3345 -1.4310 -0.2071
   33POPC   H3S 4415   0.189   2.558  36.861 -1.3341  1.3837 -0.2243
   33POPC   C24 4416   0.002   2.448  36.818 -0.5094  0.0717 -0.1911
   33POPC   H4R 4417  -0.007   2.384  36.909 -2.3825 -0.0248 -0.3957
   33POPC   H4S 4418  -0.027   2.382  36.734 -0.8997 -0.2556  0.1980
   33POPC   C25 4419  -0.087   2.573  36.832  0.0056  0.3843 -0.1788
   33POPC   H5R 4420  -0.123   2.616  36.736 -4.6070  3.2787  2.4668
   33POPC   H5S 4421  -0.041   2.654  36.892 -0.3628  0.4626  0.0005
   33POPC   C26 4422  -0.216   2.543  36.915 -0.0247 -0.5294  0.4438
   33POPC   H6R 4423  -0.289   2.624  36.936 -3.9215 -3.1002 -1.8614
   33POPC   H6S 4424  -0.171   2.508  37.011  1.6507  0.6458  0.1369
   33POPC   C27 4425  -0.311   2.434  36.863 -0.4296  0.3652 -0.3103
   33POPC   H7R 4426  -0.253   2.339  36.856  1.2528  1.2771  0.6985
   33POPC   H7S 4427  -0.351   2.458  36.762 -2.9659  1.5971  0.9072
   33POPC   C28 4428  -0.435   2.410  36.948  0.4236  0.1717 -0.5855
   33POPC   H8R 4429  -0.503   2.346  36.887 -0.6465 -2.0391  2.6500
   33POPC   H8S 4430  -0.500   2.499  36.958 -0.4602 -0.6442  1.7017
   33POPC   C29 4431  -0.412   2.352  37.079 -0.4171  0.2285 -0.1830
   33POPC   H91 4432  -0.338   2.397  37.145  3.8261 -1.4441 -3.3273
   33POPC  C210 4433  -0.486   2.252  37.124  0.1858 -0.3210 -0.7022
   33POPC  H101 4434  -0.473   2.212  37.226 -2.9021  2.0248  0.8089
   33POPC  C211 4435  -0.596   2.187  37.042  0.6733 -0.3183  0.0180
   33POPC  H11R 4436  -0.552   2.109  36.976 -0.6590 -0.5762 -0.6160
   33POPC  H11S 4437  -0.646   2.262  36.976 -2.7813  0.0155  2.7338
   33POPC  C212 4438  -0.703   2.119  37.134 -0.1151 -0.2450 -0.4265
   33POPC  H12R 4439  -0.748   2.205  37.188  2.0991  2.1920 -2.1932
   33POPC  H12S 4440  -0.660   2.045  37.206  0.0971  1.4503  1.2674
   33POPC  C213 4441  -0.822   2.051  37.061 -0.4639  0.4808  0.0557
   33POPC  H13R 4442  -0.877   2.009  37.147  0.6023 -2.5075 -0.6009
   33POPC  H13S 4443  -0.784   1.962  37.006  0.1332 -1.8119  3.8358
   33POPC  C214 4444  -0.906   2.142  36.977 -1.0560 -0.2951 -0.4472
   33POPC  H14R 4445  -0.842   2.204  36.911 -0.4856 -1.0453 -0.6080
   33POPC  H14S 4446  -0.955   2.216  37.045 -2.2333 -1.4826  0.0724
   33POPC  C215 4447  -1.004   2.060  36.896  0.1340  0.1591  0.6620
   33POPC  H15R 4448  -1.038   1.976  36.960  2.5808 -2.3056 -1.0728
   33POPC  H15S 4449  -0.946   2.009  36.816 -4.0411 -3.0008 -0.7169
   33POPC  C216 4450  -1.122   2.141  36.836  0.5115 -0.2398  0.2096
   33POPC  H16R 4451  -1.208   2.145  36.905  1.2175  1.9748  1.0542
   33POPC  H16S 4452  -1.169   2.083  36.754 -0.3885  0.1165  0.4623
   33POPC  C217 4453  -1.099   2.277  36.767  0.5067  0.0194 -0.2249
   33POPC  H17R 4454  -1.048   2.340  36.844 -0.6896 -1.5405  1.9799
   33POPC  H17S 4455  -1.193   2.329  36.738  1.2902  1.1388 -0.8379
   33POPC  C218 4456  -1.012   2.268  36.640  0.3046 -0.0084 -0.6940
   33POPC  H18R 4457  -0.907   2.241  36.665  0.4665  0.4944 -0.8113
   33POPC  H18S 4458  -1.006   2.362  36.581 -1.6910  0.7147  0.1778
   33POPC  H18T 4459  -1.052   2.191  36.571 -1.0328  1.2685 -1.4063
   33POPC   C33 4460   0.282   2.148  36.047 -0.6483  0.3779 -0.3731
   33POPC   H3X 4461   0.206   2.067  36.042  1.1304 -1.3913  0.1545
   33POPC   H3Y 4462   0.379   2.105  36.015 -0.4108  1.8201 -1.7364
   33POPC   C34 4463   0.235   2.254  35.949 -0.5232  0.3583 -0.0715
   33POPC   H4X 4464   0.216   2.224  35.844  0.2657 -1.4074  0.2613
   33POPC   H4Y 4465   0.321   2.325  35.949  0.0755 -0.3063  1.8549
   33POPC   C35 4466   0.109   2.338  35.990  0.0237  0.1238  0.0830
   33POPC   H5X 4467   0.090   2.342  36.099 -1.2173  1.2895 -0.1490
   33POPC   H5Y 4468   0.025   2.281  35.945 -0.6564  0.4843  0.8722
   33POPC   C36 4469   0.105   2.478  35.923  0.1419 -0.9478  0.2958
   33POPC   H6X 4470   0.003   2.507  35.892  0.0680  1.0579  2.1336
   33POPC   H6Y 4471   0.154   2.471  35.824 -2.3227 -0.2546 -1.0598
   33POPC   C37 4472   0.172   2.591  36.007 -0.8160 -0.1154 -0.6509
   33POPC   H7X 4473   0.278   2.561  36.010 -0.5513  0.8399 -0.0373
   33POPC   H7Y 4474   0.139   2.595  36.113 -3.9428 -1.3982 -1.4509
   33POPC   C38 4475   0.168   2.732  35.945  0.5513  0.7422  0.2995
   33POPC   H8X 4476   0.199   2.723  35.838  0.0261  1.2633  0.0970
   33POPC   H8Y 4477   0.250   2.789  35.992  0.0459  0.4134  1.6037
   33POPC   C39 4478   0.031   2.799  35.964  0.7894 -0.6626 -0.0900
   33POPC   H9X 4479   0.010   2.827  36.069 -0.0475 -0.3447 -0.3353
   33POPC   H9Y 4480  -0.047   2.730  35.925  1.4282 -1.6847  0.4050
   33POPC  C310 4481   0.026   2.939  35.882 -0.1472  0.4743 -0.3532
   33POPC  H10X 4482   0.063   2.919  35.779  1.3248 -2.2031  0.6047
   33POPC  H10Y 4483   0.085   3.014  35.938 -1.9314 -1.4246  4.5744
   33POPC  C311 4484  -0.116   2.999  35.881  0.2200 -0.7547 -0.1364
   33POPC  H11X 4485  -0.194   2.938  35.831 -1.3550  1.1423 -0.1328
   33POPC  H11Y 4486  -0.115   3.093  35.821  0.8056 -2.0992 -2.3249
   33POPC  C312 4487  -0.171   3.024  36.026  0.0972  0.0250 -0.8792
   33POPC  H12X 4488  -0.095   3.080  36.086 -1.1961 -0.4897  1.3707
   33POPC  H12Y 4489  -0.182   2.931  36.086  2.5159  0.9000  1.0925
   33POPC  C313 4490  -0.296   3.117  36.024  0.3199  0.1144  0.8196
   33POPC  H13X 4491  -0.269   3.216  35.983 -0.7339 -0.0570 -0.3559
   33POPC  H13Y 4492  -0.335   3.131  36.127 -1.8741  0.0365  0.0700
   33POPC  C314 4493  -0.414   3.060  35.944  0.0739  0.3213 -0.1163
   33POPC  H14X 4494  -0.420   2.954  35.977  0.5992  0.2427 -0.2693
   33POPC  H14Y 4495  -0.398   3.070  35.835  1.6007  2.9095  0.2601
   33POPC  C315 4496  -0.544   3.121  35.974  0.0369 -0.7285 -0.6379
   33POPC  H15X 4497  -0.533   3.229  35.952  0.4128 -0.8337 -0.9914
   33POPC  H15Y 4498  -0.551   3.123  36.084  0.1001  1.0892 -0.6371
   33POPC  C316 4499  -0.666   3.067  35.907 -0.1268 -0.0237  0.2554
   33POPC  H16X 4500  -0.757   3.074  35.970  1.9915 -0.5578  3.6462
   33POPC  H16Y 4501  -0.651   2.959  35.886  1.5393  0.1347  0.4846
   33POPC  H16Z 4502  -0.688   3.125  35.815  0.9981 -0.7676 -0.5067
   34POPC     N 4503   1.060   1.343  35.540  0.4840 -0.3251  0.1440
   34POPC   C12 4504   1.207   1.355  35.572 -0.0670  0.5164  0.0352
   34POPC  H12A 4505   1.222   1.450  35.621  1.5285 -0.1277  0.8839
   34POPC  H12B 4506   1.262   1.364  35.479 -2.8853  1.7683 -1.6367
   34POPC   C13 4507   1.027   1.231  35.448 -0.4955 -0.2084 -0.0231
   34POPC  H13A 4508   0.920   1.220  35.442 -0.3923 -0.7918 -0.9554
   34POPC  H13B 4509   1.068   1.262  35.353  1.9535  1.4534  1.4458
   34POPC  H13C 4510   1.068   1.138  35.483  0.4132  0.9784  2.2844
   34POPC   C14 4511   0.979   1.328  35.664  0.0290 -0.3478  0.2704
   34POPC  H14A 4512   0.973   1.421  35.719 -3.4577  0.9458 -1.9639
   34POPC  H14B 4513   0.880   1.305  35.628  0.9336  1.4123 -3.9278
   34POPC  H14C 4514   1.022   1.256  35.732  2.1964  2.5071  2.1495
   34POPC   C15 4515   1.015   1.475  35.479 -0.1767 -0.7149 -0.0727
   34POPC  H15A 4516   0.913   1.468  35.445 -0.1295 -0.9833 -0.1611
   34POPC  H15B 4517   1.070   1.507  35.392 -1.2071  1.8397  0.1269
   34POPC  H15C 4518   1.035   1.554  35.551  1.4916 -0.0786 -1.1864
   34POPC   C11 4519   1.263   1.247  35.668  0.7189 -0.0021  0.0635
   34POPC  H11A 4520   1.369   1.237  35.637  0.3041  0.5835 -1.6931
   34POPC  H11B 4521   1.212   1.149  35.649 -1.2709  0.9210  0.3841
   34POPC     P 4522   1.289   1.400  35.880 -0.0417 -0.3955  0.0623
   34POPC   O13 4523   1.387   1.366  35.983  0.1452 -0.1936  0.7030
   34POPC   O14 4524   1.173   1.481  35.922  0.0605 -0.0618 -0.2067
   34POPC   O12 4525   1.239   1.275  35.810 -0.2532 -0.6317  0.0278
   34POPC   O11 4526   1.364   1.486  35.775  0.4925  0.4053 -0.0366
   34POPC    C1 4527   1.449   1.595  35.801 -0.6093 -0.0899  0.1594
   34POPC    HA 4528   1.414   1.642  35.895  0.2005  0.7766  0.0369
   34POPC    HB 4529   1.444   1.679  35.729 -0.2859  1.5439  1.9786
   34POPC    C2 4530   1.598   1.547  35.814  0.1607 -0.1203 -0.7867
   34POPC    HS 4531   1.613   1.484  35.904 -0.1585  1.4093  0.3772
   34POPC   O21 4532   1.680   1.664  35.803  0.1717  0.3412 -0.1167
   34POPC   C21 4533   1.693   1.735  35.909 -0.1340 -1.1735  0.3536
   34POPC   O22 4534   1.637   1.708  36.015  0.1361 -0.1913  0.3317
   34POPC   C22 4535   1.789   1.837  35.875 -0.4417 -0.5695 -0.3344
   34POPC   H2R 4536   1.749   1.923  35.816  2.1395 -2.3925 -5.4065
   34POPC   H2S 4537   1.876   1.800  35.817  0.8588 -1.3274  1.9724
   34POPC    C3 4538   1.641   1.449  35.704  0.3253  0.0397 -0.5276
   34POPC    HX 4539   1.618   1.493  35.604 -1.1551 -1.8388 -1.0796
   34POPC    HY 4540   1.575   1.360  35.719  1.7758 -0.6440  2.5413
   34POPC   O31 4541   1.773   1.402  35.730 -0.0648  0.6131  0.3615
   34POPC   C31 4542   1.813   1.307  35.633 -0.9099 -0.0154 -0.3400
   34POPC   O32 4543   1.743   1.267  35.543 -0.4680  0.4682  0.4805
   34POPC   C32 4544   1.957   1.267  35.659  0.6740 -0.1013 -0.4327
   34POPC   H2X 4545   1.958   1.197  35.746 -2.7699  2.1781  1.6919
   34POPC   H2Y 4546   2.009   1.359  35.694 -1.2908  1.3033 -1.0449
   34POPC   C23 4547   1.859   1.899  35.997 -0.3262  0.1148 -0.0754
   34POPC   H3R 4548   1.885   1.818  36.068 -1.6966 -0.5170 -0.2798
   34POPC   H3S 4549   1.809   1.966  36.070  1.2694 -0.1193  1.3046
   34POPC   C24 4550   1.978   1.985  35.958  0.1253 -0.9239  0.3537
   34POPC   H4R 4551   1.929   2.060  35.894 -0.4871 -0.4134  1.3891
   34POPC   H4S 4552   2.052   1.929  35.897 -0.4631 -3.3529  1.7081
   34POPC   C25 4553   2.058   2.062  36.068 -0.1353  0.5405 -0.0731
   34POPC   H5R 4554   2.081   1.985  36.145 -3.8281 -1.8770 -1.0683
   34POPC   H5S 4555   1.988   2.126  36.126 -0.4993 -0.6623  0.8609
   34POPC   C26 4556   2.175   2.141  36.015  0.0835 -0.5189  0.0563
   34POPC   H6R 4557   2.199   2.213  36.097 -1.6113 -0.3518  0.4496
   34POPC   H6S 4558   2.162   2.206  35.926  1.3436 -0.5679 -0.1796
   34POPC   C27 4559   2.296   2.051  35.980 -0.2842 -0.8307  0.6341
   34POPC   H7R 4560   2.254   1.964  35.924 -1.3550  0.4330 -0.5960
   34POPC   H7S 4561   2.326   2.008  36.078 -1.1786 -0.2257  1.1903
   34POPC   C28 4562   2.409   2.122  35.902  0.0444  0.3019 -0.3434
   34POPC   H8R 4563   2.371   2.182  35.817 -0.6444  0.2294 -0.1045
   34POPC   H8S 4564   2.467   2.040  35.855 -2.0885 -0.7353 -1.3190
   34POPC   C29 4565   2.500   2.204  35.989 -0.1458 -0.5582  1.1895
   34POPC   H91 4566   2.440   2.282  36.038  1.5205  1.1492  0.6293
   34POPC  C210 4567   2.637   2.208  36.014  0.2681 -0.7388 -0.3406
   34POPC  H101 4568   2.687   2.285  36.075 -0.5739  0.2383 -0.8536
   34POPC  C211 4569   2.733   2.116  35.959  0.8340  0.3075 -0.3908
   34POPC  H11R 4570   2.699   2.079  35.860 -1.5881  1.2388  0.0184
   34POPC  H11S 4571   2.759   2.033  36.028  3.2206  1.4685  0.2370
   34POPC  C212 4572   2.876   2.170  35.929 -0.7564  0.4447 -0.6078
   34POPC  H12R 4573   2.948   2.089  35.907  0.4315  1.3083 -0.0186
   34POPC  H12S 4574   2.923   2.215  36.019  0.5805  0.6110 -1.3664
   34POPC  C213 4575   2.894   2.273  35.817  0.3663  0.3070 -0.0126
   34POPC  H13R 4576   2.815   2.347  35.846  1.3431  0.9264  1.1986
   34POPC  H13S 4577   2.860   2.233  35.719 -2.0698  1.9415  0.0808
   34POPC  C214 4578   3.028   2.344  35.830  0.5643 -0.7749 -0.3387
   34POPC  H14R 4579   3.112   2.276  35.806 -0.6375 -3.6115  2.6708
   34POPC  H14S 4580   3.028   2.384  35.933 -0.1725  0.0417 -0.6406
   34POPC  C215 4581   3.028   2.465  35.734 -0.5983 -0.8143  0.1448
   34POPC  H15R 4582   2.971   2.535  35.798 -1.9761 -1.6233 -0.1583
   34POPC  H15S 4583   2.981   2.431  35.639 -0.3997 -1.8488  0.4050
   34POPC  C216 4584   3.163   2.516  35.707  0.0994 -0.9759 -0.3402
   34POPC  H16R 4585   3.228   2.437  35.663 -0.1512 -1.1910 -0.3249
   34POPC  H16S 4586   3.223   2.535  35.799  1.3684  0.4594 -1.4085
   34POPC  C217 4587   3.158   2.641  35.619 -0.2858  0.0976 -0.6019
   34POPC  H17R 4588   3.128   2.622  35.513  1.3688 -3.4766 -0.5990
   34POPC  H17S 4589   3.265   2.669  35.609 -0.3343 -0.3473 -3.3548
   34POPC  C218 4590   3.077   2.754  35.686 -0.7671 -0.9139  0.0335
   34POPC  H18R 4591   3.092   2.746  35.796 -0.2807 -0.4176  0.0116
   34POPC  H18S 4592   2.969   2.732  35.671 -0.5959 -1.5015 -0.3878
   34POPC  H18T 4593   3.096   2.856  35.647  0.2965 -1.1108 -0.0060
   34POPC   C33 4594   2.025   1.198  35.536 -0.3286 -0.0280 -0.8471
   34POPC   H3X 4595   1.963   1.109  35.512 -0.9936  0.5144 -1.1661
   34POPC   H3Y 4596   2.120   1.158  35.578  1.0436  2.2912 -1.5535
   34POPC   C34 4597   2.040   1.300  35.423 -0.3756 -0.2352 -0.6838
   34POPC   H4X 4598   2.092   1.387  35.468  1.6154 -1.0233 -1.3522
   34POPC   H4Y 4599   1.940   1.331  35.386 -0.3707  2.0390  1.0175
   34POPC   C35 4600   2.142   1.247  35.333  0.0145 -0.3197 -0.0858
   34POPC   H5X 4601   2.113   1.142  35.310  0.6651 -1.1628  2.5449
   34POPC   H5Y 4602   2.239   1.235  35.387  0.0043 -0.6993 -0.1453
   34POPC   C36 4603   2.190   1.342  35.221 -0.1051 -0.9157  0.2575
   34POPC   H6X 4604   2.100   1.384  35.171  1.1597  0.4193 -1.0499
   34POPC   H6Y 4605   2.255   1.285  35.151  0.2220  1.0741 -1.1574
   34POPC   C37 4606   2.261   1.462  35.281 -0.3806 -0.7287 -0.1302
   34POPC   H7X 4607   2.202   1.523  35.353 -1.6948 -2.0698 -0.0185
   34POPC   H7Y 4608   2.250   1.541  35.202  1.4541  0.9008  1.1431
   34POPC   C38 4609   2.415   1.444  35.304  0.4134 -0.8376  0.2191
   34POPC   H8X 4610   2.457   1.356  35.250 -0.8853 -1.4662  0.1998
   34POPC   H8Y 4611   2.430   1.429  35.413  0.6303  1.4832  0.5509
   34POPC   C39 4612   2.502   1.551  35.249  0.0552  0.1744  0.0294
   34POPC   H9X 4613   2.463   1.649  35.284  0.0826  0.0558  0.4023
   34POPC   H9Y 4614   2.484   1.555  35.140  1.0249 -1.1017 -0.2032
   34POPC  C310 4615   2.650   1.523  35.282 -0.7154 -0.4124  0.0861
   34POPC  H10X 4616   2.662   1.413  35.278 -3.0851 -0.6753 -1.4114
   34POPC  H10Y 4617   2.674   1.563  35.383 -1.4817 -0.2518  0.2109
   34POPC  C311 4618   2.744   1.586  35.178 -0.7135 -0.6406 -0.6701
   34POPC  H11X 4619   2.705   1.684  35.141 -0.5021 -0.9163 -1.6505
   34POPC  H11Y 4620   2.736   1.516  35.093 -1.9204  0.1112 -1.2074
   34POPC  C312 4621   2.883   1.606  35.238 -0.4011  0.3493  0.0266
   34POPC  H12X 4622   2.895   1.521  35.309  0.2187  0.0160 -0.4664
   34POPC  H12Y 4623   2.887   1.698  35.300  3.1572  0.0377  0.4261
   34POPC  C313 4624   2.987   1.608  35.125  0.1061 -0.5256 -0.6493
   34POPC  H13X 4625   2.942   1.691  35.066 -1.0734  0.6592  1.7720
   34POPC  H13Y 4626   2.982   1.507  35.079  2.1769 -1.0107  0.0788
   34POPC  C314 4627   3.126   1.646  35.171 -0.2216 -0.2494 -0.4474
   34POPC  H14X 4628   3.117   1.729  35.244  0.6003  0.9849 -1.6942
   34POPC  H14Y 4629   3.192   1.685  35.090  1.1980 -0.5590  0.5235
   34POPC  C315 4630   3.202   1.528  35.233 -0.8090 -0.0855 -0.4644
   34POPC  H15X 4631   3.118   1.482  35.290 -1.1032  0.4273 -0.4757
   34POPC  H15Y 4632   3.276   1.579  35.299 -1.8834  0.3869  0.4141
   34POPC  C316 4633   3.266   1.432  35.139  1.1687 -0.3433 -0.1803
   34POPC  H16X 4634   3.198   1.364  35.084  0.7649  0.7448 -1.0535
   34POPC  H16Y 4635   3.334   1.368  35.200 -1.4755 -1.1159  2.1543
   34POPC  H16Z 4636   3.331   1.497  35.076  1.6540 -0.0451  0.6054
   35POPC     N 4637   3.004   0.588  42.487  0.1754 -0.2088  0.4258
   35POPC   C12 4638   2.909   0.682  42.410 -0.5524 -0.1376 -0.1191
   35POPC  H12A 4639   2.885   0.765  42.474  1.8192  0.0640  0.5968
   35POPC  H12B 4640   2.823   0.626  42.375  0.2598 -1.1289 -0.5955
   35POPC   C13 4641   3.040   0.471  42.414  0.4954  0.3896 -0.7037
   35POPC  H13A 4642   3.093   0.500  42.324  0.0074  2.9105 -0.2614
   35POPC  H13B 4643   3.087   0.390  42.469 -2.0651  0.1398  1.2898
   35POPC  H13C 4644   2.956   0.420  42.369  1.2624 -3.0769  1.4096
   35POPC   C14 4645   3.128   0.654  42.538 -0.1476 -0.7527 -0.1886
   35POPC  H14A 4646   3.173   0.587  42.609  1.1641 -0.7189 -0.9623
   35POPC  H14B 4647   3.200   0.661  42.457  1.2775 -0.0483  1.0914
   35POPC  H14C 4648   3.109   0.751  42.581  0.6900 -1.5658  2.1761
   35POPC   C15 4649   2.934   0.528  42.603  0.7936  0.0577  0.1217
   35POPC  H15A 4650   2.888   0.598  42.672 -1.6593 -0.7619 -0.5857
   35POPC  H15B 4651   3.002   0.459  42.649  1.5108 -1.4952 -2.9783
   35POPC  H15C 4652   2.849   0.476  42.561  1.3729  0.0700 -1.1229
   35POPC   C11 4653   2.965   0.754  42.287 -1.0847 -0.5569 -0.3579
   35POPC  H11A 4654   3.058   0.805  42.322 -0.0771 -1.4736 -1.5938
   35POPC  H11B 4655   2.887   0.827  42.256  0.5648  0.7171 -1.7362
   35POPC     P 4656   2.909   0.619  42.070 -0.1944 -0.0345  0.2012
   35POPC   O13 4657   2.793   0.547  42.122  0.1238  0.5360  0.0061
   35POPC   O14 4658   2.993   0.553  41.968  0.0515 -0.0680 -0.0613
   35POPC   O12 4659   3.006   0.663  42.188 -0.0337 -0.4479 -0.1749
   35POPC   O11 4660   2.857   0.752  42.012  0.3723 -0.2758 -0.4757
   35POPC    C1 4661   2.946   0.860  41.973  0.1440  0.6030 -0.0675
   35POPC    HA 4662   3.055   0.840  41.968 -0.0365 -1.0611  1.5163
   35POPC    HB 4663   2.926   0.934  42.053  1.2420 -0.9701  1.7274
   35POPC    C2 4664   2.900   0.911  41.833 -0.4239  0.2000  1.1269
   35POPC    HS 4665   2.996   0.929  41.779 -1.7194  0.0423 -1.3784
   35POPC   O21 4666   2.833   1.036  41.846  1.0399 -0.2536  0.0346
   35POPC   C21 4667   2.837   1.121  41.743  0.0961 -0.6510  0.1875
   35POPC   O22 4668   2.902   1.110  41.645  0.0200  0.1441  0.1128
   35POPC   C22 4669   2.762   1.246  41.796 -0.1139  0.3836 -0.1086
   35POPC   H2R 4670   2.828   1.280  41.878  2.5088 -0.1538 -1.8868
   35POPC   H2S 4671   2.671   1.212  41.850  0.7742 -1.4377  0.3053
   35POPC    C3 4672   2.811   0.814  41.752 -0.3026 -0.4360 -0.5046
   35POPC    HX 4673   2.709   0.819  41.796  0.8707 -2.4309  2.8664
   35POPC    HY 4674   2.847   0.712  41.780  2.3569  0.4488 -0.4043
   35POPC   O31 4675   2.814   0.831  41.607  0.5560  0.2029 -0.0407
   35POPC   C31 4676   2.927   0.800  41.544 -0.1448 -0.0899 -0.4220
   35POPC   O32 4677   3.024   0.757  41.595 -0.0594 -0.6814 -0.3860
   35POPC   C32 4678   2.903   0.838  41.401 -0.2943 -0.2165  0.6439
   35POPC   H2X 4679   2.889   0.947  41.412  1.3835  0.1558 -0.5601
   35POPC   H2Y 4680   2.806   0.794  41.367  0.2307 -0.4935 -0.5521
   35POPC   C23 4681   2.738   1.362  41.705 -0.4675 -0.3785  0.4298
   35POPC   H3R 4682   2.829   1.384  41.644  0.4581 -2.7068  0.8577
   35POPC   H3S 4683   2.691   1.449  41.756 -3.8588 -1.5244 -0.4611
   35POPC   C24 4684   2.624   1.328  41.609  0.3238 -0.8892 -0.8580
   35POPC   H4R 4685   2.533   1.316  41.673  0.1755  0.0307 -0.8745
   35POPC   H4S 4686   2.648   1.230  41.563 -0.5965 -1.6157  0.1379
   35POPC   C25 4687   2.603   1.441  41.510  0.9334  0.5766 -0.0543
   35POPC   H5R 4688   2.701   1.461  41.460  1.1734  0.3638  0.3271
   35POPC   H5S 4689   2.580   1.535  41.565 -1.4956 -0.2795  0.4767
   35POPC   C26 4690   2.493   1.420  41.404  0.1707  0.2898 -0.2582
   35POPC   H6R 4691   2.393   1.421  41.453  0.2618 -0.3685 -0.0585
   35POPC   H6S 4692   2.516   1.324  41.355  2.2592  0.2660  0.6659
   35POPC   C27 4693   2.489   1.542  41.308 -0.6853 -0.0056 -0.3788
   35POPC   H7R 4694   2.588   1.547  41.259 -0.3726 -0.9034  0.1253
   35POPC   H7S 4695   2.493   1.631  41.375  0.8172 -0.7417  0.5738
   35POPC   C28 4696   2.388   1.534  41.202 -0.0767  0.2875 -0.2350
   35POPC   H8R 4697   2.371   1.636  41.163  1.9401  0.6930 -0.1505
   35POPC   H8S 4698   2.290   1.505  41.247 -0.0062 -1.6866 -1.2618
   35POPC   C29 4699   2.423   1.434  41.087  0.3979  1.0230 -0.4813
   35POPC   H91 4700   2.389   1.331  41.104  0.4114  0.6005 -2.7309
   35POPC  C210 4701   2.487   1.453  40.968  0.6297 -0.4644  0.2532
   35POPC  H101 4702   2.521   1.366  40.911  0.7650  0.6952 -1.5191
   35POPC  C211 4703   2.535   1.596  40.935  0.1456  0.2564 -0.2227
   35POPC  H11R 4704   2.639   1.610  40.971 -0.1304  0.0399  0.6935
   35POPC  H11S 4705   2.475   1.672  40.990  0.5124 -0.2321  0.8863
   35POPC  C212 4706   2.519   1.646  40.788  0.1775 -0.6748  1.2511
   35POPC  H12R 4707   2.572   1.581  40.715 -1.7638  0.1047 -0.9867
   35POPC  H12S 4708   2.562   1.748  40.778 -0.3212 -0.5220  0.5329
   35POPC  C213 4709   2.373   1.650  40.741 -0.3654 -0.5211  0.4505
   35POPC  H13R 4710   2.338   1.734  40.805  0.8973  0.3857  0.0152
   35POPC  H13S 4711   2.312   1.560  40.764  1.7117 -1.7475  1.5048
   35POPC  C214 4712   2.348   1.692  40.591  0.7635  0.6854 -0.1363
   35POPC  H14R 4713   2.238   1.694  40.581  0.3937 -2.2358  1.9287
   35POPC  H14S 4714   2.387   1.608  40.529  2.8535  1.6065 -0.1576
   35POPC  C215 4715   2.412   1.825  40.553 -0.0802  0.3593 -0.1699
   35POPC  H15R 4716   2.521   1.803  40.562 -0.0732 -0.5330 -1.9736
   35POPC  H15S 4717   2.373   1.901  40.623  0.6959 -0.3092  1.0312
   35POPC  C216 4718   2.373   1.865  40.414 -0.9807 -0.2486  0.3901
   35POPC  H16R 4719   2.262   1.871  40.409 -1.0253 -0.7185  0.7948
   35POPC  H16S 4720   2.423   1.786  40.354  0.4050 -0.1907  1.4400
   35POPC  C217 4721   2.443   1.988  40.352 -0.4533  0.1175  0.1687
   35POPC  H17R 4722   2.421   2.079  40.413 -0.4086  0.6179 -0.5531
   35POPC  H17S 4723   2.400   1.990  40.250 -0.8353 -2.0380  0.2434
   35POPC  C218 4724   2.601   1.968  40.341  0.1914 -0.7716 -0.0345
   35POPC  H18R 4725   2.649   2.062  40.307  3.1530 -1.8981  0.7146
   35POPC  H18S 4726   2.636   1.885  40.276  3.4972  0.1413  0.3845
   35POPC  H18T 4727   2.644   1.952  40.443 -0.8062  0.1742  0.5568
   35POPC   C33 4728   3.022   0.791  41.306 -0.6601  0.0558  0.2101
   35POPC   H3X 4729   3.032   0.682  41.325 -2.1830 -0.0932  0.2231
   35POPC   H3Y 4730   3.116   0.842  41.339 -2.5664  3.2963  1.0903
   35POPC   C34 4731   3.005   0.810  41.151  0.1204  0.1669 -0.0015
   35POPC   H4X 4732   2.909   0.763  41.124  0.6423 -1.6901  1.1400
   35POPC   H4Y 4733   3.081   0.749  41.097 -1.6435 -1.6713 -0.5046
   35POPC   C35 4734   3.013   0.954  41.105  0.1642 -0.0777 -0.3969
   35POPC   H5X 4735   3.113   0.986  41.139  0.7547  0.9264 -2.8647
   35POPC   H5Y 4736   2.938   1.023  41.149  1.3814  0.1495  1.3974
   35POPC   C36 4737   3.013   0.951  40.950 -0.4163 -0.5774 -0.7440
   35POPC   H6X 4738   3.103   0.896  40.916  1.1167  0.5957  1.1818
   35POPC   H6Y 4739   3.019   1.057  40.918 -0.5587  0.6449  2.7963
   35POPC   C37 4740   2.890   0.897  40.893  0.2429 -0.0429 -0.6275
   35POPC   H7X 4741   2.805   0.954  40.936  1.3498  0.2616  1.2592
   35POPC   H7Y 4742   2.866   0.795  40.930 -0.2668  1.0585  2.3702
   35POPC   C38 4743   2.889   0.902  40.745  0.4139  0.3500  0.0002
   35POPC   H8X 4744   2.985   0.874  40.696 -0.0275 -0.0537 -0.6589
   35POPC   H8Y 4745   2.869   1.008  40.719  0.9634  0.1629 -1.2615
   35POPC   C39 4746   2.781   0.815  40.675 -0.3273 -0.8529 -0.9582
   35POPC   H9X 4747   2.685   0.826  40.729 -0.3274 -0.6277 -1.0047
   35POPC   H9Y 4748   2.821   0.712  40.670  0.2135 -0.8076  1.3417
   35POPC  C310 4749   2.749   0.867  40.537  0.1982  0.4847  0.6011
   35POPC  H10X 4750   2.840   0.871  40.474 -0.9533  3.4995 -1.0658
   35POPC  H10Y 4751   2.707   0.968  40.552  0.0526  0.4345  0.5406
   35POPC  C311 4752   2.655   0.772  40.458 -0.0359  0.1720  0.0011
   35POPC  H11X 4753   2.625   0.825  40.365 -0.5719 -0.1279  0.0016
   35POPC  H11Y 4754   2.557   0.765  40.509  0.4006 -0.0257  0.8336
   35POPC  C312 4755   2.716   0.638  40.428 -0.6123 -0.4730 -0.5738
   35POPC  H12X 4756   2.722   0.587  40.526  1.4985  1.5322  0.4245
   35POPC  H12Y 4757   2.822   0.647  40.399  0.6896 -1.2564  3.3909
   35POPC  C313 4758   2.636   0.554  40.324  0.3673  0.6864 -0.2014
   35POPC  H13X 4759   2.633   0.599  40.222  2.2567 -1.3142 -1.2113
   35POPC  H13Y 4760   2.539   0.524  40.367 -1.3509  2.9132 -2.2392
   35POPC  C314 4761   2.715   0.425  40.287  0.4494  0.6133  0.0062
   35POPC  H14X 4762   2.717   0.367  40.382  1.0719  0.0282 -0.3573
   35POPC  H14Y 4763   2.813   0.451  40.243  0.7904 -2.8616 -1.6884
   35POPC  C315 4764   2.644   0.330  40.185 -0.3898  0.5192  0.9276
   35POPC  H15X 4765   2.640   0.377  40.085 -1.2901  0.6034  0.9908
   35POPC  H15Y 4766   2.539   0.309  40.215 -0.2219 -1.3153  0.3461
   35POPC  C316 4767   2.708   0.189  40.172  0.1123 -0.4073 -0.5722
   35POPC  H16X 4768   2.680   0.138  40.078  1.5671 -0.0247 -1.2469
   35POPC  H16Y 4769   2.686   0.130  40.263 -0.0579 -1.8504 -1.5208
   35POPC  H16Z 4770   2.816   0.213  40.160 -0.1165  2.2848  1.7124
   36POPC     N 4771   0.392   1.141  42.642 -0.1393  0.3317  0.2733
   36POPC   C12 4772   0.488   1.214  42.734 -0.8629 -0.4021 -0.0745
   36POPC  H12A 4773   0.521   1.145  42.810  0.6204 -1.5840 -1.7011
   36POPC  H12B 4774   0.439   1.294  42.787 -0.1203  0.5688 -0.8352
   36POPC   C13 4775   0.358   1.220  42.526  0.4903 -0.0913  0.2398
   36POPC  H13A 4776   0.326   1.320  42.549  1.2069  0.0546  0.6357
   36POPC  H13B 4777   0.435   1.206  42.451 -1.3589 -1.6489 -1.4929
   36POPC  H13C 4778   0.267   1.186  42.479  0.4097 -0.7894  0.8788
   36POPC   C14 4779   0.447   1.009  42.594 -0.2787 -0.2331  0.1831
   36POPC  H14A 4780   0.365   0.972  42.533 -1.2798  0.9582  0.7618
   36POPC  H14B 4781   0.530   1.021  42.527 -0.7264 -1.8685 -0.7408
   36POPC  H14C 4782   0.484   0.941  42.669  0.8994 -0.7866 -0.8506
   36POPC   C15 4783   0.267   1.104  42.717 -0.6756  0.4278 -0.0972
   36POPC  H15A 4784   0.233   1.184  42.782 -1.9017 -1.2113  1.4093
   36POPC  H15B 4785   0.294   1.022  42.781 -0.1530  1.6198  1.2798
   36POPC  H15C 4786   0.185   1.061  42.661 -1.5609  0.8406  0.8425
   36POPC   C11 4787   0.625   1.268  42.668 -0.1045  0.8159  0.2071
   36POPC  H11A 4788   0.671   1.183  42.613 -1.0240  0.5728 -0.1935
   36POPC  H11B 4789   0.682   1.288  42.762 -0.8143 -0.1546  0.8732
   36POPC     P 4790   0.671   1.386  42.444  0.3795 -0.0714  0.2192
   36POPC   O13 4791   0.653   1.525  42.403  0.2140 -0.1061  1.1413
   36POPC   O14 4792   0.606   1.289  42.355 -0.2982  0.0774 -0.0979
   36POPC   O12 4793   0.606   1.377  42.581  0.3373  0.0578  0.1772
   36POPC   O11 4794   0.820   1.363  42.481 -0.0758 -0.6180  0.1281
   36POPC    C1 4795   0.920   1.415  42.391  0.5971  0.0447  0.3552
   36POPC    HA 4796   0.996   1.467  42.452  1.0213  0.2270 -0.3196
   36POPC    HB 4797   0.882   1.500  42.331  3.3366  0.7900 -0.4850
   36POPC    C2 4798   0.980   1.299  42.307 -0.2047 -0.7434  0.4810
   36POPC    HS 4799   1.075   1.340  42.266 -1.4032  0.4298 -1.2435
   36POPC   O21 4800   0.905   1.258  42.194 -0.1055  0.2561  0.3762
   36POPC   C21 4801   0.874   1.349  42.095  0.0066  0.4424 -0.4723
   36POPC   O22 4802   0.929   1.457  42.092 -0.4317  0.0299  0.4461
   36POPC   C22 4803   0.775   1.286  41.989 -0.3059  0.0069 -0.0441
   36POPC   H2R 4804   0.715   1.211  42.045 -0.8071  2.7780  3.4585
   36POPC   H2S 4805   0.839   1.231  41.916 -2.0898  1.1560 -2.6531
   36POPC    C3 4806   1.005   1.174  42.399 -0.5495  0.2494 -0.5694
   36POPC    HX 4807   0.915   1.143  42.456  0.1213 -0.0125  0.3629
   36POPC    HY 4808   1.070   1.212  42.480 -0.9261 -0.1840 -0.0578
   36POPC   O31 4809   1.069   1.070  42.326 -0.0732 -0.3488 -0.2324
   36POPC   C31 4810   0.997   0.986  42.260  0.6286 -0.0031 -0.1292
   36POPC   O32 4811   0.874   0.981  42.263  0.0559  0.3989  0.2932
   36POPC   C32 4812   1.082   0.910  42.166 -0.3275  1.0325 -0.0120
   36POPC   H2X 4813   1.039   0.810  42.144  2.3868 -0.0993 -0.5061
   36POPC   H2Y 4814   1.180   0.877  42.208 -0.9856  1.6896  2.1866
   36POPC   C23 4815   0.682   1.390  41.929 -0.1136 -0.8149 -0.5428
   36POPC   H3R 4816   0.744   1.475  41.894  1.2761 -1.5335  0.0549
   36POPC   H3S 4817   0.606   1.428  42.001 -0.0293  1.0042 -1.3600
   36POPC   C24 4818   0.631   1.354  41.791  0.2156 -0.1661  0.1646
   36POPC   H4R 4819   0.714   1.317  41.727  2.1108  1.6050  1.4658
   36POPC   H4S 4820   0.588   1.446  41.745  1.2952  0.8899  1.1926
   36POPC   C25 4821   0.520   1.253  41.796 -0.3723  0.0526  0.3452
   36POPC   H5R 4822   0.440   1.278  41.869  0.7019 -0.2031  1.6762
   36POPC   H5S 4823   0.575   1.161  41.828 -0.3085 -0.1887 -0.4378
   36POPC   C26 4824   0.442   1.210  41.666 -0.2334 -0.8231  0.1043
   36POPC   H6R 4825   0.367   1.134  41.695 -0.9281 -0.1152  0.2134
   36POPC   H6S 4826   0.502   1.165  41.584 -0.3179  0.0816 -0.4764
   36POPC   C27 4827   0.359   1.329  41.603 -0.0981  0.1211  0.2569
   36POPC   H7R 4828   0.428   1.408  41.566  0.5031 -0.0625  0.9711
   36POPC   H7S 4829   0.297   1.380  41.679 -2.7922 -0.6872 -1.2640
   36POPC   C28 4830   0.261   1.279  41.487 -0.1511 -0.3347 -0.2354
   36POPC   H8R 4831   0.221   1.182  41.522 -0.7186 -0.0446 -0.0657
   36POPC   H8S 4832   0.316   1.268  41.391 -0.4182 -0.4255 -0.3753
   36POPC   C29 4833   0.139   1.369  41.474 -0.2013 -0.0576  0.0342
   36POPC   H91 4834   0.061   1.362  41.552  0.7588  1.1078  1.1452
   36POPC  C210 4835   0.123   1.470  41.384 -0.2747  0.6540 -0.5022
   36POPC  H101 4836   0.024   1.517  41.385 -2.3422 -3.2463 -1.6769
   36POPC  C211 4837   0.216   1.504  41.272 -0.5076 -0.1697  0.3766
   36POPC  H11R 4838   0.282   1.419  41.245 -1.4492 -0.4427 -1.2537
   36POPC  H11S 4839   0.283   1.583  41.311 -3.0199  0.7749  3.1656
   36POPC  C212 4840   0.149   1.552  41.139  0.4285 -0.2047  0.0122
   36POPC  H12R 4841   0.108   1.655  41.144 -0.0846 -0.4350  0.6514
   36POPC  H12S 4842   0.059   1.491  41.118  0.3611 -1.5371  3.5341
   36POPC  C213 4843   0.240   1.570  41.023  0.0226 -0.1567  0.2663
   36POPC  H13R 4844   0.274   1.475  40.978  0.3613 -0.1256  0.4553
   36POPC  H13S 4845   0.336   1.615  41.056 -0.1039  0.6549 -0.4381
   36POPC  C214 4846   0.166   1.648  40.911  0.1076 -0.2304 -0.2195
   36POPC  H14R 4847   0.162   1.753  40.948  2.0529 -1.1059  2.8464
   36POPC  H14S 4848   0.066   1.602  40.897 -0.1610  0.5090 -0.8133
   36POPC  C215 4849   0.238   1.645  40.774  0.1126  0.2115 -0.1726
   36POPC  H15R 4850   0.240   1.535  40.756  1.6437 -0.0805  1.5192
   36POPC  H15S 4851   0.348   1.658  40.782  0.5980 -2.2785 -1.5657
   36POPC  C216 4852   0.146   1.718  40.674 -0.1477  0.5248 -0.9289
   36POPC  H16R 4853   0.138   1.822  40.714 -1.9477 -0.0222  0.2637
   36POPC  H16S 4854   0.049   1.665  40.672  1.7348 -3.2084 -2.5690
   36POPC  C217 4855   0.198   1.731  40.531  0.6458  0.1090 -0.6697
   36POPC  H17R 4856   0.303   1.767  40.535  1.7135 -2.8272  1.5488
   36POPC  H17S 4857   0.147   1.803  40.464 -1.2973 -0.5848  0.0144
   36POPC  C218 4858   0.182   1.602  40.455 -0.9122 -0.1726 -0.1762
   36POPC  H18R 4859   0.223   1.599  40.351 -2.2755 -0.6922 -0.7283
   36POPC  H18S 4860   0.074   1.580  40.446 -0.6444 -1.0716 -1.7877
   36POPC  H18T 4861   0.238   1.526  40.514 -0.3791  0.4760  0.1640
   36POPC   C33 4862   1.133   0.990  42.042 -0.2036 -0.3838 -0.0675
   36POPC   H3X 4863   1.236   0.965  42.011  0.3681  1.8158 -0.1545
   36POPC   H3Y 4864   1.130   1.097  42.071  0.6638 -0.5746  0.7329
   36POPC   C34 4865   1.035   0.991  41.925  0.1103  0.5589  0.1750
   36POPC   H4X 4866   0.928   1.000  41.954  0.6987  0.6974  2.5018
   36POPC   H4Y 4867   1.056   0.896  41.871 -2.0799 -0.4961  1.0349
   36POPC   C35 4868   1.063   1.100  41.822  0.6359  0.2490  0.0092
   36POPC   H5X 4869   1.167   1.090  41.783  0.7133  4.3435 -1.3715
   36POPC   H5Y 4870   1.068   1.197  41.876  0.5674  0.7904 -0.9287
   36POPC   C36 4871   0.971   1.097  41.693 -0.8982  0.5791 -0.2000
   36POPC   H6X 4872   1.000   1.175  41.619  0.1452 -0.9346 -1.4560
   36POPC   H6Y 4873   0.870   1.124  41.730 -2.6484 -1.7401 -2.8202
   36POPC   C37 4874   0.975   0.958  41.625  0.5287  0.0124 -0.5941
   36POPC   H7X 4875   0.928   0.878  41.686 -0.5897  1.5013  0.5368
   36POPC   H7Y 4876   1.083   0.934  41.611  1.0539  1.1407  1.2279
   36POPC   C38 4877   0.899   0.953  41.490 -1.3380 -0.3968 -0.1027
   36POPC   H8X 4878   0.899   0.849  41.453 -3.0651 -0.0929 -1.0688
   36POPC   H8Y 4879   0.949   1.009  41.408 -1.7175  0.1347  0.0193
   36POPC   C39 4880   0.758   1.013  41.495 -0.0628  0.9739 -0.2453
   36POPC   H9X 4881   0.766   1.117  41.533  0.0002  1.4014 -1.3840
   36POPC   H9Y 4882   0.693   0.950  41.559  0.1528  1.7822  0.7802
   36POPC  C310 4883   0.691   1.018  41.362 -0.4489  0.0840 -0.3973
   36POPC  H10X 4884   0.760   1.066  41.289  0.8669 -1.5389 -0.2807
   36POPC  H10Y 4885   0.603   1.085  41.363  0.9202  1.9515  0.2312
   36POPC  C311 4886   0.661   0.879  41.310  0.4887  0.3172 -0.0094
   36POPC  H11X 4887   0.603   0.835  41.394  0.5957 -1.3793 -0.7939
   36POPC  H11Y 4888   0.751   0.816  41.298  0.6785  0.5512  0.1811
   36POPC  C312 4889   0.555   0.868  41.194 -0.5168 -0.2341  0.2507
   36POPC  H12X 4890   0.466   0.926  41.226 -0.5887 -0.4573  0.4532
   36POPC  H12Y 4891   0.522   0.762  41.184 -0.6499 -0.2696  0.9975
   36POPC  C313 4892   0.626   0.937  41.066  0.0626 -0.2006 -0.3713
   36POPC  H13X 4893   0.721   0.880  41.059  1.4514  1.8128  1.0830
   36POPC  H13Y 4894   0.654   1.042  41.090 -0.0152  0.2683 -2.1959
   36POPC  C314 4895   0.537   0.911  40.939  0.1850 -0.4703 -0.0577
   36POPC  H14X 4896   0.530   0.800  40.935  0.1255 -0.4607 -0.2428
   36POPC  H14Y 4897   0.586   0.938  40.843  1.3686 -2.6266 -0.1281
   36POPC  C315 4898   0.396   0.978  40.946 -0.3575  0.9525 -0.1795
   36POPC  H15X 4899   0.423   1.085  40.939 -0.0474  1.0469  1.8308
   36POPC  H15Y 4900   0.345   0.960  41.043  0.7383 -0.1520  0.2149
   36POPC  C316 4901   0.301   0.960  40.826  0.6686 -0.1192 -0.2573
   36POPC  H16X 4902   0.357   0.975  40.731  0.5069 -0.2493 -0.3720
   36POPC  H16Y 4903   0.233   1.048  40.830  2.2154  1.1395 -0.3106
   36POPC  H16Z 4904   0.244   0.865  40.820 -1.1262  0.7435  1.7018
   37POPC     N 4905   0.966   0.823  22.266 -0.3909  0.2014 -0.3384
   37POPC   C12 4906   0.986   0.810  22.422 -0.5637  0.6840 -0.2946
   37POPC  H12A 4907   0.980   0.910  22.461  1.5167  1.2553 -1.3257
   37POPC  H12B 4908   1.088   0.775  22.428 -0.6026  0.3649 -1.2288
   37POPC   C13 4909   0.832   0.878  22.227  0.1753 -0.7198 -0.1538
   37POPC  H13A 4910   0.830   0.906  22.123 -1.4447 -2.5505 -0.6680
   37POPC  H13B 4911   0.746   0.819  22.253 -2.3970  2.8486  0.1896
   37POPC  H13C 4912   0.821   0.971  22.281  1.1690 -1.9627  2.3246
   37POPC   C14 4913   1.076   0.913  22.210 -0.0137 -0.1999 -0.1087
   37POPC  H14A 4914   1.073   0.902  22.102 -0.2333  0.9101 -0.2379
   37POPC  H14B 4915   1.056   1.013  22.246  1.6389  0.2985 -0.4838
   37POPC  H14C 4916   1.173   0.875  22.238 -0.2173 -0.9565 -0.4145
   37POPC   C15 4917   0.982   0.698  22.190  0.1872 -0.1108 -0.8449
   37POPC  H15A 4918   0.909   0.624  22.220  0.0327 -0.1628 -1.3338
   37POPC  H15B 4919   1.082   0.657  22.198  0.0962 -0.2221 -0.2418
   37POPC  H15C 4920   0.959   0.716  22.086 -0.3320  0.3845 -0.6488
   37POPC   C11 4921   0.893   0.721  22.507 -0.0070  0.3868 -0.3149
   37POPC  H11A 4922   0.793   0.770  22.504  0.5948  1.6156 -1.1424
   37POPC  H11B 4923   0.909   0.709  22.617  0.6444 -0.8984 -0.5385
   37POPC     P 4924   0.769   0.508  22.408  0.3361  0.1278  0.1683
   37POPC   O13 4925   0.823   0.382  22.350  0.0238 -0.1090 -0.4238
   37POPC   O14 4926   0.684   0.598  22.324 -0.5081  0.5129 -0.0913
   37POPC   O12 4927   0.885   0.591  22.457 -0.2735  0.2998 -0.1856
   37POPC   O11 4928   0.693   0.471  22.546  0.0326 -0.1438 -0.0304
   37POPC    C1 4929   0.750   0.434  22.673 -0.3984 -0.6541 -0.1458
   37POPC    HA 4930   0.684   0.450  22.761  0.2358  1.4197 -0.0124
   37POPC    HB 4931   0.836   0.499  22.699 -1.4488  0.7588 -0.0617
   37POPC    C2 4932   0.797   0.288  22.678  0.3172 -0.2258  0.4900
   37POPC    HS 4933   0.870   0.277  22.595  0.5371  1.8426  0.3471
   37POPC   O21 4934   0.690   0.198  22.663 -0.0267 -0.2833  0.2630
   37POPC   C21 4935   0.715   0.075  22.613  0.3557  0.3891 -1.0463
   37POPC   O22 4936   0.824   0.032  22.585 -0.3947 -0.5227 -0.0618
   37POPC   C22 4937   0.587   0.003  22.611 -0.4097 -0.7237 -0.6924
   37POPC   H2R 4938   0.542   0.016  22.511 -2.6002  1.7300  0.4839
   37POPC   H2S 4939   0.516   0.047  22.685  0.6839 -2.1976  1.3658
   37POPC    C3 4940   0.876   0.247  22.809  0.9130  0.0922  0.0218
   37POPC    HX 4941   0.911   0.142  22.803  1.2849  0.2048  0.2278
   37POPC    HY 4942   0.802   0.249  22.892  1.2865 -0.3008  0.3683
   37POPC   O31 4943   0.987   0.341  22.832 -0.2883 -0.4962  0.0222
   37POPC   C31 4944   1.021   0.355  22.955  0.5205  0.9136 -0.2738
   37POPC   O32 4945   0.967   0.298  23.050  0.3266 -0.4656 -0.1697
   37POPC   C32 4946   1.129   0.465  22.967  0.1097 -0.1535 -0.0215
   37POPC   H2X 4947   1.086   0.564  22.941  1.9641  0.0102 -3.1035
   37POPC   H2Y 4948   1.208   0.450  22.890  0.0718  2.6305 -0.6907
   37POPC   C23 4949   0.579  -0.146  22.645  0.6846  0.8479 -0.0235
   37POPC   H3R 4950   0.641  -0.204  22.573 -0.6416  0.5514 -0.9515
   37POPC   H3S 4951   0.475  -0.182  22.630  1.1434 -0.3038 -0.5862
   37POPC   C24 4952   0.614  -0.171  22.796 -0.2327 -0.0308 -0.5475
   37POPC   H4R 4953   0.718  -0.139  22.816 -0.4198  0.3065 -0.1018
   37POPC   H4S 4954   0.620  -0.282  22.802  2.7698  0.0518 -0.7118
   37POPC   C25 4955   0.520  -0.120  22.902  0.6004 -0.1747  0.5652
   37POPC   H5R 4956   0.416  -0.152  22.880  0.5502  0.1141  0.3854
   37POPC   H5S 4957   0.534  -0.011  22.916 -1.7215 -0.1258  3.4622
   37POPC   C26 4958   0.564  -0.163  23.036  0.3178  0.6448 -0.0012
   37POPC   H6R 4959   0.532  -0.094  23.117 -0.6942  0.1242  0.0562
   37POPC   H6S 4960   0.675  -0.165  23.036  0.3419 -1.2575 -1.2337
   37POPC   C27 4961   0.508  -0.300  23.081 -0.1760  0.6334 -0.2366
   37POPC   H7R 4962   0.544  -0.373  23.006 -2.4842 -1.7218  0.7765
   37POPC   H7S 4963   0.400  -0.310  23.058  0.0052 -3.0298 -0.0765
   37POPC   C28 4964   0.525  -0.339  23.229 -0.5336 -0.2395 -0.3330
   37POPC   H8R 4965   0.518  -0.450  23.234 -2.9127 -0.1277  0.0011
   37POPC   H8S 4966   0.440  -0.286  23.278 -0.5084  0.9904 -1.5886
   37POPC   C29 4967   0.647  -0.291  23.300  0.4907 -0.4056 -0.2042
   37POPC   H91 4968   0.722  -0.234  23.242  1.5842 -1.6929 -0.1159
   37POPC  C210 4969   0.656  -0.282  23.432  0.4254  0.2900 -0.3357
   37POPC  H101 4970   0.748  -0.232  23.463 -0.1933  0.2818  1.6338
   37POPC  C211 4971   0.548  -0.309  23.536 -0.2841 -0.2337 -0.1222
   37POPC  H11R 4972   0.581  -0.400  23.591 -1.6018 -1.2632 -0.9653
   37POPC  H11S 4973   0.450  -0.319  23.485 -0.9941  1.3396  0.8708
   37POPC  C212 4974   0.540  -0.206  23.650  0.1571  0.6009 -0.5017
   37POPC  H12R 4975   0.507  -0.104  23.620  1.4881  1.6659  1.4220
   37POPC  H12S 4976   0.643  -0.209  23.692  0.5535 -0.9830 -1.4856
   37POPC  C213 4977   0.447  -0.234  23.773 -0.2913 -0.0799  0.0666
   37POPC  H13R 4978   0.474  -0.333  23.814 -1.9590 -0.7697 -0.4229
   37POPC  H13S 4979   0.338  -0.223  23.757 -0.4744 -0.0476  1.2837
   37POPC  C214 4980   0.493  -0.132  23.878 -0.0106  0.4063 -0.4852
   37POPC  H14R 4981   0.476  -0.025  23.853 -0.8440  0.5417  0.6144
   37POPC  H14S 4982   0.596  -0.155  23.914 -0.2019  0.1658 -0.0898
   37POPC  C215 4983   0.414  -0.140  24.013 -0.3888 -0.2468  0.8614
   37POPC  H15R 4984   0.306  -0.124  23.991 -0.3720 -2.8553 -1.6789
   37POPC  H15S 4985   0.449  -0.054  24.074 -0.4725  1.2865 -1.1383
   37POPC  C216 4986   0.440  -0.261  24.100 -0.1977 -0.0902  0.1340
   37POPC  H16R 4987   0.549  -0.278  24.110 -0.2502 -0.0334  0.8656
   37POPC  H16S 4988   0.403  -0.350  24.045 -1.0375  0.2799  0.0905
   37POPC  C217 4989   0.375  -0.255  24.237 -0.0856  0.1494  0.0243
   37POPC  H17R 4990   0.267  -0.271  24.219 -0.1553  0.3037  0.2995
   37POPC  H17S 4991   0.376  -0.153  24.282  0.6833 -0.0612  0.5105
   37POPC  C218 4992   0.412  -0.377  24.338  0.0960  0.1653 -0.0241
   37POPC  H18R 4993   0.333  -0.384  24.416  1.7899  0.3348  1.7789
   37POPC  H18S 4994   0.506  -0.355  24.394 -0.8129  3.5265  0.3597
   37POPC  H18T 4995   0.426  -0.472  24.282  1.1772  0.5204 -0.3886
   37POPC   C33 4996   1.209   0.459  23.102 -0.3190 -0.1900  0.3475
   37POPC   H3X 4997   1.135   0.430  23.180 -1.1999 -0.6508 -0.6435
   37POPC   H3Y 4998   1.252   0.558  23.128  1.0816 -0.5463 -0.5196
   37POPC   C34 4999   1.322   0.355  23.097  0.2276  0.3972  0.6707
   37POPC   H4X 5000   1.395   0.366  23.014 -2.7059 -1.3102 -2.3593
   37POPC   H4Y 5001   1.278   0.255  23.080 -2.1490  1.3984  0.4454
   37POPC   C35 5002   1.391   0.337  23.230  0.2171  0.2080  0.9944
   37POPC   H5X 5003   1.321   0.354  23.314  0.8430  1.4138  1.2946
   37POPC   H5Y 5004   1.460   0.423  23.236  1.2320 -0.5240  0.2792
   37POPC   C36 5005   1.485   0.211  23.232  0.1654 -0.6943 -0.3515
   37POPC   H6X 5006   1.558   0.232  23.151 -1.3035 -0.2808 -1.6226
   37POPC   H6Y 5007   1.415   0.126  23.212  1.4465 -1.6144 -1.0787
   37POPC   C37 5008   1.558   0.187  23.369  0.5120  0.3548 -0.9463
   37POPC   H7X 5009   1.652   0.246  23.369 -0.3980  1.8734  0.1241
   37POPC   H7Y 5010   1.591   0.082  23.379 -0.3953  0.1506  0.0356
   37POPC   C38 5011   1.463   0.217  23.486  0.0328 -0.6234  0.6019
   37POPC   H8X 5012   1.367   0.169  23.459  0.4830 -0.0952 -2.3029
   37POPC   H8Y 5013   1.446   0.327  23.493 -0.8221 -0.5670 -1.5400
   37POPC   C39 5014   1.514   0.171  23.624  0.4430  0.3796  0.3192
   37POPC   H9X 5015   1.619   0.208  23.627  1.4950 -2.4102  1.7051
   37POPC   H9Y 5016   1.522   0.061  23.618  1.0130  0.4900 -1.4878
   37POPC  C310 5017   1.420   0.220  23.737 -0.1367 -0.2648  0.8496
   37POPC  H10X 5018   1.331   0.154  23.738  0.5768 -1.2544  0.7966
   37POPC  H10Y 5019   1.378   0.322  23.726  1.0612 -0.0161 -2.2650
   37POPC  C311 5020   1.479   0.199  23.872 -0.2240  0.3303 -0.6302
   37POPC  H11X 5021   1.587   0.227  23.875 -0.2348  0.2839  0.2121
   37POPC  H11Y 5022   1.489   0.092  23.899  2.9034  1.1624  2.1907
   37POPC  C312 5023   1.403   0.269  23.983  0.0025 -0.6179 -0.0142
   37POPC  H12X 5024   1.304   0.219  23.990 -0.2395 -0.2157 -0.5490
   37POPC  H12Y 5025   1.377   0.372  23.951 -0.3962 -0.6327  0.2512
   37POPC  C313 5026   1.479   0.275  24.117 -0.9414  0.0622 -0.3179
   37POPC  H13X 5027   1.578   0.321  24.096 -0.6147 -0.4978 -0.0267
   37POPC  H13Y 5028   1.497   0.172  24.156 -0.3720  0.2932  0.0544
   37POPC  C314 5029   1.402   0.348  24.223 -0.3647  0.2850 -0.4145
   37POPC  H14X 5030   1.298   0.309  24.238  0.2836 -1.3320  0.0977
   37POPC  H14Y 5031   1.378   0.453  24.194  2.1645  1.4658  1.3745
   37POPC  C315 5032   1.467   0.353  24.361  0.2993 -0.2494  0.9166
   37POPC  H15X 5033   1.554   0.421  24.348  1.2647 -1.6107  0.0431
   37POPC  H15Y 5034   1.504   0.252  24.387 -0.1255 -1.1871 -1.7530
   37POPC  C316 5035   1.367   0.408  24.465  0.5592 -0.4338 -0.2551
   37POPC  H16X 5036   1.317   0.496  24.420  1.6941  1.9667  2.8030
   37POPC  H16Y 5037   1.419   0.416  24.563 -1.2423 -1.7191  0.8652
   37POPC  H16Z 5038   1.280   0.341  24.484 -0.5507  1.1477  0.5546
   38POPC     N 5039   2.986   0.848  31.539 -0.3475 -0.4337 -0.4858
   38POPC   C12 5040   2.842   0.837  31.496 -0.0840  0.2843 -0.1931
   38POPC  H12A 5041   2.793   0.932  31.479 -0.9727  0.1099  1.2471
   38POPC  H12B 5042   2.789   0.785  31.574  0.5190 -0.8763 -0.5389
   38POPC   C13 5043   3.065   0.877  31.411 -0.2774  0.0564 -0.6454
   38POPC  H13A 5044   3.056   0.792  31.345 -3.1313 -3.5404  3.6761
   38POPC  H13B 5045   3.036   0.971  31.366  1.9749  1.8578  1.4205
   38POPC  H13C 5046   3.169   0.896  31.428 -0.4026  0.3577 -0.1829
   38POPC   C14 5047   3.002   0.963  31.642  0.3615  0.2568  0.5491
   38POPC  H14A 5048   2.950   0.923  31.727 -2.4859 -0.7180 -1.4947
   38POPC  H14B 5049   3.107   0.970  31.666  0.5448  1.2583 -0.4343
   38POPC  H14C 5050   2.945   1.047  31.606 -2.9154 -1.7389  0.6058
   38POPC   C15 5051   3.052   0.730  31.602 -0.2905 -0.0639 -1.1565
   38POPC  H15A 5052   3.020   0.711  31.703 -1.2749 -0.9775 -1.6254
   38POPC  H15B 5053   3.160   0.739  31.595 -0.5522  2.7734 -3.7478
   38POPC  H15C 5054   3.015   0.641  31.554  1.8124 -1.9532  0.5056
   38POPC   C11 5055   2.809   0.745  31.365  0.2730  0.1938  0.2858
   38POPC  H11A 5056   2.837   0.814  31.282 -0.4439  0.0329 -0.0931
   38POPC  H11B 5057   2.699   0.730  31.370  0.0793  1.6714  3.6315
   38POPC     P 5058   2.865   0.524  31.243  0.0335 -0.4830 -0.1889
   38POPC   O13 5059   2.994   0.504  31.178  0.1409  0.5456 -0.4697
   38POPC   O14 5060   2.746   0.562  31.158 -0.6177 -0.3869  0.1852
   38POPC   O12 5061   2.881   0.616  31.363 -0.1709 -0.1976 -0.0187
   38POPC   O11 5062   2.833   0.383  31.308  0.5745 -0.6311 -0.0202
   38POPC    C1 5063   2.704   0.323  31.341 -0.0402 -0.7895  0.2881
   38POPC    HA 5064   2.719   0.215  31.362  0.4115 -1.1048 -1.4938
   38POPC    HB 5065   2.628   0.338  31.261  1.5757 -1.4957 -1.4679
   38POPC    C2 5066   2.639   0.391  31.469 -0.4064  0.1809  0.3564
   38POPC    HS 5067   2.638   0.497  31.439 -2.5493 -0.2456 -1.2972
   38POPC   O21 5068   2.732   0.365  31.578  0.2151  0.3599  0.5592
   38POPC   C21 5069   2.773   0.473  31.645 -0.0964 -0.0148 -0.1416
   38POPC   O22 5070   2.718   0.582  31.647  0.1638 -0.0716 -0.5836
   38POPC   C22 5071   2.900   0.429  31.727  0.8075 -0.1817  0.0045
   38POPC   H2R 5072   2.986   0.467  31.667 -0.7915  2.6680 -0.6234
   38POPC   H2S 5073   2.902   0.317  31.726 -4.3527 -0.5208  1.7351
   38POPC    C3 5074   2.492   0.342  31.505 -0.4532 -0.1198 -0.0847
   38POPC    HX 5075   2.507   0.236  31.535 -1.9920 -0.0294  1.1144
   38POPC    HY 5076   2.431   0.334  31.413  0.5398 -3.2066 -0.5946
   38POPC   O31 5077   2.441   0.412  31.616  0.0860  0.5450  0.2254
   38POPC   C31 5078   2.399   0.534  31.578  0.1415 -0.8150  0.1143
   38POPC   O32 5079   2.403   0.574  31.465  0.0055  0.1382  0.2978
   38POPC   C32 5080   2.347   0.616  31.694 -1.0815 -0.2733 -0.6413
   38POPC   H2X 5081   2.422   0.678  31.747 -2.1005  0.6767 -0.2495
   38POPC   H2Y 5082   2.311   0.553  31.778 -0.1637 -0.5204 -0.4329
   38POPC   C23 5083   2.897   0.491  31.865 -0.2659  0.4105 -0.2996
   38POPC   H3R 5084   2.884   0.601  31.857  1.2694  1.0179  3.4850
   38POPC   H3S 5085   2.992   0.492  31.921 -1.1074  3.0089  1.2264
   38POPC   C24 5086   2.794   0.425  31.953  0.3780 -0.2777 -0.0478
   38POPC   H4R 5087   2.822   0.320  31.978 -0.5531 -0.2403  1.2918
   38POPC   H4S 5088   2.697   0.423  31.898  0.1765  1.0555  0.2405
   38POPC   C25 5089   2.773   0.479  32.092 -1.0078  0.0435  0.7006
   38POPC   H5R 5090   2.683   0.435  32.140 -2.0204  1.6544  0.3191
   38POPC   H5S 5091   2.767   0.588  32.074  2.0509 -0.1650 -2.7740
   38POPC   C26 5092   2.895   0.461  32.188  1.0016  0.3593 -1.0543
   38POPC   H6R 5093   2.961   0.551  32.185  0.9276  0.4021 -1.4124
   38POPC   H6S 5094   2.957   0.373  32.161  0.6312 -0.1982 -0.1189
   38POPC   C27 5095   2.854   0.425  32.333  0.7907  0.5501  0.3240
   38POPC   H7R 5096   2.802   0.327  32.334  1.2249  0.2280 -1.8734
   38POPC   H7S 5097   2.792   0.511  32.367  1.9320  1.4118  0.2877
   38POPC   C28 5098   2.969   0.386  32.428 -0.4539  0.1163 -0.4147
   38POPC   H8R 5099   3.038   0.321  32.371  0.8484 -1.1708  2.4310
   38POPC   H8S 5100   2.927   0.340  32.521  0.4540  5.2273  2.9584
   38POPC   C29 5101   3.046   0.513  32.464 -1.0860 -0.2729  0.5512
   38POPC   H91 5102   2.988   0.603  32.443 -0.6223 -0.7108 -3.2422
   38POPC  C210 5103   3.182   0.528  32.479  0.1812 -0.0446 -0.7155
   38POPC  H101 5104   3.228   0.628  32.489  0.6906  0.0414 -3.2340
   38POPC  C211 5105   3.288   0.428  32.486 -0.1369 -0.1189  0.1178
   38POPC  H11R 5106   3.383   0.481  32.507 -0.6234  1.2018 -0.8609
   38POPC  H11S 5107   3.294   0.397  32.379  0.1760  1.7642 -0.4483
   38POPC  C212 5108   3.256   0.321  32.583 -0.5013 -0.1513  0.9117
   38POPC  H12R 5109   3.197   0.240  32.534 -0.0491  0.6845 -1.1118
   38POPC  H12S 5110   3.192   0.333  32.673 -0.3698 -1.0292  1.1265
   38POPC  C213 5111   3.388   0.263  32.635  0.0146 -0.5039  0.2578
   38POPC  H13R 5112   3.443   0.339  32.695 -0.1939  0.1773 -0.3927
   38POPC  H13S 5113   3.455   0.242  32.549  0.4405  0.8543  0.2316
   38POPC  C214 5114   3.363   0.145  32.734  0.2044 -0.0801 -0.1397
   38POPC  H14R 5115   3.263   0.097  32.731  0.2643 -0.2044 -3.3880
   38POPC  H14S 5116   3.365   0.189  32.836  1.9128  0.5748 -0.4304
   38POPC  C215 5117   3.467   0.031  32.711 -0.6865 -0.0678  0.3171
   38POPC  H15R 5118   3.448  -0.038  32.797 -0.8674  2.7852  2.7582
   38POPC  H15S 5119   3.568   0.076  32.722 -0.4288 -0.3513 -0.8026
   38POPC  C216 5120   3.459  -0.044  32.575 -0.0209  0.0963 -0.3103
   38POPC  H16R 5121   3.480   0.029  32.494  0.7045 -1.2224 -1.3399
   38POPC  H16S 5122   3.348  -0.050  32.570 -0.0740  1.7698 -2.1877
   38POPC  C217 5123   3.535  -0.179  32.565 -0.6470 -0.0208  0.0768
   38POPC  H17R 5124   3.526  -0.236  32.660  0.9260 -0.1652  0.1639
   38POPC  H17S 5125   3.640  -0.146  32.551 -1.7452  3.7933 -0.5027
   38POPC  C218 5126   3.493  -0.255  32.435  0.8636 -0.7895  0.0146
   38POPC  H18R 5127   3.513  -0.184  32.352  0.3636 -1.2947 -0.5407
   38POPC  H18S 5128   3.385  -0.274  32.446  0.9059  0.2598  3.5755
   38POPC  H18T 5129   3.549  -0.348  32.410 -1.4384 -2.0776 -0.5614
   38POPC   C33 5130   2.224   0.709  31.665  0.1425  0.3930 -0.2019
   38POPC   H3X 5131   2.144   0.643  31.624 -0.6582  0.4670  1.1861
   38POPC   H3Y 5132   2.255   0.792  31.598  1.4875 -0.7483 -1.0395
   38POPC   C34 5133   2.158   0.770  31.795 -0.5485 -0.2337  0.4348
   38POPC   H4X 5134   2.244   0.801  31.859 -0.8355  0.5970  0.4363
   38POPC   H4Y 5135   2.096   0.684  31.829  0.1345 -0.8548  0.1380
   38POPC   C35 5136   2.098   0.898  31.775  0.4534 -0.2996  0.3876
   38POPC   H5X 5137   2.018   0.887  31.698 -0.2844  0.0504  1.0829
   38POPC   H5Y 5138   2.165   0.981  31.744 -1.5677  1.0438 -0.6674
   38POPC   C36 5139   2.010   0.937  31.900 -0.3697  0.7138 -0.7065
   38POPC   H6X 5140   2.082   0.973  31.977 -0.3921  0.2217 -0.4501
   38POPC   H6Y 5141   1.960   0.847  31.940  0.2349  0.7889  0.2574
   38POPC   C37 5142   1.913   1.046  31.866 -0.1469 -0.2687 -0.2066
   38POPC   H7X 5143   1.852   1.029  31.775  2.4629 -1.6749 -1.8093
   38POPC   H7Y 5144   1.979   1.134  31.852  1.8409 -1.5894  0.4921
   38POPC   C38 5145   1.821   1.089  31.985 -0.4885  0.0165 -0.1539
   38POPC   H8X 5146   1.887   1.125  32.067  2.0012 -2.0970 -1.0973
   38POPC   H8Y 5147   1.754   1.010  32.024  0.0964 -0.0835  0.6772
   38POPC   C39 5148   1.730   1.205  31.934 -0.0737 -0.3389 -0.7522
   38POPC   H9X 5149   1.668   1.175  31.847 -1.9389  1.2463 -0.0555
   38POPC   H9Y 5150   1.794   1.286  31.893 -0.7521  1.3032  1.2763
   38POPC  C310 5151   1.638   1.262  32.043  0.3144 -0.2345 -0.0561
   38POPC  H10X 5152   1.698   1.315  32.121 -1.6183  2.1389 -0.0650
   38POPC  H10Y 5153   1.591   1.170  32.083 -0.6583  0.2060 -0.1739
   38POPC  C311 5154   1.539   1.366  31.980  0.1552 -0.7053 -0.1512
   38POPC  H11X 5155   1.469   1.307  31.917  0.1065 -1.2315  0.3914
   38POPC  H11Y 5156   1.605   1.439  31.927 -0.6847  0.2657  0.1000
   38POPC  C312 5157   1.452   1.448  32.085 -0.5729  0.5597 -0.0787
   38POPC  H12X 5158   1.458   1.554  32.054  0.6904  0.5013 -0.0955
   38POPC  H12Y 5159   1.498   1.438  32.185  3.3091 -2.3338 -1.8766
   38POPC  C313 5160   1.305   1.399  32.089 -0.3920 -0.3610 -0.0228
   38POPC  H13X 5161   1.301   1.305  32.148  0.1555  0.9696  2.2805
   38POPC  H13Y 5162   1.246   1.394  31.996 -2.3749 -2.1432  1.2644
   38POPC  C314 5163   1.218   1.488  32.181  0.7000  0.0611  0.7384
   38POPC  H14X 5164   1.199   1.575  32.114  0.3569 -1.4684 -1.2224
   38POPC  H14Y 5165   1.287   1.513  32.265  0.6953 -0.7505  0.9932
   38POPC  C315 5166   1.094   1.426  32.240  1.3823 -0.7758 -0.2818
   38POPC  H15X 5167   1.027   1.506  32.278  0.8357 -1.9130  1.2697
   38POPC  H15Y 5168   1.121   1.363  32.328  1.8524  0.0357  0.1687
   38POPC  C316 5169   1.004   1.360  32.133 -0.5825  0.0650 -0.3655
   38POPC  H16X 5170   1.052   1.264  32.105  1.7596  0.7417  1.0665
   38POPC  H16Y 5171   0.979   1.429  32.050 -2.0939  2.2488  1.7509
   38POPC  H16Z 5172   0.911   1.325  32.183 -0.8356 -0.0098 -0.8938
   39POPC     N 5173   0.219   2.328  22.334  0.1014 -0.2085 -0.2707
   39POPC   C12 5174   0.189   2.244  22.458 -0.7549 -0.0741  0.0953
   39POPC  H12A 5175   0.254   2.284  22.535  0.3636 -2.1331  0.2835
   39POPC  H12B 5176   0.221   2.144  22.434 -0.3379  0.4344 -1.5873
   39POPC   C13 5177   0.366   2.335  22.316  0.4319 -0.1040  0.0879
   39POPC  H13A 5178   0.389   2.367  22.215  0.0210 -1.0233 -0.3116
   39POPC  H13B 5179   0.396   2.420  22.376 -2.5097  1.7753 -0.8875
   39POPC  H13C 5180   0.423   2.249  22.347 -0.2195  0.1937  2.2262
   39POPC   C14 5181   0.158   2.274  22.202  0.8649  0.0334  0.7301
   39POPC  H14A 5182   0.183   2.351  22.131  0.4413 -1.1865 -0.7693
   39POPC  H14B 5183   0.189   2.175  22.174 -1.0360 -0.2653 -0.4555
   39POPC  H14C 5184   0.051   2.264  22.206  0.7315 -1.3775 -2.8931
   39POPC   C15 5185   0.164   2.467  22.349  0.3405  0.1339  0.1290
   39POPC  H15A 5186   0.182   2.509  22.447  0.4670  0.6183 -0.1007
   39POPC  H15B 5187   0.056   2.461  22.355  0.2045  0.2054 -1.7121
   39POPC  H15C 5188   0.190   2.534  22.269  1.3875 -0.1736  0.1956
   39POPC   C11 5189   0.044   2.234  22.504  0.0685 -0.1196  0.4834
   39POPC  H11A 5190   0.034   2.151  22.576 -2.1210  0.8256  1.3573
   39POPC  H11B 5191  -0.026   2.192  22.429 -0.3872 -1.4226  1.6089
   39POPC     P 5192   0.049   2.404  22.711 -0.2598  0.3267  0.4718
   39POPC   O13 5193  -0.018   2.311  22.806  0.3572 -0.1030  0.1441
   39POPC   O14 5194   0.005   2.541  22.725  0.8009 -0.3748 -0.6177
   39POPC   O12 5195   0.003   2.358  22.570  0.3283  0.7580 -0.6835
   39POPC   O11 5196   0.206   2.381  22.708 -0.3281  0.9559  0.1179
   39POPC    C1 5197   0.287   2.450  22.803 -0.1508  0.4551  0.6472
   39POPC    HA 5198   0.236   2.522  22.871 -0.5094  0.7092  0.1136
   39POPC    HB 5199   0.368   2.505  22.751 -0.9596  0.8680 -0.2039
   39POPC    C2 5200   0.362   2.352  22.904 -0.4951 -0.1813  0.4684
   39POPC    HS 5201   0.280   2.306  22.964 -1.7885  2.5856  0.9968
   39POPC   O21 5202   0.463   2.413  22.983  0.7436  0.6224  0.3737
   39POPC   C21 5203   0.409   2.508  23.069 -0.0808  0.1035 -0.5489
   39POPC   O22 5204   0.291   2.526  23.085 -0.3776  0.2386 -0.0262
   39POPC   C22 5205   0.521   2.593  23.127  0.2343 -0.1760  0.2252
   39POPC   H2R 5206   0.541   2.667  23.047  0.3485  0.3014  0.6887
   39POPC   H2S 5207   0.608   2.526  23.145  0.1914 -1.0919 -2.5109
   39POPC    C3 5208   0.422   2.232  22.825 -0.4711  0.3267 -0.6143
   39POPC    HX 5209   0.479   2.278  22.741  0.8513 -0.5768 -0.2503
   39POPC    HY 5210   0.346   2.166  22.778 -0.2512  1.4893 -2.7168
   39POPC   O31 5211   0.503   2.144  22.902 -0.5285  0.0721 -0.9458
   39POPC   C31 5212   0.443   2.080  23.015 -0.9091  0.1696  0.5633
   39POPC   O32 5213   0.324   2.069  23.032 -0.2267 -0.6812 -0.1415
   39POPC   C32 5214   0.555   2.036  23.106  0.0858  0.1977  0.8835
   39POPC   H2X 5215   0.604   1.940  23.082  2.9135  1.2946  1.8700
   39POPC   H2Y 5216   0.641   2.106  23.107  0.5812 -0.2823 -1.7154
   39POPC   C23 5217   0.469   2.666  23.252  0.2871 -0.1047 -0.3038
   39POPC   H3R 5218   0.422   2.601  23.329 -0.3966  1.2756  0.4937
   39POPC   H3S 5219   0.384   2.732  23.224 -0.2469 -0.6833 -0.0841
   39POPC   C24 5220   0.575   2.752  23.332 -0.4377 -0.3361 -0.1662
   39POPC   H4R 5221   0.532   2.800  23.422  2.7346 -1.1269  1.9241
   39POPC   H4S 5222   0.620   2.835  23.274  2.2822 -0.8746  1.0324
   39POPC   C25 5223   0.694   2.663  23.379 -0.7598 -0.0907 -0.0986
   39POPC   H5R 5224   0.732   2.595  23.299  0.0103 -0.4226  0.5282
   39POPC   H5S 5225   0.645   2.597  23.454 -1.5487 -2.5813 -2.6166
   39POPC   C26 5226   0.814   2.738  23.454  0.4889 -0.2525  0.5757
   39POPC   H6R 5227   0.889   2.664  23.490  0.0709 -0.0475  1.9134
   39POPC   H6S 5228   0.777   2.782  23.549  0.5462  0.4445  0.2776
   39POPC   C27 5229   0.890   2.848  23.373 -0.3080  0.6452  0.1309
   39POPC   H7R 5230   0.820   2.925  23.332  0.4300  1.5324  0.4956
   39POPC   H7S 5231   0.927   2.790  23.286  0.3762 -2.3038  2.2274
   39POPC   C28 5232   1.009   2.908  23.446 -0.4209 -0.2190  0.0217
   39POPC   H8R 5233   1.075   2.975  23.386  1.6337  0.2165  2.5872
   39POPC   H8S 5234   1.077   2.822  23.467  1.3879  0.6742 -1.8168
   39POPC   C29 5235   0.966   2.987  23.570  0.0517  0.4920 -0.0730
   39POPC   H91 5236   0.896   3.072  23.566 -1.3984 -0.4563  2.7024
   39POPC  C210 5237   1.011   2.967  23.694  0.9185  0.1669 -0.0954
   39POPC  H101 5238   0.989   3.034  23.778  1.8837  1.0152 -0.4916
   39POPC  C211 5239   1.103   2.847  23.736  0.3883 -0.5255  0.5164
   39POPC  H11R 5240   1.211   2.869  23.720  0.5894 -2.5659 -1.5593
   39POPC  H11S 5241   1.076   2.757  23.677 -0.8705  0.9316 -1.2499
   39POPC  C212 5242   1.075   2.806  23.880  0.3644  0.6483 -0.2271
   39POPC  H12R 5243   0.968   2.784  23.903  0.4107  1.4193  0.7588
   39POPC  H12S 5244   1.099   2.884  23.955  1.2112 -1.5046  1.8336
   39POPC  C213 5245   1.150   2.679  23.925 -0.1184 -0.2694 -0.4372
   39POPC  H13R 5246   1.251   2.676  23.878 -0.6090 -0.1501 -1.5461
   39POPC  H13S 5247   1.092   2.600  23.872  0.3450 -0.0594 -1.2808
   39POPC  C214 5248   1.164   2.647  24.084  0.3867 -0.7274 -0.6929
   39POPC  H14R 5249   1.215   2.549  24.090  1.4155 -0.3178 -2.1218
   39POPC  H14S 5250   1.063   2.639  24.128  0.2766  0.3855 -0.6979
   39POPC  C215 5251   1.248   2.750  24.161 -0.0862 -0.1508 -0.2347
   39POPC  H15R 5252   1.200   2.850  24.156  1.8025  0.8520  0.3913
   39POPC  H15S 5253   1.346   2.764  24.111 -0.4926 -1.7711 -1.5500
   39POPC  C216 5254   1.272   2.723  24.310  0.5638 -0.1727  0.3516
   39POPC  H16R 5255   1.319   2.625  24.328  1.0705 -0.3989 -1.9593
   39POPC  H16S 5256   1.170   2.719  24.356 -0.2090  1.8950 -1.0222
   39POPC  C217 5257   1.366   2.827  24.378 -0.5819 -0.1524  0.3356
   39POPC  H17R 5258   1.345   2.927  24.332  0.4468 -0.8180 -1.7297
   39POPC  H17S 5259   1.469   2.801  24.343 -1.1439 -2.2834  0.1572
   39POPC  C218 5260   1.352   2.826  24.528 -0.1501  0.6014 -0.2220
   39POPC  H18R 5261   1.448   2.848  24.580 -0.5906 -0.9737  1.3763
   39POPC  H18S 5262   1.339   2.720  24.557  1.9315  0.4958  0.5530
   39POPC  H18T 5263   1.278   2.897  24.570  0.2292 -0.5719  2.6427
   39POPC   C33 5264   0.518   2.034  23.259  0.5833  0.0041  0.0286
   39POPC   H3X 5265   0.602   1.989  23.316 -0.6281  1.8207  3.5467
   39POPC   H3Y 5266   0.426   1.972  23.268 -1.1512  2.3765 -0.3512
   39POPC   C34 5267   0.480   2.180  23.301  0.1751  0.3976 -0.1019
   39POPC   H4X 5268   0.387   2.210  23.249 -0.8297 -1.9851  0.2110
   39POPC   H4Y 5269   0.552   2.253  23.259  0.8862  0.1864  0.7149
   39POPC   C35 5270   0.485   2.200  23.455  0.6398 -0.5481 -0.4424
   39POPC   H5X 5271   0.588   2.183  23.491  0.0791 -1.4223  0.7989
   39POPC   H5Y 5272   0.403   2.148  23.509  0.0590  0.5337 -0.2376
   39POPC   C36 5273   0.468   2.350  23.491 -1.0003 -0.5992 -0.1264
   39POPC   H6X 5274   0.383   2.407  23.448 -0.3792 -0.8482 -1.7277
   39POPC   H6Y 5275   0.561   2.407  23.469 -2.8793  1.6599 -2.9979
   39POPC   C37 5276   0.431   2.351  23.646 -0.0989 -0.5829 -0.0306
   39POPC   H7X 5277   0.500   2.277  23.693 -1.4639 -1.6919  0.3169
   39POPC   H7Y 5278   0.329   2.313  23.668 -0.5986  0.1903 -0.9723
   39POPC   C38 5279   0.449   2.492  23.707 -0.2854 -0.1566 -0.1830
   39POPC   H8X 5280   0.365   2.558  23.675 -0.0366  1.0499  1.4487
   39POPC   H8Y 5281   0.551   2.532  23.689  1.7275 -1.9362  5.2368
   39POPC   C39 5282   0.436   2.490  23.863 -0.7918  0.2655  0.4722
   39POPC   H9X 5283   0.486   2.402  23.910 -1.9410 -1.7886 -1.8967
   39POPC   H9Y 5284   0.328   2.471  23.879 -0.6774 -1.5820 -0.7349
   39POPC  C310 5285   0.493   2.620  23.915 -0.2942  0.4756  0.1909
   39POPC  H10X 5286   0.460   2.711  23.859  0.1548 -0.1596 -1.1454
   39POPC  H10Y 5287   0.603   2.619  23.898 -0.4523 -1.2574 -0.8639
   39POPC  C311 5288   0.479   2.632  24.075 -0.5825  0.6607 -0.3414
   39POPC  H11X 5289   0.503   2.533  24.120  0.9492  0.8238 -0.7374
   39POPC  H11Y 5290   0.376   2.643  24.115  0.0276 -0.0560  1.5237
   39POPC  C312 5291   0.567   2.731  24.142  0.6070  0.3449  0.0013
   39POPC  H12X 5292   0.530   2.831  24.111 -0.9317  0.1530  1.1086
   39POPC  H12Y 5293   0.677   2.732  24.125  0.6009 -2.2226 -0.6436
   39POPC  C313 5294   0.543   2.709  24.295 -0.6896  0.3784 -0.3165
   39POPC  H13X 5295   0.438   2.694  24.329 -0.4687  0.1113  0.2714
   39POPC  H13Y 5296   0.565   2.806  24.343 -2.3799  0.0977  1.1400
   39POPC  C314 5297   0.646   2.610  24.358  1.6833 -0.4467  0.2745
   39POPC  H14X 5298   0.746   2.642  24.320  1.7129  0.0804  0.7825
   39POPC  H14Y 5299   0.623   2.513  24.309  0.6784  1.2070 -2.7224
   39POPC  C315 5300   0.650   2.613  24.506  0.2068  0.7949  0.1270
   39POPC  H15X 5301   0.722   2.534  24.537  0.7947  1.4324  0.4042
   39POPC  H15Y 5302   0.555   2.573  24.547  1.1045 -1.1528  0.4190
   39POPC  C316 5303   0.673   2.745  24.578  0.0869  0.2079 -0.4876
   39POPC  H16X 5304   0.574   2.793  24.594  0.7502  2.0123 -1.3981
   39POPC  H16Y 5305   0.732   2.813  24.512  2.3767  2.8753  3.8265
   39POPC  H16Z 5306   0.733   2.737  24.671  2.0068 -0.7716 -1.7482
   40POPC     N 5307   0.065   1.530  29.830 -0.2113  0.3032  0.2406
   40POPC   C12 5308   0.058   1.590  29.970  0.0789 -0.5034  0.4282
   40POPC  H12A 5309   0.078   1.510  30.039 -0.5315  0.0111  1.2372
   40POPC  H12B 5310  -0.041   1.631  29.987 -0.6833 -1.3770 -1.6004
   40POPC   C13 5311  -0.060   1.452  29.805  0.9109  0.7507  0.3346
   40POPC  H13A 5312  -0.067   1.418  29.703  1.1749 -0.2107  0.6243
   40POPC  H13B 5313  -0.065   1.372  29.877 -2.4162  1.8771  1.5713
   40POPC  H13C 5314  -0.156   1.501  29.813  0.7565  0.7024 -1.0182
   40POPC   C14 5315   0.074   1.630  29.722 -0.2745  0.1800 -0.4408
   40POPC  H14A 5316  -0.017   1.685  29.703  0.2327  2.0563  2.0316
   40POPC  H14B 5317   0.152   1.702  29.745 -1.5289  2.0523 -1.7233
   40POPC  H14C 5318   0.095   1.587  29.625  1.0142 -1.5098  0.5306
   40POPC   C15 5319   0.182   1.437  29.831  0.4798  0.0801  1.1360
   40POPC  H15A 5320   0.264   1.488  29.879  0.7451  1.1842 -0.4016
   40POPC  H15B 5321   0.211   1.404  29.732 -0.8552 -1.2407  1.1498
   40POPC  H15C 5322   0.161   1.346  29.885  0.7659 -0.1187  0.9180
   40POPC   C11 5323   0.171   1.700  30.003  0.0941  0.5305  0.0271
   40POPC  H11A 5324   0.267   1.653  29.975  0.4110  0.4735  1.1651
   40POPC  H11B 5325   0.178   1.724  30.112 -0.1063 -0.0109  0.1617
   40POPC     P 5326   0.041   1.921  29.971  0.1914  0.2138  0.0586
   40POPC   O13 5327  -0.078   1.840  30.016  0.0474  0.7092  0.1433
   40POPC   O14 5328   0.015   2.022  29.863  0.5020  0.3959 -0.5391
   40POPC   O12 5329   0.153   1.817  29.926 -0.3561 -0.7919 -0.1035
   40POPC   O11 5330   0.105   1.994  30.100  0.3386  0.3442  0.6824
   40POPC    C1 5331   0.238   2.045  30.107 -0.5117  0.2612 -0.2144
   40POPC    HA 5332   0.266   2.072  30.004 -2.3442  0.4177 -0.7075
   40POPC    HB 5333   0.303   1.966  30.151 -1.9077 -0.7906  0.0225
   40POPC    C2 5334   0.225   2.161  30.206 -0.0643 -0.3413 -0.8485
   40POPC    HS 5335   0.154   2.227  30.153  1.9308  1.1637 -1.7846
   40POPC   O21 5336   0.348   2.230  30.205  0.5763  0.2942 -0.6888
   40POPC   C21 5337   0.338   2.351  30.260  0.8498  0.0732  0.3418
   40POPC   O22 5338   0.232   2.391  30.311  0.4499 -0.2893  0.3364
   40POPC   C22 5339   0.474   2.419  30.255 -0.9645 -0.9025  0.0619
   40POPC   H2R 5340   0.524   2.407  30.156 -1.2357 -0.9890 -0.0679
   40POPC   H2S 5341   0.539   2.368  30.329 -0.9482 -0.4364  0.3754
   40POPC    C3 5342   0.181   2.106  30.344 -0.8751 -0.2845  1.0442
   40POPC    HX 5343   0.089   2.046  30.332 -0.4161 -0.7302 -0.5092
   40POPC    HY 5344   0.147   2.184  30.415  0.3175  0.4485  0.8467
   40POPC   O31 5345   0.298   2.038  30.407 -0.0249 -0.0498 -0.0561
   40POPC   C31 5346   0.290   1.910  30.441  0.3267  0.1643 -0.2585
   40POPC   O32 5347   0.188   1.839  30.427  0.4688  0.2040  0.5429
   40POPC   C32 5348   0.422   1.865  30.494 -0.0534 -0.3343  0.7046
   40POPC   H2X 5349   0.408   1.755  30.501  2.2038 -0.7409 -0.2402
   40POPC   H2Y 5350   0.428   1.906  30.597 -4.3662  2.0655  0.2006
   40POPC   C23 5351   0.463   2.570  30.296  0.3213 -0.5963  0.6673
   40POPC   H3R 5352   0.368   2.604  30.249  0.7184  1.2359  1.1427
   40POPC   H3S 5353   0.556   2.613  30.254  0.8168 -1.1640  1.1661
   40POPC   C24 5354   0.444   2.598  30.449  0.0696 -0.5815  0.1867
   40POPC   H4R 5355   0.343   2.564  30.481  0.9802 -1.3507  2.4171
   40POPC   H4S 5356   0.445   2.707  30.472  1.1791 -0.4951 -0.2469
   40POPC   C25 5357   0.550   2.544  30.538  0.8027 -0.6546 -0.1253
   40POPC   H5R 5358   0.653   2.555  30.498  1.2149 -1.1052  0.7748
   40POPC   H5S 5359   0.530   2.435  30.551  0.4379 -0.9187 -2.4911
   40POPC   C26 5360   0.549   2.608  30.680 -0.0301  0.6125 -0.1909
   40POPC   H6R 5361   0.573   2.716  30.672 -1.5163  1.2703  2.7478
   40POPC   H6S 5362   0.631   2.572  30.745 -1.9488 -1.0907  1.4337
   40POPC   C27 5363   0.418   2.599  30.759  0.5692  0.4454  0.3600
   40POPC   H7R 5364   0.384   2.494  30.758  0.2665  0.5188 -2.2863
   40POPC   H7S 5365   0.340   2.666  30.717 -1.2967 -0.4525  2.1851
   40POPC   C28 5366   0.424   2.640  30.908 -0.0969 -0.1280  0.2068
   40POPC   H8R 5367   0.322   2.637  30.953 -0.3141 -2.9354 -0.2743
   40POPC   H8S 5368   0.468   2.742  30.911  2.1103 -0.6635 -4.5159
   40POPC   C29 5369   0.515   2.549  30.985  0.3253 -0.1927 -0.6312
   40POPC   H91 5370   0.624   2.563  30.976  0.0687  2.5576 -0.0568
   40POPC  C210 5371   0.474   2.451  31.074  0.6076 -1.1251 -0.3130
   40POPC  H101 5372   0.550   2.400  31.135 -1.7874 -2.5982  1.6491
   40POPC  C211 5373   0.328   2.405  31.098 -0.0642  0.6232 -0.1635
   40POPC  H11R 5374   0.334   2.299  31.130  2.6533  0.5974 -0.4712
   40POPC  H11S 5375   0.264   2.417  31.008  0.7249  3.2881 -0.4518
   40POPC  C212 5376   0.241   2.471  31.200  0.6937 -0.1628 -0.0860
   40POPC  H12R 5377   0.212   2.576  31.176  1.7808  0.0644 -0.4672
   40POPC  H12S 5378   0.295   2.476  31.297  0.4193  0.6867  0.0313
   40POPC  C213 5379   0.104   2.404  31.212 -0.2321 -0.4201  0.5835
   40POPC  H13R 5380   0.121   2.302  31.253  0.0795 -1.3244 -1.6896
   40POPC  H13S 5381   0.045   2.413  31.119  0.9934 -0.2521 -0.1870
   40POPC  C214 5382   0.017   2.478  31.315 -0.1465 -0.3025  0.1819
   40POPC  H14R 5383  -0.022   2.565  31.258 -0.8401 -0.2841  0.6682
   40POPC  H14S 5384   0.075   2.517  31.401  0.7343 -3.4395  1.1425
   40POPC  C215 5385  -0.100   2.394  31.373  0.0662  0.2850 -0.5060
   40POPC  H15R 5386  -0.062   2.298  31.414 -1.2949 -0.3510 -0.6730
   40POPC  H15S 5387  -0.180   2.367  31.300 -2.7208  2.0094  1.6565
   40POPC  C216 5388  -0.176   2.466  31.487  0.0165  0.6256  0.0465
   40POPC  H16R 5389  -0.287   2.458  31.483  0.0645 -0.5042  0.4565
   40POPC  H16S 5390  -0.152   2.574  31.482  0.5330  0.5031 -0.2217
   40POPC  C217 5391  -0.139   2.418  31.630 -0.3830 -0.8405  0.0943
   40POPC  H17R 5392  -0.162   2.508  31.691 -0.3344  1.0647 -2.5554
   40POPC  H17S 5393  -0.032   2.389  31.625 -0.5387 -1.9913  2.2194
   40POPC  C218 5394  -0.224   2.309  31.690  0.5157  0.2234 -0.5042
   40POPC  H18R 5395  -0.227   2.231  31.610  0.5807  0.6527 -0.9331
   40POPC  H18S 5396  -0.328   2.343  31.706  0.3650 -0.8460  0.9628
   40POPC  H18T 5397  -0.181   2.259  31.779  2.1782  0.4056 -1.1608
   40POPC   C33 5398   0.543   1.896  30.400  0.7610  0.2025  0.4981
   40POPC   H3X 5399   0.626   1.841  30.449 -1.6971 -3.5563  0.8860
   40POPC   H3Y 5400   0.554   2.005  30.385 -3.7864  0.9444  1.1841
   40POPC   C34 5401   0.544   1.840  30.254 -0.1805 -0.2778  0.2895
   40POPC   H4X 5402   0.639   1.870  30.205 -1.3491  0.2636 -1.7879
   40POPC   H4Y 5403   0.468   1.893  30.193  2.5717  1.8757 -1.5354
   40POPC   C35 5404   0.541   1.685  30.248  0.9860 -0.0970  0.2356
   40POPC   H5X 5405   0.516   1.661  30.142 -5.1935  1.1960  0.9961
   40POPC   H5Y 5406   0.454   1.646  30.306 -0.4336  2.5024  0.0199
   40POPC   C36 5407   0.670   1.620  30.302 -0.0432  0.0403  0.6033
   40POPC   H6X 5408   0.655   1.617  30.412 -1.5036  0.4404  0.4403
   40POPC   H6Y 5409   0.752   1.692  30.282  0.4644 -0.7296 -0.1558
   40POPC   C37 5410   0.699   1.479  30.251 -0.3525 -0.6758  0.2466
   40POPC   H7X 5411   0.717   1.496  30.143 -2.2439 -0.5133 -0.0836
   40POPC   H7Y 5412   0.603   1.424  30.264 -0.5320 -0.4106  0.0521
   40POPC   C38 5413   0.814   1.412  30.324  0.6117 -0.0551 -0.1952
   40POPC   H8X 5414   0.784   1.382  30.427 -2.0533  1.0361 -0.6009
   40POPC   H8Y 5415   0.896   1.487  30.328  0.4877  0.0515  3.8635
   40POPC   C39 5416   0.874   1.286  30.268  0.1048  0.2811  0.1323
   40POPC   H9X 5417   0.878   1.297  30.157 -2.7653  0.8862  0.0030
   40POPC   H9Y 5418   0.811   1.204  30.308 -0.6219  0.7093 -0.1116
   40POPC  C310 5419   1.019   1.255  30.319 -0.1571  0.1397 -0.3745
   40POPC  H10X 5420   1.037   1.151  30.284  0.4067  0.6422 -1.6307
   40POPC  H10Y 5421   1.020   1.255  30.431 -1.9326 -1.7092 -0.3109
   40POPC  C311 5422   1.123   1.354  30.259  0.5783  0.1181 -0.4680
   40POPC  H11X 5423   1.093   1.458  30.285  0.3739 -0.0718  0.0807
   40POPC  H11Y 5424   1.129   1.326  30.152  1.5375 -1.8676  0.0548
   40POPC  C312 5425   1.259   1.320  30.317 -0.1913 -0.4078  0.4548
   40POPC  H12X 5426   1.323   1.392  30.261  0.7519 -1.0096  0.7408
   40POPC  H12Y 5427   1.275   1.212  30.297 -0.8691 -0.6324  1.0766
   40POPC  C313 5428   1.274   1.343  30.470  0.7662  0.6427 -0.7092
   40POPC  H13X 5429   1.363   1.296  30.516 -1.4964 -1.1626  2.2157
   40POPC  H13Y 5430   1.199   1.287  30.530  0.9926  0.8481 -0.2355
   40POPC  C314 5431   1.268   1.498  30.494 -0.1706 -0.7000 -0.6748
   40POPC  H14X 5432   1.164   1.535  30.480  0.1678  0.6266  0.0960
   40POPC  H14Y 5433   1.346   1.552  30.436  0.8135 -0.7996  0.5038
   40POPC  C315 5434   1.282   1.540  30.644 -0.5931 -0.2422  0.3542
   40POPC  H15X 5435   1.254   1.646  30.661 -1.1118 -0.8720  4.5193
   40POPC  H15Y 5436   1.386   1.534  30.682 -0.9750  1.4512  1.7821
   40POPC  C316 5437   1.195   1.468  30.742 -0.4565  0.2329 -0.1257
   40POPC  H16X 5438   1.212   1.494  30.849 -1.8706  2.1888 -0.3208
   40POPC  H16Y 5439   1.233   1.363  30.739  3.5330  1.5161 -0.3918
   40POPC  H16Z 5440   1.093   1.479  30.700 -1.4103 -0.6674  1.7896
   41CHL1    C3 5441   1.813   1.046  38.955  0.1055  0.2080  0.6249
   41CHL1    H3 5442   1.863   0.947  38.953 -0.2899 -0.0061 -2.1145
   41CHL1    O3 5443   1.666   1.035  38.955 -0.7190  0.4480  0.1533
   41CHL1   H3' 5444   1.631   1.123  38.966  0.7137  0.9147  1.1860
   41CHL1    C4 5445   1.857   1.129  39.078 -0.1399 -0.0552 -0.3302
   41CHL1   H4A 5446   1.801   1.224  39.083 -2.6030 -1.4749  0.9284
   41CHL1   H4B 5447   1.826   1.073  39.170  1.9302 -0.1506  0.3625
   41CHL1    C5 5448   2.008   1.147  39.079 -0.2049 -0.3364 -0.3815
   41CHL1    C6 5449   2.085   1.099  39.180  1.0864 -0.0248  0.8667
   41CHL1    H6 5450   2.039   1.056  39.270  1.6275  1.8005  2.0743
   41CHL1    C7 5451   2.221   1.135  39.198 -0.0813  0.2645  0.1853
   41CHL1   H7A 5452   2.241   1.182  39.297 -0.0599  2.0388 -0.6164
   41CHL1   H7B 5453   2.277   1.040  39.186 -1.0399 -0.4283  1.0154
   41CHL1    C8 5454   2.280   1.230  39.095  0.0631 -0.0452 -0.2769
   41CHL1    H8 5455   2.249   1.330  39.131 -1.2142 -0.5571  0.1338
   41CHL1   C14 5456   2.435   1.227  39.090  0.9228 -0.3492  0.1640
   41CHL1   H14 5457   2.462   1.124  39.057  1.3135 -0.9215  2.0889
   41CHL1   C15 5458   2.514   1.252  39.215  0.7609  0.0220 -0.0149
   41CHL1  H15A 5459   2.455   1.328  39.270 -1.7470 -1.7943  0.0122
   41CHL1  H15B 5460   2.529   1.173  39.291 -0.5576  1.2860  1.6272
   41CHL1   C16 5461   2.646   1.308  39.164 -0.0433  0.1405  0.0909
   41CHL1  H16A 5462   2.651   1.416  39.189  0.9858  0.4307 -1.2270
   41CHL1  H16B 5463   2.738   1.265  39.208 -1.9362 -3.7252  0.7171
   41CHL1   C17 5464   2.640   1.303  39.008 -0.4770 -0.2372 -0.0162
   41CHL1   H17 5465   2.670   1.202  38.973 -2.3114 -0.7022 -0.3668
   41CHL1   C13 5466   2.495   1.314  38.979  0.3308  0.1586  0.4017
   41CHL1   C18 5467   2.450   1.460  38.998 -0.1683  0.2517  0.5227
   41CHL1  H18A 5468   2.483   1.487  39.100 -2.3600  2.8026  0.6844
   41CHL1  H18B 5469   2.483   1.520  38.910 -1.3832 -0.8377 -0.7425
   41CHL1  H18C 5470   2.342   1.488  38.994  0.0291  0.9127 -0.9293
   41CHL1   C12 5471   2.439   1.267  38.849 -0.3852 -0.4619 -0.0869
   41CHL1  H12A 5472   2.484   1.322  38.764  0.4012 -1.2655 -0.2020
   41CHL1  H12B 5473   2.466   1.161  38.828  1.0270 -0.5294  1.8124
   41CHL1   C11 5474   2.288   1.279  38.840 -0.1070  0.5562 -0.1192
   41CHL1  H11A 5475   2.255   1.384  38.824 -0.7397  0.6341  1.5243
   41CHL1  H11B 5476   2.261   1.238  38.740 -0.9183  1.2559 -0.1956
   41CHL1    C9 5477   2.216   1.204  38.957  1.0752 -0.6992 -0.3679
   41CHL1    H9 5478   2.236   1.095  38.941 -0.6119 -0.6879 -3.2458
   41CHL1   C10 5479   2.070   1.221  38.958  0.6338  0.0021  1.1961
   41CHL1   C19 5480   2.027   1.367  38.959  0.0567 -0.3655 -0.0006
   41CHL1  H19A 5481   1.917   1.371  38.950  0.0365 -0.3732  0.2226
   41CHL1  H19B 5482   2.046   1.407  39.061 -0.9069  0.3895 -0.1037
   41CHL1  H19C 5483   2.074   1.440  38.890 -0.4971  0.6456  0.6717
   41CHL1    C1 5484   2.011   1.144  38.834  0.3225  0.9774 -0.3025
   41CHL1   H1A 5485   2.033   1.197  38.739  1.9929 -1.2399 -1.2646
   41CHL1   H1B 5486   2.061   1.044  38.835 -1.9610 -0.2865  2.8891
   41CHL1    C2 5487   1.855   1.125  38.828  0.0526  0.0946 -0.3585
   41CHL1   H2A 5488   1.822   1.075  38.735 -2.8472  0.8113  0.1848
   41CHL1   H2B 5489   1.797   1.219  38.827 -0.1485 -0.0179 -2.0443
   41CHL1   C20 5490   2.742   1.397  38.950 -0.3489  0.0572  0.7596
   41CHL1   H20 5491   2.708   1.500  38.976 -0.5001  0.0761  0.4920
   41CHL1   C21 5492   2.740   1.400  38.799 -0.5873  0.0521  0.4293
   41CHL1  H21A 5493   2.730   1.302  38.746  1.5909  0.6829 -1.3134
   41CHL1  H21B 5494   2.832   1.443  38.753 -0.4488  1.3812  1.8827
   41CHL1  H21C 5495   2.657   1.464  38.763 -0.0862 -1.0659 -3.1051
   41CHL1   C22 5496   2.881   1.371  39.010 -0.0915 -0.2867  0.1530
   41CHL1  H22A 5497   2.953   1.449  38.976 -0.0723 -0.7298 -0.8253
   41CHL1  H22B 5498   2.886   1.391  39.120 -1.1207 -0.0038  0.1560
   41CHL1   C23 5499   2.945   1.234  38.977  0.1277  0.2710  0.3222
   41CHL1  H23A 5500   2.893   1.162  39.043 -1.5432 -0.0681 -1.2794
   41CHL1  H23B 5501   2.942   1.215  38.867  0.3186  2.4890 -0.1158
   41CHL1   C24 5502   3.084   1.235  39.032 -0.0386 -0.1524  0.0518
   41CHL1  H24A 5503   3.135   1.317  38.978 -0.3788  0.1775  0.2282
   41CHL1  H24B 5504   3.093   1.267  39.138  4.7646  0.3618 -0.2891
   41CHL1   C25 5505   3.180   1.105  39.021 -0.1699  0.7483  0.0529
   41CHL1   H25 5506   3.138   1.030  39.092  1.0424  1.3483  1.4673
   41CHL1   C26 5507   3.171   1.050  38.876  0.8388  0.8835 -0.4027
   41CHL1  H26A 5508   3.229   0.955  38.879  0.1414  0.4172 -1.0343
   41CHL1  H26B 5509   3.070   1.012  38.850  2.0530 -2.1198 -1.1400
   41CHL1  H26C 5510   3.203   1.120  38.796 -1.9205 -1.6651 -4.1353
   41CHL1   C27 5511   3.320   1.138  39.069 -0.5980  0.1237 -0.1533
   41CHL1  H27A 5512   3.381   1.196  38.997  1.2973  0.2274  1.4415
   41CHL1  H27B 5513   3.297   1.199  39.159 -1.8831 -0.9750  0.2919
   41CHL1  H27C 5514   3.388   1.058  39.104 -1.1821  0.0896  0.9542
   42CHL1    C3 5515   2.198   1.084  42.085  0.3403  0.6293  0.2517
   42CHL1    H3 5516   2.157   1.181  42.120  1.7032  0.8797  1.2242
   42CHL1    O3 5517   2.268   1.027  42.195  0.6395  0.2410  0.7400
   42CHL1   H3' 5518   2.351   1.076  42.199 -0.4628  2.4079 -0.7752
   42CHL1    C4 5519   2.104   0.982  42.022  0.3138 -0.6139 -0.2026
   42CHL1   H4A 5520   2.159   0.887  42.004  3.2690  1.0038 -0.4365
   42CHL1   H4B 5521   2.025   0.958  42.096  0.0782  0.8411  0.0509
   42CHL1    C5 5522   2.041   1.016  41.881 -0.0548  0.5016 -0.4137
   42CHL1    C6 5523   1.906   1.006  41.850  0.5703  0.3606  0.3423
   42CHL1    H6 5524   1.830   0.973  41.922 -0.0151  0.3628 -0.2761
   42CHL1    C7 5525   1.852   1.041  41.718 -0.4406 -0.0897  0.5208
   42CHL1   H7A 5526   1.764   0.980  41.691 -1.6979  1.6954  0.3696
   42CHL1   H7B 5527   1.801   1.140  41.726  0.1361  0.1998  0.6514
   42CHL1    C8 5528   1.957   1.055  41.604  0.3650 -0.2223  0.4257
   42CHL1    H8 5529   1.995   0.960  41.561  2.2932  0.4751  0.4987
   42CHL1   C14 5530   1.900   1.128  41.490  0.0876 -0.3638 -0.2993
   42CHL1   H14 5531   1.871   1.223  41.541 -1.1140 -0.8657 -0.0235
   42CHL1   C15 5532   1.768   1.076  41.438 -0.7057  0.1191 -0.2989
   42CHL1  H15A 5533   1.777   0.966  41.424  3.7777 -0.2274  2.8846
   42CHL1  H15B 5534   1.684   1.105  41.506  0.0044  0.7424  0.3350
   42CHL1   C16 5535   1.754   1.157  41.308  0.4001 -0.5844 -0.0223
   42CHL1  H16A 5536   1.723   1.085  41.229 -1.3253 -0.4211  0.4572
   42CHL1  H16B 5537   1.676   1.235  41.320  0.6730 -0.2117 -0.6061
   42CHL1   C17 5538   1.892   1.222  41.277  0.2576 -0.2567  0.2934
   42CHL1   H17 5539   1.890   1.328  41.311  0.5350  0.7293 -2.4870
   42CHL1   C13 5540   1.991   1.155  41.368 -0.0731  0.1082  0.0025
   42CHL1   C18 5541   2.045   1.025  41.301  0.5181 -0.5232 -0.2788
   42CHL1  H18A 5542   2.118   1.049  41.221 -2.4980  1.4254 -2.6948
   42CHL1  H18B 5543   2.093   0.960  41.376 -1.2895 -0.4481  1.0157
   42CHL1  H18C 5544   1.953   0.977  41.261 -1.3557  1.7057  1.0953
   42CHL1   C12 5545   2.106   1.238  41.423 -0.1382  0.0106 -0.2145
   42CHL1  H12A 5546   2.189   1.257  41.352 -0.9858  0.0831 -1.2018
   42CHL1  H12B 5547   2.073   1.335  41.464  0.0536  0.6907 -1.6043
   42CHL1   C11 5548   2.180   1.165  41.540  0.2667 -0.0084  0.0415
   42CHL1  H11A 5549   2.223   1.071  41.497  1.4504 -0.5189  2.2154
   42CHL1  H11B 5550   2.273   1.217  41.570  1.1819 -0.2653 -2.1265
   42CHL1    C9 5551   2.087   1.128  41.654  0.0861 -0.6043 -0.3040
   42CHL1    H9 5552   2.049   1.228  41.687  0.5438 -0.9332  1.2865
   42CHL1   C10 5553   2.150   1.068  41.780  1.1337 -0.1472 -0.6134
   42CHL1   C19 5554   2.235   0.945  41.722 -0.2841 -0.4743 -0.6241
   42CHL1  H19A 5555   2.262   0.880  41.808 -0.3413 -0.9013 -0.9222
   42CHL1  H19B 5556   2.173   0.883  41.654 -0.3391 -2.4909  1.1643
   42CHL1  H19C 5557   2.329   0.970  41.668 -0.2384 -0.3156 -0.4736
   42CHL1    C1 5558   2.243   1.166  41.849  0.0559  0.6850 -0.1927
   42CHL1   H1A 5559   2.330   1.187  41.782  0.0610  0.3459 -0.2961
   42CHL1   H1B 5560   2.199   1.267  41.860  0.1358  0.7485 -0.4305
   42CHL1    C2 5561   2.307   1.112  41.979 -0.3581  0.7175 -0.5333
   42CHL1   H2A 5562   2.378   1.192  42.011  0.7144 -0.5519  0.3430
   42CHL1   H2B 5563   2.367   1.022  41.956  0.4719  1.5712 -1.9057
   42CHL1   C20 5564   1.919   1.231  41.125 -0.8440  0.1800 -1.5000
   42CHL1   H20 5565   1.934   1.132  41.078 -0.5663  0.5397 -2.1860
   42CHL1   C21 5566   2.055   1.309  41.092  0.0492  0.3690 -0.8542
   42CHL1  H21A 5567   2.041   1.411  41.132  0.3359  0.2943 -0.5481
   42CHL1  H21B 5568   2.079   1.327  40.985  0.4288  0.1358 -0.8093
   42CHL1  H21C 5569   2.147   1.257  41.128  0.0348  1.9098  1.6310
   42CHL1   C22 5570   1.796   1.290  41.049  0.1247 -0.2506  0.8285
   42CHL1  H22A 5571   1.707   1.230  41.076 -1.0433  1.1559  0.2085
   42CHL1  H22B 5572   1.775   1.391  41.090 -1.7553  0.3053 -1.3547
   42CHL1   C23 5573   1.808   1.293  40.896  0.3274 -0.2157 -0.7061
   42CHL1  H23A 5574   1.723   1.350  40.852  1.0472  2.9623  1.7267
   42CHL1  H23B 5575   1.887   1.368  40.874  0.0514  0.1494 -0.4696
   42CHL1   C24 5576   1.827   1.161  40.819  0.0064 -0.6833 -0.7026
   42CHL1  H24A 5577   1.851   1.186  40.714 -1.0666 -1.3409 -1.1194
   42CHL1  H24B 5578   1.907   1.108  40.876  1.1227  2.4453  0.8859
   42CHL1   C25 5579   1.695   1.071  40.817  0.2570  1.0889 -0.7629
   42CHL1   H25 5580   1.652   1.077  40.919  0.8113  0.2732 -0.4690
   42CHL1   C26 5581   1.586   1.109  40.720  1.2165 -0.4986  0.1174
   42CHL1  H26A 5582   1.623   1.096  40.616  2.0343  1.4440  0.1273
   42CHL1  H26B 5583   1.492   1.051  40.730  1.2688 -0.8857 -1.4213
   42CHL1  H26C 5584   1.558   1.211  40.753 -0.4830 -0.8010 -0.2618
   42CHL1   C27 5585   1.743   0.924  40.775  0.0267 -0.0916 -0.8589
   42CHL1  H27A 5586   1.762   0.919  40.666 -0.5637  1.5927 -1.0679
   42CHL1  H27B 5587   1.826   0.887  40.839  0.5032  0.6222 -1.0564
   42CHL1  H27C 5588   1.655   0.860  40.794 -0.2251  0.4791 -0.0037
   43CHL1    C3 5589   1.539   0.760  42.138 -0.1218 -0.7357  0.3525
   43CHL1    H3 5590   1.506   0.865  42.121 -1.7728 -1.6593 -2.8815
   43CHL1    O3 5591   1.556   0.741  42.278  0.0373  0.1751 -0.6410
   43CHL1   H3' 5592   1.628   0.798  42.307 -0.7241  0.5527  0.5844
   43CHL1    C4 5593   1.427   0.668  42.089 -0.2704 -0.3969 -0.0234
   43CHL1   H4A 5594   1.451   0.562  42.110 -1.1504 -0.3655  1.2398
   43CHL1   H4B 5595   1.331   0.687  42.141 -0.1682 -0.0321  0.0373
   43CHL1    C5 5596   1.405   0.694  41.940  0.0524 -0.9040 -0.1404
   43CHL1    C6 5597   1.284   0.719  41.887  0.1167 -0.4648  0.0598
   43CHL1    H6 5598   1.190   0.718  41.945 -0.6939  2.0992 -1.0763
   43CHL1    C7 5599   1.257   0.756  41.744  0.0440  0.0655 -0.1604
   43CHL1   H7A 5600   1.164   0.701  41.718 -0.9826  0.7694  1.8030
   43CHL1   H7B 5601   1.245   0.866  41.732 -1.3211 -0.0529 -0.0243
   43CHL1    C8 5602   1.368   0.703  41.658 -0.3874 -0.4174  0.6038
   43CHL1    H8 5603   1.368   0.592  41.656 -1.7673 -0.4201 -0.0943
   43CHL1   C14 5604   1.354   0.736  41.507 -0.1420  0.2643  0.2658
   43CHL1   H14 5605   1.362   0.846  41.502  1.5146  0.1507 -0.5061
   43CHL1   C15 5606   1.222   0.706  41.439  0.7727  0.1276  0.1509
   43CHL1  H15A 5607   1.202   0.599  41.462 -1.2189  0.1806 -1.0664
   43CHL1  H15B 5608   1.143   0.774  41.475  2.2172  2.5246 -0.9626
   43CHL1   C16 5609   1.249   0.719  41.292  0.2937 -0.0627 -0.3124
   43CHL1  H16A 5610   1.211   0.623  41.252 -0.8723 -0.5276  1.7447
   43CHL1  H16B 5611   1.189   0.807  41.261  1.3539  1.3940  1.5170
   43CHL1   C17 5612   1.401   0.731  41.283 -0.9956 -0.4056  0.0045
   43CHL1   H17 5613   1.421   0.840  41.278  1.5550 -0.8241 -0.4197
   43CHL1   C13 5614   1.466   0.688  41.411  0.2454 -0.0066 -0.7911
   43CHL1   C18 5615   1.478   0.537  41.420  0.0339 -0.7745  0.0981
   43CHL1  H18A 5616   1.547   0.486  41.349 -0.9505 -1.2649 -0.5240
   43CHL1  H18B 5617   1.524   0.488  41.508  0.5341 -2.5441 -1.0818
   43CHL1  H18C 5618   1.377   0.489  41.417 -0.6597  0.6786 -0.9634
   43CHL1   C12 5619   1.592   0.763  41.458 -0.0634 -0.0855  0.2611
   43CHL1  H12A 5620   1.686   0.736  41.405 -0.2338 -1.7768  0.7539
   43CHL1  H12B 5621   1.570   0.871  41.445 -0.2070 -0.0137  1.0374
   43CHL1   C11 5622   1.615   0.720  41.605 -0.0108  0.5751 -0.4718
   43CHL1  H11A 5623   1.642   0.612  41.607 -2.4955 -0.1357 -1.3126
   43CHL1  H11B 5624   1.708   0.776  41.630  0.2832 -0.6879  1.4885
   43CHL1    C9 5625   1.505   0.750  41.718 -0.0802 -0.2595  0.7390
   43CHL1    H9 5626   1.491   0.860  41.711 -0.0320 -0.3256 -0.7584
   43CHL1   C10 5627   1.532   0.697  41.852  0.5809  0.5897 -0.2399
   43CHL1   C19 5628   1.572   0.548  41.843  0.6154 -0.3260 -0.4511
   43CHL1  H19A 5629   1.502   0.485  41.784 -3.4580  1.4386  2.0424
   43CHL1  H19B 5630   1.675   0.546  41.802  0.7758  0.1616 -0.0779
   43CHL1  H19C 5631   1.581   0.504  41.944  1.2486  1.0962  0.1423
   43CHL1    C1 5632   1.644   0.773  41.919 -0.0227 -0.1554  0.3328
   43CHL1   H1A 5633   1.728   0.771  41.847 -1.1477 -1.3770 -0.9969
   43CHL1   H1B 5634   1.607   0.878  41.916 -1.3723 -0.6374 -0.6558
   43CHL1    C2 5635   1.678   0.740  42.066  0.1005  0.0247 -0.3345
   43CHL1   H2A 5636   1.747   0.817  42.106 -2.6657  1.8239  1.3481
   43CHL1   H2B 5637   1.718   0.637  42.079  1.7486  0.7503  0.6935
   43CHL1   C20 5638   1.454   0.679  41.151  0.7909 -0.0587  0.9600
   43CHL1   H20 5639   1.449   0.568  41.142 -0.5965 -0.1147  1.9919
   43CHL1   C21 5640   1.597   0.715  41.124  0.4486 -0.2962  0.2357
   43CHL1  H21A 5641   1.623   0.821  41.104  0.6321 -0.1336  1.2797
   43CHL1  H21B 5642   1.629   0.669  41.028  0.5580  0.5819 -0.1552
   43CHL1  H21C 5643   1.663   0.687  41.210 -1.5303  3.4931  3.2893
   43CHL1   C22 5644   1.358   0.726  41.030 -0.3023  0.4427  0.0762
   43CHL1  H22A 5645   1.249   0.702  41.037 -0.4002  1.0189  0.6697
   43CHL1  H22B 5646   1.356   0.837  41.026 -0.7040  0.4804  0.9722
   43CHL1   C23 5647   1.402   0.668  40.890  0.4335 -0.8601 -0.4298
   43CHL1  H23A 5648   1.326   0.702  40.817  0.8056 -0.6369 -0.7191
   43CHL1  H23B 5649   1.498   0.714  40.858 -0.0017 -0.6230 -1.3991
   43CHL1   C24 5650   1.418   0.512  40.888  0.1989 -0.0527  0.3001
   43CHL1  H24A 5651   1.508   0.471  40.938  0.5345  0.0009 -0.2493
   43CHL1  H24B 5652   1.329   0.471  40.940 -0.4995  1.1709  0.1078
   43CHL1   C25 5653   1.418   0.449  40.750  0.1895 -0.6228  0.3226
   43CHL1   H25 5654   1.334   0.506  40.705  0.6462  0.4726  0.8242
   43CHL1   C26 5655   1.546   0.481  40.666  0.4794  0.1646 -0.0660
   43CHL1  H26A 5656   1.635   0.432  40.711  0.8773  0.6841 -0.2736
   43CHL1  H26B 5657   1.550   0.434  40.565  1.6035  0.8961 -0.3811
   43CHL1  H26C 5658   1.552   0.591  40.653 -2.0230  0.3008 -0.6500
   43CHL1   C27 5659   1.375   0.299  40.742  0.1274 -0.5829 -0.2240
   43CHL1  H27A 5660   1.453   0.235  40.790  1.0619 -0.5883 -1.6849
   43CHL1  H27B 5661   1.277   0.295  40.794  0.3705 -1.5642  0.1803
   43CHL1  H27C 5662   1.361   0.274  40.635  0.9883 -1.9107 -0.0509
   44CHL1    C3 5663   2.524   3.093  42.094 -0.0840  0.5022 -0.7121
   44CHL1    H3 5664   2.419   3.064  42.114  0.8048 -1.5372  1.4977
   44CHL1    O3 5665   2.590   3.094  42.216 -0.1558  0.0663 -0.2772
   44CHL1   H3' 5666   2.682   3.096  42.189  0.8882  2.5035  2.8531
   44CHL1    C4 5667   2.590   2.983  42.014 -0.1816 -0.3041  0.1004
   44CHL1   H4A 5668   2.696   3.012  42.001  0.8960 -3.7680  0.1834
   44CHL1   H4B 5669   2.586   2.884  42.065 -1.5852 -1.5518 -2.2757
   44CHL1    C5 5670   2.533   2.975  41.881  0.2393 -0.4373  0.0697
   44CHL1    C6 5671   2.467   2.871  41.838  0.5721  0.1406  0.2541
   44CHL1    H6 5672   2.472   2.776  41.895 -2.5236  0.8721  1.9450
   44CHL1    C7 5673   2.416   2.857  41.697 -0.2618  0.1142  0.8650
   44CHL1   H7A 5674   2.453   2.766  41.645  1.9229  1.5501 -0.2534
   44CHL1   H7B 5675   2.305   2.847  41.699 -0.1660 -1.0023  0.8798
   44CHL1    C8 5676   2.454   2.969  41.604 -0.7792 -0.1621 -0.5124
   44CHL1    H8 5677   2.561   2.952  41.581 -0.4409  0.6583  0.4133
   44CHL1   C14 5678   2.359   2.971  41.485  0.8405  0.8106  0.6822
   44CHL1   H14 5679   2.255   2.991  41.519 -0.0747 -2.1195 -0.0983
   44CHL1   C15 5680   2.334   2.843  41.401 -0.7602 -0.7576  0.4196
   44CHL1  H15A 5681   2.435   2.820  41.362 -1.2978  0.6999 -2.0180
   44CHL1  H15B 5682   2.287   2.760  41.459 -2.2103  0.1401  0.5938
   44CHL1   C16 5683   2.245   2.897  41.291  0.1765  0.0214 -0.2124
   44CHL1  H16A 5684   2.281   2.855  41.195  1.7100  2.7625 -0.9542
   44CHL1  H16B 5685   2.141   2.862  41.306  0.0212  0.9112  0.9002
   44CHL1   C17 5686   2.259   3.051  41.282  0.4187 -0.1717  0.8315
   44CHL1   H17 5687   2.165   3.086  41.330 -0.4659 -1.5955  0.2002
   44CHL1   C13 5688   2.377   3.089  41.385  0.2924 -0.4483  0.4468
   44CHL1   C18 5689   2.510   3.082  41.316  0.3846  0.1682  0.0384
   44CHL1  H18A 5690   2.513   3.159  41.236  1.5353  0.4336  0.3236
   44CHL1  H18B 5691   2.598   3.106  41.380 -0.5433  1.8383  0.7695
   44CHL1  H18C 5692   2.530   2.982  41.271  0.4311 -0.6602  1.8112
   44CHL1   C12 5693   2.363   3.216  41.466 -0.3970 -0.3095 -0.1367
   44CHL1  H12A 5694   2.363   3.306  41.401  1.0021 -2.0243 -2.6693
   44CHL1  H12B 5695   2.266   3.227  41.519 -0.3823  0.9115 -0.3422
   44CHL1   C11 5696   2.463   3.226  41.580  0.3479 -0.5028 -0.1450
   44CHL1  H11A 5697   2.568   3.227  41.545  0.6138 -0.2904  0.6352
   44CHL1  H11B 5698   2.439   3.325  41.625 -0.7363 -0.1173 -1.5129
   44CHL1    C9 5699   2.450   3.105  41.674 -0.6265 -0.0840  0.3421
   44CHL1    H9 5700   2.345   3.106  41.709 -0.7045 -1.4822  0.2152
   44CHL1   C10 5701   2.534   3.112  41.807 -0.2586 -0.0465 -0.3684
   44CHL1   C19 5702   2.678   3.141  41.763 -0.1941 -0.9479 -0.1569
   44CHL1  H19A 5703   2.692   3.244  41.721 -0.9174 -1.8667 -2.8505
   44CHL1  H19B 5704   2.752   3.126  41.845  1.1770  1.5168 -0.8357
   44CHL1  H19C 5705   2.704   3.071  41.681 -2.4216 -0.6797 -1.1534
   44CHL1    C1 5706   2.472   3.223  41.891  0.9052 -0.3725 -0.1489
   44CHL1   H1A 5707   2.489   3.319  41.837 -0.4162 -0.3546 -0.5823
   44CHL1   H1B 5708   2.367   3.205  41.922 -0.1894  0.8923 -2.8231
   44CHL1    C2 5709   2.536   3.235  42.028 -0.3039  0.2908  0.2533
   44CHL1   H2A 5710   2.479   3.312  42.084 -0.0348  0.6280  0.0713
   44CHL1   H2B 5711   2.638   3.276  42.010 -0.5636 -0.3041 -3.3636
   44CHL1   C20 5712   2.252   3.114  41.145  0.0192  1.1538  0.4186
   44CHL1   H20 5713   2.284   3.220  41.149 -0.4576  1.3715 -1.0937
   44CHL1   C21 5714   2.104   3.101  41.111 -0.0273  0.7001 -1.1561
   44CHL1  H21A 5715   2.091   3.150  41.012  0.7916  1.9162 -0.6860
   44CHL1  H21B 5716   2.041   3.154  41.186 -0.3871 -1.0402 -0.1764
   44CHL1  H21C 5717   2.069   2.996  41.103  2.2448 -0.1221 -0.8078
   44CHL1   C22 5718   2.330   3.045  41.034  0.1613 -0.0643 -0.0542
   44CHL1  H22A 5719   2.400   2.967  41.068 -1.3055 -1.2076  0.4642
   44CHL1  H22B 5720   2.258   2.996  40.963  1.0177 -2.5819  0.7044
   44CHL1   C23 5721   2.404   3.143  40.941  0.1735 -0.7954  0.2452
   44CHL1  H23A 5722   2.350   3.237  40.914  0.4811  0.3457  3.2550
   44CHL1  H23B 5723   2.486   3.183  41.004 -1.1674  0.3060  1.3582
   44CHL1   C24 5724   2.470   3.083  40.819 -0.2915 -0.1971  0.2265
   44CHL1  H24A 5725   2.563   3.026  40.843  0.3633  0.0214 -1.6246
   44CHL1  H24B 5726   2.396   3.027  40.760 -4.0337  2.2778  2.1450
   44CHL1   C25 5727   2.530   3.196  40.722 -0.1177 -0.1852 -0.6872
   44CHL1   H25 5728   2.575   3.288  40.764  2.9062 -2.1099  0.5799
   44CHL1   C26 5729   2.636   3.128  40.633 -0.3423  0.2088 -0.4060
   44CHL1  H26A 5730   2.729   3.102  40.688 -0.9643  1.5580  1.3534
   44CHL1  H26B 5731   2.589   3.034  40.597 -2.6279  0.7821  0.8934
   44CHL1  H26C 5732   2.666   3.200  40.554 -0.5301  2.5900  1.5713
   44CHL1   C27 5733   2.426   3.241  40.619 -0.7356 -0.1768 -0.0422
   44CHL1  H27A 5734   2.329   3.267  40.668 -1.4301  0.6072 -1.7425
   44CHL1  H27B 5735   2.456   3.338  40.574 -0.6959  1.3020  2.9268
   44CHL1  H27C 5736   2.412   3.156  40.549 -2.7189  0.7036 -0.7873
   45CHL1    C3 5737   1.799   0.519  39.321 -0.5804 -0.2532 -0.3489
   45CHL1    H3 5738   1.793   0.573  39.418  0.1908  0.7999 -0.8676
   45CHL1    O3 5739   1.677   0.545  39.247  0.3748 -0.1631 -0.0813
   45CHL1   H3' 5740   1.682   0.635  39.212  0.7655 -0.0103  0.3419
   45CHL1    C4 5741   1.921   0.584  39.244  0.1998  0.2405 -0.1131
   45CHL1   H4A 5742   1.915   0.540  39.142  0.5932  0.2885 -0.1588
   45CHL1   H4B 5743   1.906   0.694  39.235  0.4980  0.3237  0.3486
   45CHL1    C5 5744   2.046   0.546  39.323 -0.9857 -1.0561 -0.0000
   45CHL1    C6 5745   2.129   0.630  39.389 -0.1554  0.1455  0.6392
   45CHL1    H6 5746   2.098   0.734  39.402  0.4965  0.6798 -1.7460
   45CHL1    C7 5747   2.249   0.584  39.473  0.3197 -0.2416 -0.0286
   45CHL1   H7A 5748   2.340   0.618  39.419  0.0913  1.7022  0.7000
   45CHL1   H7B 5749   2.245   0.644  39.567 -1.3594 -1.3662  0.6598
   45CHL1    C8 5750   2.247   0.434  39.509 -1.1677 -0.7070 -0.6992
   45CHL1    H8 5751   2.168   0.425  39.587 -0.1999 -0.7439  0.3075
   45CHL1   C14 5752   2.370   0.378  39.579 -0.6048  0.0395  0.0733
   45CHL1   H14 5753   2.400   0.448  39.659  0.2408  0.5264 -0.6464
   45CHL1   C15 5754   2.350   0.240  39.654  0.4110  0.8453 -0.3411
   45CHL1  H15A 5755   2.281   0.238  39.741 -0.4923 -3.5916 -0.9166
   45CHL1  H15B 5756   2.309   0.169  39.579 -0.2118  2.4727 -1.5943
   45CHL1   C16 5757   2.487   0.182  39.679  0.0532 -0.6409 -0.3661
   45CHL1  H16A 5758   2.516   0.200  39.785  1.0259  0.2708 -0.7693
   45CHL1  H16B 5759   2.499   0.075  39.651  0.2633 -0.4679 -0.9692
   45CHL1   C17 5760   2.585   0.262  39.586  0.9283  0.0778 -0.5548
   45CHL1   H17 5761   2.623   0.183  39.518 -1.6714  0.5026 -2.6590
   45CHL1   C13 5762   2.495   0.351  39.495 -0.3237 -0.0100 -0.2203
   45CHL1   C18 5763   2.573   0.475  39.452  0.2485  0.5739 -0.4807
   45CHL1  H18A 5764   2.504   0.524  39.380 -1.3643  0.3596  0.8552
   45CHL1  H18B 5765   2.586   0.547  39.535 -1.7850 -1.2088  1.5228
   45CHL1  H18C 5766   2.663   0.442  39.396  1.0182  0.7223  0.6487
   45CHL1   C12 5767   2.464   0.274  39.365  0.4712  0.2893 -0.1951
   45CHL1  H12A 5768   2.550   0.290  39.297  0.4422  0.5267 -0.1788
   45CHL1  H12B 5769   2.439   0.166  39.364 -0.3958  0.4691 -1.7877
   45CHL1   C11 5770   2.342   0.342  39.299  1.0725 -0.2483 -0.1151
   45CHL1  H11A 5771   2.373   0.440  39.256 -0.2472  0.2958  0.1134
   45CHL1  H11B 5772   2.308   0.283  39.212 -1.6534  0.9452  0.0149
   45CHL1    C9 5773   2.216   0.356  39.386  0.3769 -0.0897  0.1296
   45CHL1    H9 5774   2.189   0.256  39.425 -0.2771  0.0786  0.1276
   45CHL1   C10 5775   2.078   0.396  39.320 -0.1243  0.6688  0.0390
   45CHL1   C19 5776   2.070   0.335  39.183 -0.1620  0.0447 -0.6913
   45CHL1  H19A 5777   1.970   0.349  39.137  0.1013 -1.3134 -1.7743
   45CHL1  H19B 5778   2.149   0.371  39.114  2.2787 -3.6134 -0.1140
   45CHL1  H19C 5779   2.073   0.224  39.194 -1.0367  0.0449 -0.3548
   45CHL1    C1 5780   1.960   0.332  39.392 -0.1350  0.2087 -0.5133
   45CHL1   H1A 5781   1.966   0.221  39.399 -1.0747  0.1429 -0.6646
   45CHL1   H1B 5782   1.957   0.366  39.498  0.5871 -0.6709 -0.1942
   45CHL1    C2 5783   1.820   0.366  39.340 -0.0203  0.0231  0.5200
   45CHL1   H2A 5784   1.738   0.325  39.403 -3.0586  2.4625 -1.5012
   45CHL1   H2B 5785   1.826   0.309  39.245 -0.4322  0.7071  0.0724
   45CHL1   C20 5786   2.707   0.328  39.649 -0.8026  0.9299 -0.0953
   45CHL1   H20 5787   2.763   0.389  39.575  1.7990 -1.7151 -0.4620
   45CHL1   C21 5788   2.815   0.224  39.686  0.4631 -0.6122 -0.0945
   45CHL1  H21A 5789   2.770   0.138  39.739 -0.6374  0.1218  0.1793
   45CHL1  H21B 5790   2.896   0.279  39.739 -0.7997  0.7900  0.4648
   45CHL1  H21C 5791   2.859   0.184  39.592 -0.8054 -2.3617  0.0221
   45CHL1   C22 5792   2.676   0.421  39.768  0.0730  0.1420 -0.2393
   45CHL1  H22A 5793   2.584   0.480  39.750  1.7424  2.7300 -0.8571
   45CHL1  H22B 5794   2.660   0.367  39.863  1.8251  1.2436  0.7595
   45CHL1   C23 5795   2.785   0.524  39.790 -0.1717  0.0662  0.6514
   45CHL1  H23A 5796   2.886   0.479  39.802  0.6597  2.0471  1.3681
   45CHL1  H23B 5797   2.789   0.591  39.702  1.9368 -1.3978 -0.4568
   45CHL1   C24 5798   2.765   0.605  39.920  0.0893 -0.2562  0.7485
   45CHL1  H24A 5799   2.659   0.633  39.940  0.8291  1.3093  2.7455
   45CHL1  H24B 5800   2.787   0.539  40.006 -2.2838  0.3085  1.8858
   45CHL1   C25 5801   2.858   0.725  39.938  0.5840  0.1885  0.5808
   45CHL1   H25 5802   2.965   0.695  39.934  0.3999 -0.3685 -1.2907
   45CHL1   C26 5803   2.838   0.829  39.830  0.1416 -0.4033  0.3085
   45CHL1  H26A 5804   2.870   0.792  39.730  0.1221  1.3569 -0.3831
   45CHL1  H26B 5805   2.730   0.854  39.824  0.8132  3.1510  0.8648
   45CHL1  H26C 5806   2.892   0.926  39.842  1.1449 -0.9678  0.4813
   45CHL1   C27 5807   2.842   0.797  40.077  0.2097  0.3414  0.0586
   45CHL1  H27A 5808   2.734   0.822  40.082 -0.6456 -3.0281  0.8834
   45CHL1  H27B 5809   2.875   0.738  40.165  1.3720 -0.1651 -0.6925
   45CHL1  H27C 5810   2.894   0.896  40.075 -2.8898  2.1140  0.2141
   46CHL1    C3 5811   0.198   1.945  39.459  0.7431 -0.1485 -0.1093
   46CHL1    H3 5812   0.228   1.984  39.558 -2.3735 -0.5849  1.1031
   46CHL1    O3 5813   0.317   1.922  39.381 -0.3167 -0.4887  0.1545
   46CHL1   H3' 5814   0.321   2.007  39.336 -2.0308 -0.3085  0.2613
   46CHL1    C4 5815   0.124   1.812  39.474  0.0379 -0.0546  0.0031
   46CHL1   H4A 5816   0.108   1.768  39.373 -0.9532  1.6634 -0.6449
   46CHL1   H4B 5817   0.191   1.748  39.534  1.9152  3.0709  1.5120
   46CHL1    C5 5818  -0.007   1.837  39.541  0.0108  0.6133  0.2404
   46CHL1    C6 5819  -0.029   1.768  39.654 -0.7351 -0.0524  0.0655
   46CHL1    H6 5820   0.054   1.705  39.687  0.2120 -0.7778 -3.3355
   46CHL1    C7 5821  -0.157   1.787  39.735  0.1372 -0.2441 -0.1862
   46CHL1   H7A 5822  -0.186   1.683  39.760 -0.3332 -0.2796 -0.8481
   46CHL1   H7B 5823  -0.130   1.821  39.837  0.7976  1.1607 -0.8130
   46CHL1    C8 5824  -0.269   1.866  39.665  0.2096  0.2529  0.0069
   46CHL1    H8 5825  -0.320   1.791  39.601  2.8605 -1.3404 -0.3845
   46CHL1   C14 5826  -0.375   1.909  39.768 -0.6338  0.2348  0.0883
   46CHL1   H14 5827  -0.310   1.970  39.835 -0.2859  1.6007 -1.4321
   46CHL1   C15 5828  -0.449   1.796  39.847 -0.6624  0.1909  0.1912
   46CHL1  H15A 5829  -0.495   1.720  39.780 -2.0133  1.4381 -0.3545
   46CHL1  H15B 5830  -0.375   1.749  39.915 -0.4220  1.6565  0.9891
   46CHL1   C16 5831  -0.560   1.875  39.921 -0.7323  0.5628  0.0943
   46CHL1  H16A 5832  -0.659   1.826  39.923 -1.9026  2.8119  1.3735
   46CHL1  H16B 5833  -0.534   1.900  40.026 -3.4735 -1.5987  1.3901
   46CHL1   C17 5834  -0.577   2.012  39.852 -0.4960 -0.3729  0.4732
   46CHL1   H17 5835  -0.522   2.095  39.902 -2.8364  0.8778  1.1438
   46CHL1   C13 5836  -0.494   1.999  39.718 -0.4254 -0.3228 -0.1764
   46CHL1   C18 5837  -0.581   1.919  39.619  0.3684 -0.9908  0.1258
   46CHL1  H18A 5838  -0.636   1.985  39.548  0.3872 -1.3236 -0.2034
   46CHL1  H18B 5839  -0.512   1.854  39.560  1.0327  0.6897 -1.0557
   46CHL1  H18C 5840  -0.647   1.848  39.672 -1.7626  0.2142 -0.7809
   46CHL1   C12 5841  -0.415   2.121  39.664 -1.1466  0.4676 -0.2678
   46CHL1  H12A 5842  -0.483   2.205  39.636 -0.8630  0.3724 -1.2806
   46CHL1  H12B 5843  -0.354   2.157  39.749 -0.2009 -0.8606 -0.3678
   46CHL1   C11 5844  -0.318   2.085  39.543 -0.1267  0.0327  0.1709
   46CHL1  H11A 5845  -0.372   2.030  39.463  3.4428  0.3330 -2.6981
   46CHL1  H11B 5846  -0.287   2.175  39.486 -0.1707  0.5203  0.8981
   46CHL1    C9 5847  -0.209   1.985  39.596  0.6653  0.8385 -0.2681
   46CHL1    H9 5848  -0.158   2.038  39.680  1.9732 -0.8682  0.0894
   46CHL1   C10 5849  -0.102   1.945  39.491 -0.0367 -0.0155  0.0036
   46CHL1   C19 5850  -0.174   1.887  39.361  0.2676 -0.1312  0.4657
   46CHL1  H19A 5851  -0.235   1.799  39.391 -0.0976  0.4260  1.4060
   46CHL1  H19B 5852  -0.245   1.957  39.312  1.0077 -0.0452 -0.5154
   46CHL1  H19C 5853  -0.097   1.849  39.290  0.9476 -0.0392  1.1477
   46CHL1    C1 5854  -0.016   2.072  39.450 -0.0999  0.6014 -0.1853
   46CHL1   H1A 5855  -0.083   2.140  39.393  1.8673  1.4184 -1.5992
   46CHL1   H1B 5856   0.011   2.127  39.543 -1.3686 -0.4747  0.8686
   46CHL1    C2 5857   0.111   2.047  39.377  0.5026 -0.3762 -0.4848
   46CHL1   H2A 5858   0.174   2.138  39.364 -1.5441  1.2810  0.6025
   46CHL1   H2B 5859   0.099   1.992  39.281  1.1503 -2.2076  0.4371
   46CHL1   C20 5860  -0.721   2.081  39.852  0.4469  0.8828 -0.0613
   46CHL1   H20 5861  -0.786   2.011  39.795  1.3622  0.1138 -0.1852
   46CHL1   C21 5862  -0.707   2.221  39.780  0.2193 -0.3317 -0.2347
   46CHL1  H21A 5863  -0.704   2.225  39.669 -2.9238  1.3876 -0.3703
   46CHL1  H21B 5864  -0.626   2.287  39.820 -1.3237  3.3454 -2.6205
   46CHL1  H21C 5865  -0.800   2.281  39.789  0.5671 -0.0325  1.9643
   46CHL1   C22 5866  -0.771   2.097  39.990  0.5795  0.9113  0.3342
   46CHL1  H22A 5867  -0.796   2.005  40.047  0.9197  0.8669  0.4134
   46CHL1  H22B 5868  -0.699   2.151  40.055  1.0953  0.4650  0.1355
   46CHL1   C23 5869  -0.894   2.187  40.009 -0.8264 -0.2731  0.6747
   46CHL1  H23A 5870  -0.920   2.195  40.117  0.4362  2.8844  0.8442
   46CHL1  H23B 5871  -0.868   2.288  39.970  1.0784 -1.3318 -0.9690
   46CHL1   C24 5872  -1.017   2.134  39.934 -0.1151 -0.3490 -0.8247
   46CHL1  H24A 5873  -0.992   2.134  39.825  0.8786 -1.7383 -0.6143
   46CHL1  H24B 5874  -1.019   2.026  39.960 -1.3020 -0.3460 -0.8302
   46CHL1   C25 5875  -1.150   2.208  39.953 -0.4529 -0.1260  0.7081
   46CHL1   H25 5876  -1.211   2.139  39.891  1.4219 -1.8188  0.6639
   46CHL1   C26 5877  -1.201   2.197  40.089  0.0957  0.3837  0.2961
   46CHL1  H26A 5878  -1.209   2.094  40.130 -0.1407  0.0254 -0.6379
   46CHL1  H26B 5879  -1.132   2.264  40.144  2.3366 -0.6920 -1.0798
   46CHL1  H26C 5880  -1.306   2.234  40.092  0.1304  0.4855  0.2507
   46CHL1   C27 5881  -1.154   2.351  39.912 -0.7459  0.3307 -0.4397
   46CHL1  H27A 5882  -1.115   2.352  39.807 -1.5991 -0.6568 -0.7793
   46CHL1  H27B 5883  -1.257   2.392  39.924 -0.4411  0.5858  1.5070
   46CHL1  H27C 5884  -1.096   2.413  39.983 -2.1199 -0.0842  1.0872
   47CHL1    C3 5885   0.675   0.016  39.687  0.0799  0.0472 -0.2632
   47CHL1    H3 5886   0.610   0.103  39.662  1.1271  0.6249 -1.0512
   47CHL1    O3 5887   0.670  -0.096  39.599 -0.2406 -0.3156  1.1809
   47CHL1   H3' 5888   0.670  -0.178  39.649  0.4915 -0.0898  1.5619
   47CHL1    C4 5889   0.815   0.072  39.694 -0.4985 -0.3438  0.8043
   47CHL1   H4A 5890   0.876  -0.008  39.740  0.3190 -1.4315 -1.9622
   47CHL1   H4B 5891   0.870   0.082  39.597 -0.3805 -2.0990  0.6566
   47CHL1    C5 5892   0.825   0.196  39.779 -0.8318 -0.4244  0.4297
   47CHL1    C6 5893   0.865   0.308  39.725  0.0504 -0.6465  0.1672
   47CHL1    H6 5894   0.904   0.307  39.623 -0.6605 -0.8233 -0.1118
   47CHL1    C7 5895   0.864   0.440  39.800  0.0897  0.9736 -0.9167
   47CHL1   H7A 5896   0.961   0.493  39.786 -0.5377  1.8822 -1.9474
   47CHL1   H7B 5897   0.792   0.508  39.751  0.6737  3.4079  1.3834
   47CHL1    C8 5898   0.842   0.422  39.951 -0.2433 -0.4994 -0.8099
   47CHL1    H8 5899   0.930   0.372  39.998  0.5786  0.8724 -0.8454
   47CHL1   C14 5900   0.814   0.559  40.016 -0.8493  0.3319 -0.0382
   47CHL1   H14 5901   0.720   0.592  39.967 -0.0942  1.6366 -0.6542
   47CHL1   C15 5902   0.913   0.676  39.999 -0.4116 -0.3580 -0.0893
   47CHL1  H15A 5903   1.020   0.655  40.021 -0.0837  2.9802  2.2760
   47CHL1  H15B 5904   0.899   0.725  39.900  0.4792  1.3298  0.5685
   47CHL1   C16 5905   0.868   0.790  40.101 -0.2325  0.2572 -0.0409
   47CHL1  H16A 5906   0.951   0.833  40.161 -1.8588  0.3609  2.3143
   47CHL1  H16B 5907   0.806   0.860  40.042  1.5859  1.3951 -0.6720
   47CHL1   C17 5908   0.771   0.712  40.190 -0.0228  0.7738 -0.0153
   47CHL1   H17 5909   0.676   0.738  40.138  1.8638  4.7843 -1.8268
   47CHL1   C13 5910   0.784   0.556  40.162  0.3021  0.8512  0.0640
   47CHL1   C18 5911   0.903   0.494  40.243  0.3361  0.3136 -0.5951
   47CHL1  H18A 5912   0.899   0.507  40.353 -0.4514 -4.7367  0.1813
   47CHL1  H18B 5913   0.906   0.383  40.242 -0.6685  0.2588  0.6227
   47CHL1  H18C 5914   1.005   0.526  40.214  0.4086  2.2375  1.4687
   47CHL1   C12 5915   0.659   0.470  40.187  0.3300 -0.0758 -0.2197
   47CHL1  H12A 5916   0.654   0.479  40.297 -1.0394 -2.3874 -0.0192
   47CHL1  H12B 5917   0.576   0.526  40.140 -0.5468 -1.4397 -0.3621
   47CHL1   C11 5918   0.674   0.329  40.131  0.2956 -0.2049 -0.3065
   47CHL1  H11A 5919   0.749   0.274  40.193 -1.0269 -1.1112  0.5441
   47CHL1  H11B 5920   0.574   0.280  40.135  0.6781 -0.9793  0.2601
   47CHL1    C9 5921   0.730   0.322  39.977  0.5109 -0.3002 -0.0457
   47CHL1    H9 5922   0.644   0.357  39.916  0.9684 -0.8536 -1.0395
   47CHL1   C10 5923   0.758   0.183  39.924  0.3534  0.7539 -0.2225
   47CHL1   C19 5924   0.854   0.109  40.022  0.8591 -0.0200  0.6826
   47CHL1  H19A 5925   0.849   0.004  39.985  0.7864  0.5416 -1.0143
   47CHL1  H19B 5926   0.959   0.144  40.029  1.2014  0.1802 -3.1810
   47CHL1  H19C 5927   0.817   0.100  40.126 -1.9612 -2.6879 -0.3957
   47CHL1    C1 5928   0.616   0.101  39.917 -0.7337 -0.1415 -0.4717
   47CHL1   H1A 5929   0.574   0.080  40.017 -0.5105 -1.2186 -0.5942
   47CHL1   H1B 5930   0.548   0.169  39.860  0.9054  2.1902  0.2098
   47CHL1    C2 5931   0.622  -0.025  39.826  0.3652  0.0727 -0.3172
   47CHL1   H2A 5932   0.515  -0.046  39.803  0.9640 -2.4941 -1.0592
   47CHL1   H2B 5933   0.671  -0.115  39.869 -0.8810 -0.7857 -0.6490
   47CHL1   C20 5934   0.754   0.763  40.334 -0.1885  0.7066 -0.1899
   47CHL1   H20 5935   0.720   0.683  40.403 -0.7158 -0.8100 -2.1058
   47CHL1   C21 5936   0.650   0.874  40.333 -0.1297  0.2020 -0.3428
   47CHL1  H21A 5937   0.550   0.828  40.317  1.6415 -3.8037 -1.2286
   47CHL1  H21B 5938   0.691   0.944  40.258  0.1708  0.1802 -0.2028
   47CHL1  H21C 5939   0.650   0.926  40.431  0.7479  0.7309 -0.6139
   47CHL1   C22 5940   0.876   0.809  40.408  0.4482  0.3771 -0.0488
   47CHL1  H22A 5941   0.964   0.752  40.372  1.2377  0.8668  1.0532
   47CHL1  H22B 5942   0.898   0.914  40.379  1.6132 -0.1180 -1.0306
   47CHL1   C23 5943   0.882   0.798  40.561 -0.2669 -0.5652  0.0592
   47CHL1  H23A 5944   0.990   0.810  40.583 -0.0983 -0.7917 -0.6172
   47CHL1  H23B 5945   0.837   0.889  40.607  1.6881  0.8352 -0.6208
   47CHL1   C24 5946   0.830   0.670  40.628 -0.3905  0.3331 -0.0302
   47CHL1  H24A 5947   0.721   0.671  40.610 -0.4017  3.0997 -0.2510
   47CHL1  H24B 5948   0.869   0.578  40.579  0.3713  1.4655 -1.6231
   47CHL1   C25 5949   0.858   0.662  40.784  0.4859  0.8660 -0.1895
   47CHL1   H25 5950   0.802   0.740  40.839  1.1124 -1.0639  3.4697
   47CHL1   C26 5951   0.824   0.518  40.837 -0.0779  0.0960  0.8856
   47CHL1  H26A 5952   0.857   0.507  40.942  0.7952 -1.5697  0.4712
   47CHL1  H26B 5953   0.893   0.443  40.791  0.0088  0.8031 -0.1884
   47CHL1  H26C 5954   0.717   0.497  40.820  0.1327  1.4357 -3.2697
   47CHL1   C27 5955   0.998   0.688  40.825 -0.1871  0.4007  0.0854
   47CHL1  H27A 5956   1.016   0.794  40.798 -1.7939  0.5930 -0.3334
   47CHL1  H27B 5957   0.996   0.673  40.935  0.1065 -0.8337 -0.0720
   47CHL1  H27C 5958   1.069   0.618  40.776 -0.7076 -0.1432  0.0943
   48CHL1    C3 5959   1.439   3.244  33.523 -0.2695 -0.1953  0.0634
   48CHL1    H3 5960   1.352   3.282  33.466  0.3165  2.8015  0.9615
   48CHL1    O3 5961   1.403   3.247  33.659 -0.1338  0.0027  0.5846
   48CHL1   H3' 5962   1.483   3.274  33.705 -0.3187 -2.4696  2.5942
   48CHL1    C4 5963   1.478   3.105  33.490  0.6940 -0.4988 -0.7765
   48CHL1   H4A 5964   1.552   3.073  33.567 -0.6915 -1.1438  0.3508
   48CHL1   H4B 5965   1.390   3.038  33.499 -0.4065  1.1019  1.2815
   48CHL1    C5 5966   1.541   3.099  33.351  0.0928  0.2164 -0.5039
   48CHL1    C6 5967   1.484   3.013  33.257  0.3185 -0.6708 -0.0558
   48CHL1    H6 5968   1.407   2.945  33.299  0.2317 -0.6486 -0.1823
   48CHL1    C7 5969   1.524   3.014  33.106  0.0828  0.1654 -0.2450
   48CHL1   H7A 5970   1.534   2.906  33.083  0.3232  0.0864  0.2271
   48CHL1   H7B 5971   1.449   3.062  33.039 -1.1972  0.0367  1.0422
   48CHL1    C8 5972   1.665   3.078  33.090  0.8714  0.4879 -0.1612
   48CHL1    H8 5973   1.747   3.011  33.123  0.2388 -0.3976 -0.3628
   48CHL1   C14 5974   1.685   3.105  32.943  0.1972 -0.3644  0.5031
   48CHL1   H14 5975   1.604   3.171  32.905  1.1720 -0.3841 -1.8128
   48CHL1   C15 5976   1.669   2.988  32.843  0.7096  0.6342 -0.0209
   48CHL1  H15A 5977   1.725   2.900  32.882 -0.7139 -1.3530 -2.1652
   48CHL1  H15B 5978   1.566   2.953  32.820  1.6032 -0.7739 -2.1896
   48CHL1   C16 5979   1.746   3.027  32.712  0.1621 -0.1692 -0.3632
   48CHL1  H16A 5980   1.812   2.944  32.680 -0.0473 -1.5753  2.5653
   48CHL1  H16B 5981   1.669   3.052  32.636 -1.2004  2.1721  1.6178
   48CHL1   C17 5982   1.807   3.168  32.745  0.2288  0.4114 -1.4084
   48CHL1   H17 5983   1.723   3.239  32.736 -0.2266  0.3310  1.2667
   48CHL1   C13 5984   1.823   3.171  32.899 -0.2580  0.0430  0.5433
   48CHL1   C18 5985   1.938   3.081  32.936 -0.6772  0.3290 -0.4069
   48CHL1  H18A 5986   1.933   2.973  32.912 -0.6088 -0.8666  4.0767
   48CHL1  H18B 5987   2.033   3.131  32.906 -1.3422  1.5678 -0.5186
   48CHL1  H18C 5988   1.943   3.077  33.047  3.0136  1.4547 -0.3741
   48CHL1   C12 5989   1.823   3.304  32.972  0.0252 -0.4041 -0.0196
   48CHL1  H12A 5990   1.921   3.356  32.964  0.2382 -0.7855  0.0574
   48CHL1  H12B 5991   1.753   3.380  32.931  0.5708  0.5378  0.7534
   48CHL1   C11 5992   1.803   3.287  33.123  0.3657 -0.4031 -0.0574
   48CHL1  H11A 5993   1.889   3.234  33.169 -2.0933 -2.7977  2.1976
   48CHL1  H11B 5994   1.800   3.391  33.161 -1.2726  0.4580 -2.2933
   48CHL1    C9 5995   1.672   3.210  33.159 -0.2253  0.6241  0.0496
   48CHL1    H9 5996   1.591   3.278  33.125  0.0832  1.0634  0.1784
   48CHL1   C10 5997   1.649   3.203  33.313 -0.6999  0.1346  0.5614
   48CHL1   C19 5998   1.776   3.168  33.400  0.2174  0.2016 -0.0348
   48CHL1  H19A 5999   1.836   3.261  33.396  3.1363 -1.5719 -0.2827
   48CHL1  H19B 6000   1.748   3.137  33.503  0.5741  0.7666  0.2372
   48CHL1  H19C 6001   1.826   3.075  33.365  0.3830 -0.5679  2.0636
   48CHL1    C1 6002   1.595   3.347  33.354  0.5374 -0.2205 -0.3951
   48CHL1   H1A 6003   1.671   3.426  33.336  0.0316  0.1554 -0.9334
   48CHL1   H1B 6004   1.513   3.386  33.290  0.6266  3.5431  1.5061
   48CHL1    C2 6005   1.548   3.351  33.500 -0.0001  0.0309 -0.1263
   48CHL1   H2A 6006   1.512   3.455  33.521 -3.1502 -0.5207 -2.1663
   48CHL1   H2B 6007   1.637   3.332  33.563  1.3715  2.1830 -1.2940
   48CHL1   C20 6008   1.921   3.216  32.660  0.1842  0.0173  0.1071
   48CHL1   H20 6009   2.016   3.168  32.689  0.0754  0.9211  2.0586
   48CHL1   C21 6010   1.919   3.369  32.655 -0.7731  0.6146  0.1236
   48CHL1  H21A 6011   1.947   3.406  32.756  2.3918  1.0803 -0.8136
   48CHL1  H21B 6012   1.818   3.402  32.622 -0.9961 -0.4756 -0.3083
   48CHL1  H21C 6013   1.997   3.417  32.592 -0.6274 -0.3702 -0.4531
   48CHL1   C22 6014   1.898   3.171  32.506  0.2463 -0.8338  0.2118
   48CHL1  H22A 6015   1.873   3.063  32.502 -2.8358 -0.1580 -1.3066
   48CHL1  H22B 6016   1.814   3.230  32.466  2.1874  0.4195 -2.3010
   48CHL1   C23 6017   2.017   3.197  32.409  1.0628 -0.0978  0.0681
   48CHL1  H23A 6018   1.971   3.199  32.308 -2.1899  1.2241  1.4293
   48CHL1  H23B 6019   2.058   3.295  32.442 -0.3605 -0.1467  2.2332
   48CHL1   C24 6020   2.118   3.091  32.406 -0.2474  0.3268  0.5183
   48CHL1  H24A 6021   2.133   3.056  32.510  1.1129 -4.2895 -0.9712
   48CHL1  H24B 6022   2.077   3.003  32.353  2.7254 -0.7091 -0.2769
   48CHL1   C25 6023   2.261   3.127  32.343  0.2308 -0.1043  0.1080
   48CHL1   H25 6024   2.239   3.176  32.246  2.1405  2.7257  0.9795
   48CHL1   C26 6025   2.333   3.220  32.445  0.1020 -0.2838 -0.3461
   48CHL1  H26A 6026   2.285   3.318  32.464  3.1861  1.3952 -0.6294
   48CHL1  H26B 6027   2.347   3.164  32.540 -0.0256  1.1758  0.5664
   48CHL1  H26C 6028   2.435   3.244  32.409 -0.5655  1.2293 -1.3151
   48CHL1   C27 6029   2.347   3.000  32.329  0.5815  0.1469 -0.3858
   48CHL1  H27A 6030   2.368   2.967  32.433  0.4650  0.6076 -0.2163
   48CHL1  H27B 6031   2.311   2.916  32.266  0.6789 -0.7937  0.7785
   48CHL1  H27C 6032   2.446   3.027  32.286 -0.0917 -1.0099 -2.8894
   49CHL1    C3 6033   2.948   0.139  41.872  0.5008 -0.2563 -0.4002
   49CHL1    H3 6034   3.044   0.166  41.823  1.4078  0.7509  1.7855
   49CHL1    O3 6035   2.962   0.111  42.012 -0.3777 -0.3816  0.3583
   49CHL1   H3' 6036   3.002   0.025  42.022  2.0134  0.4935 -0.9820
   49CHL1    C4 6037   2.843   0.247  41.849 -0.7508 -1.1375  0.0361
   49CHL1   H4A 6038   2.744   0.216  41.888 -1.0356 -0.5840 -0.2468
   49CHL1   H4B 6039   2.873   0.341  41.900  0.7017 -0.9746 -1.0366
   49CHL1    C5 6040   2.822   0.276  41.697 -0.3546 -0.0340  0.6216
   49CHL1    C6 6041   2.856   0.393  41.638  0.1193 -0.4721 -0.4903
   49CHL1    H6 6042   2.879   0.476  41.707 -3.2072 -0.8072  1.2554
   49CHL1    C7 6043   2.827   0.410  41.496  0.0517 -0.1410 -0.0655
   49CHL1   H7A 6044   2.794   0.513  41.473 -0.8627 -0.6784 -1.2667
   49CHL1   H7B 6045   2.924   0.413  41.442 -0.4769 -0.7516 -1.0613
   49CHL1    C8 6046   2.737   0.309  41.431  0.1798 -0.2377  0.1057
   49CHL1    H8 6047   2.632   0.327  41.462 -0.2499 -1.5611 -0.5301
   49CHL1   C14 6048   2.741   0.331  41.278  0.1369 -0.1051 -0.1935
   49CHL1   H14 6049   2.847   0.300  41.267  0.9735  1.9647  1.4346
   49CHL1   C15 6050   2.746   0.471  41.210 -0.2107 -0.1210 -0.9122
   49CHL1  H15A 6051   2.656   0.525  41.248 -1.3082 -1.8187 -1.0114
   49CHL1  H15B 6052   2.833   0.534  41.236  0.6677 -1.9642  0.8532
   49CHL1   C16 6053   2.727   0.444  41.063 -0.5289  0.6207 -0.6387
   49CHL1  H16A 6054   2.650   0.513  41.020 -0.8317 -0.4770 -1.9208
   49CHL1  H16B 6055   2.822   0.446  41.006 -0.4513 -2.5393 -0.7685
   49CHL1   C17 6056   2.682   0.291  41.052 -0.8589 -0.8054  0.0291
   49CHL1   H17 6057   2.770   0.226  41.031 -0.6027 -0.5359  0.2495
   49CHL1   C13 6058   2.645   0.250  41.200  0.9412  0.9202  0.6485
   49CHL1   C18 6059   2.496   0.290  41.230  0.3357 -0.2699 -0.3762
   49CHL1  H18A 6060   2.482   0.397  41.202 -0.2337  0.2710  1.8158
   49CHL1  H18B 6061   2.415   0.239  41.173  0.5646 -0.8065 -0.2313
   49CHL1  H18C 6062   2.485   0.275  41.339 -2.1232  0.9305 -0.3935
   49CHL1   C12 6063   2.665   0.103  41.229  0.7984 -0.1533  0.2511
   49CHL1  H12A 6064   2.583   0.039  41.190  1.5047 -0.8088 -0.1620
   49CHL1  H12B 6065   2.759   0.072  41.180 -0.5994  0.6256 -3.2506
   49CHL1   C11 6066   2.670   0.078  41.383  0.6613  1.0898  0.3962
   49CHL1  H11A 6067   2.565   0.078  41.418 -0.0325 -3.2359 -1.1483
   49CHL1  H11B 6068   2.715  -0.024  41.393 -3.5878 -1.3669 -2.6076
   49CHL1    C9 6069   2.772   0.170  41.461  0.1930  0.7898  0.0681
   49CHL1    H9 6070   2.879   0.150  41.438  0.1318 -1.6764  1.5000
   49CHL1   C10 6071   2.776   0.146  41.619  0.5098 -0.5187 -0.1830
   49CHL1   C19 6072   2.642   0.092  41.672 -0.0507 -0.2764 -0.0776
   49CHL1  H19A 6073   2.635   0.076  41.782 -0.0940 -0.6740 -0.1386
   49CHL1  H19B 6074   2.558   0.153  41.634  0.6800  0.0959 -1.1320
   49CHL1  H19C 6075   2.611  -0.006  41.631 -1.2057  0.4667 -1.0331
   49CHL1    C1 6076   2.888   0.043  41.651 -0.2326  0.6446  0.5632
   49CHL1   H1A 6077   2.858  -0.049  41.597  4.3131 -0.6580 -0.2024
   49CHL1   H1B 6078   2.986   0.068  41.606  0.2225 -1.7002  0.1553
   49CHL1    C2 6079   2.909   0.011  41.802 -0.6143  0.3960 -0.7160
   49CHL1   H2A 6080   2.979  -0.072  41.824  0.4389  1.0906 -1.4062
   49CHL1   H2B 6081   2.810  -0.028  41.835  0.3050 -1.7676 -0.3665
   49CHL1   C20 6082   2.589   0.271  40.930  0.2974 -0.1726 -0.7205
   49CHL1   H20 6083   2.496   0.327  40.953  0.0336 -0.4763 -1.0492
   49CHL1   C21 6084   2.551   0.122  40.918 -0.0275  0.6204  0.6110
   49CHL1  H21A 6085   2.645   0.062  40.922 -0.5664 -0.1616  2.3871
   49CHL1  H21B 6086   2.495   0.102  40.825  1.6297  1.2050 -0.5605
   49CHL1  H21C 6087   2.489   0.086  41.003  1.3159 -1.0297  0.9322
   49CHL1   C22 6088   2.652   0.310  40.791 -0.0187 -0.5494 -0.1337
   49CHL1  H22A 6089   2.578   0.292  40.710  0.0473  0.5113 -0.4362
   49CHL1  H22B 6090   2.680   0.417  40.797 -1.0694 -0.2732  0.1644
   49CHL1   C23 6091   2.781   0.234  40.761  0.9047 -0.9352  0.4149
   49CHL1  H23A 6092   2.859   0.271  40.830  1.4975  2.3814 -1.7978
   49CHL1  H23B 6093   2.782   0.123  40.762  0.7964 -0.9417  0.0613
   49CHL1   C24 6094   2.829   0.277  40.618 -0.0880 -0.1946  0.0692
   49CHL1  H24A 6095   2.765   0.249  40.532 -0.1395  2.2024 -0.7497
   49CHL1  H24B 6096   2.837   0.387  40.600 -0.8050 -0.0652  0.4606
   49CHL1   C25 6097   2.962   0.222  40.569  0.1881 -0.7509 -0.4533
   49CHL1   H25 6098   3.029   0.243  40.656 -1.5790  0.3919  0.7154
   49CHL1   C26 6099   2.966   0.072  40.534 -0.2882  0.0327 -0.6865
   49CHL1  H26A 6100   3.063   0.055  40.482  0.1803 -0.0696  0.1989
   49CHL1  H26B 6101   2.961   0.012  40.627 -0.5578 -0.3274 -0.9311
   49CHL1  H26C 6102   2.883   0.044  40.466  0.8079  0.0110 -2.0687
   49CHL1   C27 6103   3.022   0.300  40.450 -0.6473 -0.4546 -0.0028
   49CHL1  H27A 6104   3.118   0.258  40.413 -0.6285  1.2291 -2.1016
   49CHL1  H27B 6105   2.958   0.275  40.363  2.4560  0.2399 -2.7186
   49CHL1  H27C 6106   3.020   0.410  40.466  0.0606 -0.6095  1.3241
   50CHL1    C3 6107   0.598   3.138  33.681 -0.5551 -0.1980  0.3954
   50CHL1    H3 6108   0.507   3.106  33.738 -0.3346  0.2263  1.0000
   50CHL1    O3 6109   0.699   3.192  33.768 -0.2266 -0.1286  0.1245
   50CHL1   H3' 6110   0.690   3.287  33.762  1.7692  0.0692 -0.4019
   50CHL1    C4 6111   0.667   3.024  33.611  0.2447  0.3960  0.4382
   50CHL1   H4A 6112   0.771   3.043  33.577 -0.0332 -0.3030 -0.9084
   50CHL1   H4B 6113   0.679   2.948  33.691  1.0563  0.3530  0.2829
   50CHL1    C5 6114   0.591   2.967  33.490  0.5095 -0.5024 -0.1068
   50CHL1    C6 6115   0.560   2.839  33.462 -0.0582 -0.1537 -0.5267
   50CHL1    H6 6116   0.591   2.754  33.524 -1.7041 -1.3450 -1.2604
   50CHL1    C7 6117   0.494   2.787  33.331 -0.2382 -0.4605 -0.3266
   50CHL1   H7A 6118   0.534   2.688  33.302  1.0177  0.1551 -0.7811
   50CHL1   H7B 6119   0.386   2.779  33.353 -0.6888  0.8786 -1.8669
   50CHL1    C8 6120   0.516   2.890  33.222  0.9562 -0.2756  0.2939
   50CHL1    H8 6121   0.624   2.885  33.196  0.7504 -0.3300 -0.5861
   50CHL1   C14 6122   0.444   2.848  33.104  0.4797  0.2939  0.0165
   50CHL1   H14 6123   0.336   2.848  33.131  0.8817 -0.2817  1.7770
   50CHL1   C15 6124   0.462   2.705  33.051 -0.1312  0.2779 -0.6115
   50CHL1  H15A 6125   0.563   2.659  33.059 -0.4845 -0.1295  2.1935
   50CHL1  H15B 6126   0.395   2.633  33.102  0.7702 -1.7801 -2.1801
   50CHL1   C16 6127   0.417   2.710  32.906  0.4167 -0.0652 -0.1806
   50CHL1  H16A 6128   0.504   2.693  32.839  0.9172  1.4607  0.0304
   50CHL1  H16B 6129   0.333   2.642  32.881  0.6096 -0.4095  0.0981
   50CHL1   C17 6130   0.378   2.856  32.872 -0.6477  0.9268 -0.6149
   50CHL1   H17 6131   0.272   2.872  32.899  0.1503  2.6234  1.7767
   50CHL1   C13 6132   0.447   2.942  32.981  0.6838  0.2393 -0.0948
   50CHL1   C18 6133   0.598   2.970  32.943  0.0887 -0.1732 -0.0328
   50CHL1  H18A 6134   0.657   2.879  32.918 -0.9051 -0.3963 -1.8031
   50CHL1  H18B 6135   0.606   3.044  32.860  2.7709 -4.3884 -4.0324
   50CHL1  H18C 6136   0.659   3.022  33.019  1.8210 -0.3997 -1.2201
   50CHL1   C12 6137   0.378   3.069  33.036 -0.1591  0.1186 -0.2566
   50CHL1  H12A 6138   0.372   3.147  32.957 -1.9695  0.7077  0.4072
   50CHL1  H12B 6139   0.270   3.048  33.053 -0.5559  0.8091 -1.7496
   50CHL1   C11 6140   0.456   3.129  33.150 -0.1252 -0.0334  0.0374
   50CHL1  H11A 6141   0.548   3.175  33.109  0.0667  1.2509  1.7879
   50CHL1  H11B 6142   0.391   3.214  33.180 -1.1676 -1.3868  1.8602
   50CHL1    C9 6143   0.481   3.034  33.270 -0.2343  0.4516  0.2960
   50CHL1    H9 6144   0.377   3.024  33.307 -0.1886 -0.5679  0.1812
   50CHL1   C10 6145   0.565   3.083  33.391 -0.6399 -0.3644 -0.0654
   50CHL1   C19 6146   0.694   3.146  33.338  0.1048  0.0715 -0.1490
   50CHL1  H19A 6147   0.759   3.076  33.282 -1.6720 -0.6110 -1.4347
   50CHL1  H19B 6148   0.675   3.231  33.269 -3.0026  0.6106  1.2087
   50CHL1  H19C 6149   0.759   3.179  33.422  0.7579 -2.6862  0.5481
   50CHL1    C1 6150   0.479   3.185  33.471  0.5094 -0.0272 -0.1906
   50CHL1   H1A 6151   0.453   3.268  33.402  1.5530  0.6718  0.2276
   50CHL1   H1B 6152   0.382   3.140  33.501  0.5396 -1.5190 -2.1232
   50CHL1    C2 6153   0.563   3.252  33.582  0.5171 -0.2462  0.4104
   50CHL1   H2A 6154   0.509   3.340  33.624 -0.8017 -1.0870  0.5414
   50CHL1   H2B 6155   0.657   3.303  33.552 -0.1436 -0.0678 -1.5535
   50CHL1   C20 6156   0.401   2.899  32.722  0.0619 -0.6055 -0.7521
   50CHL1   H20 6157   0.509   2.916  32.702  0.1619 -1.3582 -0.8982
   50CHL1   C21 6158   0.333   3.037  32.704  0.8641 -0.8377 -0.2800
   50CHL1  H21A 6159   0.385   3.124  32.749 -0.0900 -1.1737  1.5855
   50CHL1  H21B 6160   0.230   3.040  32.747  1.3623  3.2529  1.0529
   50CHL1  H21C 6161   0.318   3.054  32.596 -0.5558 -0.2012 -0.0113
   50CHL1   C22 6162   0.354   2.792  32.615  0.2648 -0.0100 -0.8285
   50CHL1  H22A 6163   0.351   2.835  32.513 -2.0448  0.2782 -0.7085
   50CHL1  H22B 6164   0.425   2.707  32.608  0.4888 -0.1766  2.1492
   50CHL1   C23 6165   0.206   2.757  32.645  0.5655 -0.3668 -0.4877
   50CHL1  H23A 6166   0.212   2.687  32.732  2.9215 -0.6888 -0.8414
   50CHL1  H23B 6167   0.153   2.852  32.664 -0.8208 -1.3665  0.8930
   50CHL1   C24 6168   0.135   2.681  32.531 -0.2377 -0.4109 -0.8186
   50CHL1  H24A 6169   0.154   2.725  32.431  2.2235  1.3787  0.3430
   50CHL1  H24B 6170   0.171   2.575  32.526 -0.1752 -0.3307 -3.3035
   50CHL1   C25 6171  -0.018   2.673  32.550 -1.0543  0.0423  0.1772
   50CHL1   H25 6172  -0.046   2.599  32.628  2.2901 -0.5879  0.9356
   50CHL1   C26 6173  -0.089   2.802  32.593  0.1325 -0.3491 -0.9472
   50CHL1  H26A 6174  -0.049   2.887  32.532 -1.3354 -1.2310 -3.2536
   50CHL1  H26B 6175  -0.199   2.799  32.582  0.2185 -0.7293 -1.7696
   50CHL1  H26C 6176  -0.070   2.818  32.702 -1.2606 -2.1011 -0.4075
   50CHL1   C27 6177  -0.079   2.621  32.423 -0.5598  0.0149  0.7993
   50CHL1  H27A 6178  -0.047   2.516  32.401  0.1989  0.4974 -0.5198
   50CHL1  H27B 6179  -0.189   2.608  32.431 -0.9930  2.9621  0.7798
   50CHL1  H27C 6180  -0.075   2.694  32.339 -3.6306  0.3720  0.8516
   51CHL1    C3 6181   1.782   0.505  36.237 -0.3501  0.6229  0.0151
   51CHL1    H3 6182   1.784   0.446  36.330 -0.3599  1.9619  0.8984
   51CHL1    O3 6183   1.659   0.498  36.170  1.0135  0.1775  0.2312
   51CHL1   H3' 6184   1.672   0.424  36.111  1.4905 -0.1224  0.6930
   51CHL1    C4 6185   1.798   0.653  36.288 -0.5093 -0.2030 -0.6902
   51CHL1   H4A 6186   1.790   0.725  36.203  0.7162  1.6136  0.6499
   51CHL1   H4B 6187   1.706   0.671  36.348 -1.3368  0.2400 -2.0245
   51CHL1    C5 6188   1.928   0.668  36.364  0.1314  0.6799 -0.3644
   51CHL1    C6 6189   1.926   0.710  36.491  0.4835 -0.3091  0.1688
   51CHL1    H6 6190   1.830   0.728  36.541  0.7984 -0.1096  0.7163
   51CHL1    C7 6191   2.050   0.739  36.574 -0.5860  0.7649 -0.1325
   51CHL1   H7A 6192   2.062   0.839  36.621  0.2580  0.1972  0.8880
   51CHL1   H7B 6193   2.063   0.665  36.656 -1.0821  1.7725  0.8932
   51CHL1    C8 6194   2.178   0.723  36.495  0.3652  0.3231  0.4402
   51CHL1    H8 6195   2.195   0.816  36.436  1.3633 -1.0746 -1.6281
   51CHL1   C14 6196   2.303   0.713  36.581 -0.8067  0.2787 -0.0685
   51CHL1   H14 6197   2.288   0.629  36.653 -0.5199  1.6286  1.6201
   51CHL1   C15 6198   2.326   0.839  36.679  0.0833  0.5729 -0.0042
   51CHL1  H15A 6199   2.307   0.935  36.624  2.3358  0.7989 -0.5068
   51CHL1  H15B 6200   2.257   0.820  36.764  0.1436 -1.5365 -0.3762
   51CHL1   C16 6201   2.472   0.835  36.710  0.0690 -0.4268 -0.0517
   51CHL1  H16A 6202   2.512   0.938  36.697  1.7418 -0.6877  2.4340
   51CHL1  H16B 6203   2.485   0.805  36.816  0.6908 -0.9471 -0.2665
   51CHL1   C17 6204   2.534   0.719  36.628  0.0525 -0.1262  0.1301
   51CHL1   H17 6205   2.518   0.634  36.698  1.6834 -0.6990 -0.1406
   51CHL1   C13 6206   2.434   0.691  36.508  0.6379 -0.2405  0.0761
   51CHL1   C18 6207   2.459   0.793  36.401  0.5138  0.1966  0.2105
   51CHL1  H18A 6208   2.391   0.797  36.313  1.5243  0.0435 -0.6013
   51CHL1  H18B 6209   2.484   0.894  36.442 -1.0455  0.4207  0.6815
   51CHL1  H18C 6210   2.549   0.764  36.342  0.0141 -0.5980 -0.1745
   51CHL1   C12 6211   2.418   0.557  36.441  0.5997 -0.4301  0.4432
   51CHL1  H12A 6212   2.512   0.540  36.383  1.7754  1.8360  1.5675
   51CHL1  H12B 6213   2.428   0.473  36.513  1.5470  0.0337  0.8737
   51CHL1   C11 6214   2.305   0.551  36.345  0.8864 -0.9608  0.1709
   51CHL1  H11A 6215   2.329   0.600  36.248 -3.0838  0.6726 -0.1785
   51CHL1  H11B 6216   2.296   0.443  36.322  1.0081 -0.8333 -0.5091
   51CHL1    C9 6217   2.173   0.603  36.395  0.8859 -0.7100 -0.3811
   51CHL1    H9 6218   2.153   0.515  36.460 -0.0843  0.5555  1.1105
   51CHL1   C10 6219   2.062   0.617  36.291  0.1096  0.0203 -0.4084
   51CHL1   C19 6220   2.097   0.731  36.189 -0.8014  0.5968  0.6182
   51CHL1  H19A 6221   2.022   0.732  36.107 -0.2634 -1.8408  0.0191
   51CHL1  H19B 6222   2.105   0.828  36.242 -1.8669  0.4784  1.0267
   51CHL1  H19C 6223   2.195   0.710  36.141 -1.2738  0.9882 -0.5551
   51CHL1    C1 6224   2.041   0.486  36.219  0.9963  0.3926 -0.3426
   51CHL1   H1A 6225   2.121   0.454  36.148  0.7713 -1.6701  0.2554
   51CHL1   H1B 6226   2.042   0.401  36.290 -2.0828 -0.8301 -1.6141
   51CHL1    C2 6227   1.901   0.472  36.145  0.0907  0.1441 -0.0620
   51CHL1   H2A 6228   1.910   0.367  36.109  0.7814 -0.5536  2.0186
   51CHL1   H2B 6229   1.910   0.541  36.058  0.2625  2.2180  1.5163
   51CHL1   C20 6230   2.690   0.728  36.612 -0.0261 -0.1674  0.5108
   51CHL1   H20 6231   2.724   0.801  36.535 -1.3819  0.6284  0.6310
   51CHL1   C21 6232   2.740   0.587  36.578 -0.9530  0.7924  0.8669
   51CHL1  H21A 6233   2.712   0.517  36.660 -0.1327 -3.2480 -1.9826
   51CHL1  H21B 6234   2.850   0.595  36.590 -0.5816  1.0316 -1.9204
   51CHL1  H21C 6235   2.712   0.556  36.475  0.4450 -1.6222  1.1406
   51CHL1   C22 6236   2.763   0.772  36.742  1.1644  0.0887  0.8366
   51CHL1  H22A 6237   2.711   0.863  36.780 -1.1248 -1.7467  2.4259
   51CHL1  H22B 6238   2.757   0.693  36.820  0.3517 -0.6067  0.0905
   51CHL1   C23 6239   2.917   0.800  36.721  0.6140  0.1482  0.0599
   51CHL1  H23A 6240   2.971   0.706  36.700 -0.0576 -1.0553  3.2263
   51CHL1  H23B 6241   2.924   0.871  36.635  0.8578  1.0864  0.8387
   51CHL1   C24 6242   2.994   0.864  36.840  0.1326  0.1286  0.0036
   51CHL1  H24A 6243   2.950   0.960  36.875 -0.0870 -0.1566  0.5276
   51CHL1  H24B 6244   2.988   0.793  36.926  1.0962  0.2272  0.1573
   51CHL1   C25 6245   3.146   0.895  36.806  0.3131 -0.3000 -0.2846
   51CHL1   H25 6246   3.132   0.938  36.704 -0.5567  1.4467  0.5306
   51CHL1   C26 6247   3.202   1.000  36.905 -0.3784  0.4574  0.0172
   51CHL1  H26A 6248   3.177   0.960  37.006 -2.1861 -2.2330 -1.3703
   51CHL1  H26B 6249   3.311   1.011  36.887 -0.7777  1.7269 -1.8333
   51CHL1  H26C 6250   3.143   1.094  36.900  1.5935  1.6997 -0.9248
   51CHL1   C27 6251   3.227   0.763  36.807  0.0824  1.2434  0.1332
   51CHL1  H27A 6252   3.229   0.750  36.917  0.5904  1.6869  0.1810
   51CHL1  H27B 6253   3.178   0.676  36.758 -0.6832  2.0083 -0.4819
   51CHL1  H27C 6254   3.328   0.778  36.763  0.8245  0.1323  1.3913
   52CHL1    C3 6255   2.409   1.779  42.092 -0.2415 -0.2386  0.2984
   52CHL1    H3 6256   2.409   1.891  42.090  0.2008 -0.2342  0.2484
   52CHL1    O3 6257   2.469   1.739  42.212  0.2111 -0.2754  0.2253
   52CHL1   H3' 6258   2.436   1.653  42.238  1.8694 -0.2764  2.6025
   52CHL1    C4 6259   2.274   1.717  42.073  0.0471 -0.2599 -0.1231
   52CHL1   H4A 6260   2.284   1.606  42.077  1.2300 -0.1652 -0.0707
   52CHL1   H4B 6261   2.206   1.749  42.154 -1.2454  0.0798 -1.3065
   52CHL1    C5 6262   2.211   1.750  41.939  0.2167 -0.2242  0.3357
   52CHL1    C6 6263   2.085   1.793  41.939 -0.1653 -0.0312  0.3378
   52CHL1    H6 6264   2.038   1.798  42.039  2.9931 -0.0189  1.9482
   52CHL1    C7 6265   2.014   1.836  41.811  0.4865  0.3091  0.4940
   52CHL1   H7A 6266   1.914   1.789  41.817  0.6128 -0.2342 -1.0436
   52CHL1   H7B 6267   1.999   1.946  41.804  1.3976  0.4984  1.3122
   52CHL1    C8 6268   2.088   1.784  41.678  0.4394 -0.3679  1.1988
   52CHL1    H8 6269   2.071   1.674  41.668  3.4405 -1.0741  2.5407
   52CHL1   C14 6270   2.044   1.860  41.559 -0.5467  0.1897 -0.7849
   52CHL1   H14 6271   2.075   1.966  41.572  2.3846 -0.5304 -1.0534
   52CHL1   C15 6272   1.896   1.866  41.542  0.3476  0.1876  0.1430
   52CHL1  H15A 6273   1.861   1.766  41.576  1.1800  0.3582  1.5827
   52CHL1  H15B 6274   1.846   1.943  41.605  1.6835 -0.7951  2.5728
   52CHL1   C16 6275   1.878   1.897  41.394 -0.5787  0.9111 -0.9399
   52CHL1  H16A 6276   1.826   1.806  41.359  3.4678 -2.2396  0.5053
   52CHL1  H16B 6277   1.820   1.992  41.383 -1.1365  0.8545  1.1524
   52CHL1   C17 6278   2.019   1.895  41.329 -1.0897 -0.0763 -0.9890
   52CHL1   H17 6279   2.056   2.000  41.335 -0.3114 -0.3556 -0.6940
   52CHL1   C13 6280   2.101   1.812  41.430 -0.3193  0.8569 -0.1777
   52CHL1   C18 6281   2.067   1.666  41.405  0.2987 -0.1185  0.7235
   52CHL1  H18A 6282   1.957   1.653  41.396  0.0327  1.9777  0.4348
   52CHL1  H18B 6283   2.112   1.628  41.311  0.0336  1.4015 -0.0433
   52CHL1  H18C 6284   2.108   1.603  41.487 -2.5626  1.0890  3.2591
   52CHL1   C12 6285   2.254   1.840  41.425  0.5524 -1.1160 -0.3911
   52CHL1  H12A 6286   2.309   1.789  41.343  3.2624 -2.9348  2.3434
   52CHL1  H12B 6287   2.275   1.947  41.405 -1.7488 -0.5718 -0.2570
   52CHL1   C11 6288   2.317   1.779  41.554 -0.4444 -0.1568  0.3223
   52CHL1  H11A 6289   2.338   1.673  41.529 -1.0545 -1.2383  3.7560
   52CHL1  H11B 6290   2.416   1.830  41.559  0.2730 -1.4432 -0.5069
   52CHL1    C9 6291   2.241   1.799  41.693  0.0447 -0.6684  1.2784
   52CHL1    H9 6292   2.255   1.909  41.704 -1.6126 -0.0347 -1.7402
   52CHL1   C10 6293   2.300   1.728  41.815  0.5250 -1.2589 -0.0034
   52CHL1   C19 6294   2.313   1.576  41.786  0.0510 -0.2869 -0.2316
   52CHL1  H19A 6295   2.218   1.536  41.745 -0.3469  1.9005 -1.5848
   52CHL1  H19B 6296   2.393   1.551  41.714 -0.4253 -1.0617 -0.5065
   52CHL1  H19C 6297   2.342   1.529  41.883  1.2718  3.8506  1.6553
   52CHL1    C1 6298   2.445   1.791  41.841 -0.2244 -0.4180  0.2222
   52CHL1   H1A 6299   2.495   1.742  41.755 -0.7772 -0.8897  0.1587
   52CHL1   H1B 6300   2.444   1.902  41.842 -0.3036 -0.3120  4.1835
   52CHL1    C2 6301   2.507   1.744  41.976 -0.0719  0.3240  0.5685
   52CHL1   H2A 6302   2.605   1.796  41.985 -1.1352  2.1761  2.3279
   52CHL1   H2B 6303   2.508   1.633  41.983 -5.2098 -0.1141 -1.2866
   52CHL1   C20 6304   2.013   1.852  41.183 -0.1015 -0.0005 -0.3767
   52CHL1   H20 6305   1.993   1.744  41.163 -5.7090  0.9645 -1.5762
   52CHL1   C21 6306   2.148   1.896  41.111  0.5921 -0.1166  0.5652
   52CHL1  H21A 6307   2.233   1.833  41.143  0.2340 -1.0225 -0.2163
   52CHL1  H21B 6308   2.159   2.006  41.114 -1.2338  0.2823 -2.6461
   52CHL1  H21C 6309   2.130   1.868  41.005  0.6718 -3.7627  1.3660
   52CHL1   C22 6310   1.910   1.936  41.101 -0.4540  0.1807 -0.6828
   52CHL1  H22A 6311   1.818   1.947  41.163 -0.3459  2.6896 -0.8714
   52CHL1  H22B 6312   1.944   2.040  41.082 -0.8038  0.6480  1.0496
   52CHL1   C23 6313   1.869   1.860  40.977 -0.4460  0.1624  0.6808
   52CHL1  H23A 6314   1.952   1.842  40.905 -0.6268  0.7935  0.3016
   52CHL1  H23B 6315   1.832   1.763  41.017 -1.3154 -0.1328 -0.7635
   52CHL1   C24 6316   1.777   1.934  40.882  1.0771  0.2034  0.3139
   52CHL1  H24A 6317   1.668   1.920  40.898  0.3350 -0.6575 -4.2894
   52CHL1  H24B 6318   1.802   2.043  40.885  0.4657  0.3662 -0.2682
   52CHL1   C25 6319   1.786   1.877  40.738  0.5245 -0.6304 -0.8157
   52CHL1   H25 6320   1.892   1.888  40.707  0.9696  1.8499  1.2073
   52CHL1   C26 6321   1.739   1.726  40.735  0.7055  0.2790  0.2078
   52CHL1  H26A 6322   1.812   1.654  40.777  3.9087  3.1448  0.0461
   52CHL1  H26B 6323   1.643   1.719  40.791  1.1591 -0.0087  0.9720
   52CHL1  H26C 6324   1.721   1.690  40.632  1.1884  0.4348  0.0651
   52CHL1   C27 6325   1.694   1.962  40.644 -0.1175 -0.1016 -1.0095
   52CHL1  H27A 6326   1.705   1.924  40.540 -1.3372 -0.7446 -0.9174
   52CHL1  H27B 6327   1.587   1.961  40.674 -0.4238 -0.9711 -2.0640
   52CHL1  H27C 6328   1.718   2.070  40.649  2.8763 -0.6920 -0.9380
   53CHL1    C3 6329   0.045   3.326  33.472 -0.0238 -0.5427  0.2607
   53CHL1    H3 6330  -0.002   3.426  33.464  1.3532  0.4445  2.9912
   53CHL1    O3 6331   0.128   3.309  33.586 -0.3492 -0.3716  0.5329
   53CHL1   H3' 6332   0.186   3.386  33.589  0.2232 -0.6368 -1.7236
   53CHL1    C4 6333  -0.063   3.214  33.488 -0.0768  0.0070  0.2737
   53CHL1   H4A 6334  -0.014   3.115  33.502 -0.1353  0.0609  0.8820
   53CHL1   H4B 6335  -0.123   3.226  33.580 -0.8695  0.3997 -0.2870
   53CHL1    C5 6336  -0.137   3.208  33.358 -0.0188 -0.2554 -0.1244
   53CHL1    C6 6337  -0.268   3.235  33.359  0.0735  0.1432 -0.0916
   53CHL1    H6 6338  -0.313   3.267  33.455  1.5734  2.7591 -0.1773
   53CHL1    C7 6339  -0.350   3.207  33.236  0.4457 -0.5434 -0.7702
   53CHL1   H7A 6340  -0.442   3.154  33.269 -0.2631  1.1102  0.0476
   53CHL1   H7B 6341  -0.392   3.304  33.203  0.8183  0.3894  1.3312
   53CHL1    C8 6342  -0.290   3.125  33.119 -0.5256  0.5162 -0.4767
   53CHL1    H8 6343  -0.289   3.016  33.138  1.7705  0.3646 -1.1976
   53CHL1   C14 6344  -0.360   3.146  32.977 -0.3676  0.2415 -0.4103
   53CHL1   H14 6345  -0.345   3.255  32.964  2.3785 -0.2392 -1.9580
   53CHL1   C15 6346  -0.500   3.107  32.980  0.9987 -0.7233  0.0141
   53CHL1  H15A 6347  -0.532   3.010  33.024 -0.7069  0.4856  1.6023
   53CHL1  H15B 6348  -0.566   3.186  33.022  1.1626  0.3109 -1.5786
   53CHL1   C16 6349  -0.525   3.109  32.828 -0.5381  0.6042  0.1122
   53CHL1  H16A 6350  -0.590   3.019  32.814 -1.0269  1.0623 -0.6769
   53CHL1  H16B 6351  -0.589   3.194  32.797 -0.3424  0.3761 -0.9653
   53CHL1   C17 6352  -0.393   3.119  32.750 -0.4822 -0.1598 -0.0750
   53CHL1   H17 6353  -0.367   3.225  32.729  0.6452 -0.5512 -0.7422
   53CHL1   C13 6354  -0.290   3.083  32.858  0.0671  0.8656  0.4649
   53CHL1   C18 6355  -0.297   2.923  32.869 -0.1737 -0.7836  0.1652
   53CHL1  H18A 6356  -0.271   2.875  32.772  0.8227 -2.2001  1.1041
   53CHL1  H18B 6357  -0.224   2.886  32.944  0.3384 -1.3459 -0.5951
   53CHL1  H18C 6358  -0.396   2.886  32.903 -0.2433  0.4007  1.3618
   53CHL1   C12 6359  -0.149   3.123  32.846  0.3607  0.0236  1.2119
   53CHL1  H12A 6360  -0.085   3.074  32.770  1.3003  1.2274  1.1926
   53CHL1  H12B 6361  -0.142   3.229  32.814 -1.4910  0.2821  1.5257
   53CHL1   C11 6362  -0.070   3.117  32.978  0.4990  0.0262 -0.4595
   53CHL1  H11A 6363  -0.067   3.010  33.006 -0.0906  0.5625  1.8061
   53CHL1  H11B 6364   0.026   3.172  32.964  1.3157 -1.5561 -1.3821
   53CHL1    C9 6365  -0.142   3.179  33.098  0.7154  0.2730  0.2722
   53CHL1    H9 6366  -0.170   3.284  33.075 -1.6525  0.3219  2.8357
   53CHL1   C10 6367  -0.059   3.170  33.228  0.1553  0.7721 -0.3292
   53CHL1   C19 6368  -0.011   3.024  33.247  0.1511 -0.1002 -0.1075
   53CHL1  H19A 6369  -0.095   2.951  33.255  0.4460 -0.6320 -1.5197
   53CHL1  H19B 6370   0.061   2.986  33.171  0.2074 -1.3696  0.5565
   53CHL1  H19C 6371   0.037   3.011  33.346 -1.6840 -0.0637  0.8241
   53CHL1    C1 6372   0.055   3.275  33.215  0.9487 -0.0393  0.3659
   53CHL1   H1A 6373   0.135   3.246  33.143  0.0019  0.0297 -0.7483
   53CHL1   H1B 6374   0.013   3.372  33.182 -2.0196 -1.0663  0.8117
   53CHL1    C2 6375   0.137   3.300  33.346 -0.1355 -0.1068  0.2082
   53CHL1   H2A 6376   0.196   3.390  33.317 -0.7907 -0.3947 -2.2502
   53CHL1   H2B 6377   0.202   3.211  33.358 -0.6226 -0.6846 -1.2627
   53CHL1   C20 6378  -0.398   3.041  32.619 -0.6188 -0.0545 -0.0035
   53CHL1   H20 6379  -0.408   2.932  32.634 -2.9537  0.3188  1.5689
   53CHL1   C21 6380  -0.272   3.079  32.530  0.7473  0.1180  0.4447
   53CHL1  H21A 6381  -0.182   3.068  32.595  0.1001 -0.2101  1.2951
   53CHL1  H21B 6382  -0.293   3.180  32.488  0.9752 -0.7439 -1.9070
   53CHL1  H21C 6383  -0.265   3.011  32.443 -2.3954 -3.4780  2.7137
   53CHL1   C22 6384  -0.524   3.075  32.546  0.3580 -1.0376  0.2976
   53CHL1  H22A 6385  -0.616   3.037  32.596 -0.8051  3.0560  1.6141
   53CHL1  H22B 6386  -0.540   3.185  32.540 -2.0149 -1.2813  1.1416
   53CHL1   C23 6387  -0.523   3.027  32.404  0.9345 -0.1905  0.5401
   53CHL1  H23A 6388  -0.443   3.067  32.338 -0.8738  0.5360 -1.3300
   53CHL1  H23B 6389  -0.509   2.917  32.410 -1.8824 -0.6489  0.1144
   53CHL1   C24 6390  -0.658   3.053  32.330  0.1500  0.9958 -0.7243
   53CHL1  H24A 6391  -0.737   3.007  32.392  2.5191 -0.4788  1.4204
   53CHL1  H24B 6392  -0.674   3.163  32.339  0.8468  0.9280  3.3939
   53CHL1   C25 6393  -0.646   2.998  32.182  0.7340 -0.4759 -0.4383
   53CHL1   H25 6394  -0.540   3.011  32.149  0.7914 -0.9622 -0.4420
   53CHL1   C26 6395  -0.665   2.843  32.168  1.3565  0.2821  0.3292
   53CHL1  H26A 6396  -0.646   2.811  32.063 -0.3125  0.0106  0.0858
   53CHL1  H26B 6397  -0.600   2.789  32.241  2.1562  0.4139 -0.2647
   53CHL1  H26C 6398  -0.771   2.825  32.196  1.0042  0.1016 -1.0444
   53CHL1   C27 6399  -0.742   3.067  32.080 -0.9380 -0.1781 -0.1299
   53CHL1  H27A 6400  -0.733   3.032  31.975 -0.0254  0.6646 -0.3503
   53CHL1  H27B 6401  -0.846   3.069  32.118 -0.2656  1.7953  1.8169
   53CHL1  H27C 6402  -0.724   3.177  32.079  1.0511 -0.4477  0.4042
   54CHL1    C3 6403   0.257   0.144  34.469 -0.3833 -0.2946 -0.0560
   54CHL1    H3 6404   0.232   0.098  34.567  0.3573 -1.9164 -0.6034
   54CHL1    O3 6405   0.401   0.138  34.458  0.4326 -0.5229  0.5629
   54CHL1   H3' 6406   0.416   0.081  34.382 -2.1665 -2.3067  1.2756
   54CHL1    C4 6407   0.197   0.068  34.361 -0.1706  0.6986  0.1558
   54CHL1   H4A 6408   0.252   0.105  34.271 -0.5133  0.2394 -0.2446
   54CHL1   H4B 6409   0.223  -0.040  34.360  2.3114  1.2134  0.9144
   54CHL1    C5 6410   0.042   0.079  34.355 -0.3241 -0.6790  1.0778
   54CHL1    C6 6411  -0.038  -0.028  34.353 -0.3553  0.3858  0.1107
   54CHL1    H6 6412   0.001  -0.130  34.364 -1.4413 -0.1531 -0.9801
   54CHL1    C7 6413  -0.186  -0.024  34.346  0.0510 -0.8327 -0.5077
   54CHL1   H7A 6414  -0.225  -0.107  34.284 -1.8316  0.1826 -0.7587
   54CHL1   H7B 6415  -0.230  -0.046  34.445 -1.2616 -0.9950 -1.1042
   54CHL1    C8 6416  -0.252   0.111  34.297 -0.5005 -1.0756 -0.5127
   54CHL1    H8 6417  -0.237   0.110  34.186 -0.0135  0.5394 -0.4981
   54CHL1   C14 6418  -0.394   0.131  34.334 -0.0068  0.7295  0.1585
   54CHL1   H14 6419  -0.385   0.123  34.444  1.2327  1.6439  0.1437
   54CHL1   C15 6420  -0.487   0.027  34.284 -0.1093  0.5231 -0.5978
   54CHL1  H15A 6421  -0.456   0.020  34.177  3.1495 -0.9589  0.3150
   54CHL1  H15B 6422  -0.466  -0.072  34.329 -0.2721 -0.1845 -1.9974
   54CHL1   C16 6423  -0.624   0.089  34.309 -1.2179  0.4207  0.0309
   54CHL1  H16A 6424  -0.692   0.055  34.228  0.7423 -1.2786 -0.9937
   54CHL1  H16B 6425  -0.665   0.044  34.402 -1.4659  3.3020  1.4531
   54CHL1   C17 6426  -0.606   0.246  34.335  0.2390 -0.3758  1.2549
   54CHL1   H17 6427  -0.609   0.268  34.444  0.2700  0.9334  1.0084
   54CHL1   C13 6428  -0.459   0.268  34.300  0.6326  0.1919 -0.3077
   54CHL1   C18 6429  -0.455   0.288  34.147  0.7766 -0.1349 -0.0519
   54CHL1  H18A 6430  -0.502   0.386  34.122  2.6096  0.3251 -1.8712
   54CHL1  H18B 6431  -0.355   0.282  34.101  2.1348 -3.1483  2.8663
   54CHL1  H18C 6432  -0.518   0.211  34.098 -0.1183 -0.8178  2.0391
   54CHL1   C12 6433  -0.385   0.372  34.384 -0.1819 -1.5693  0.0415
   54CHL1  H12A 6434  -0.429   0.473  34.367  0.6232 -1.1519  0.3409
   54CHL1  H12B 6435  -0.408   0.362  34.493 -1.1533  0.8918  0.1452
   54CHL1   C11 6436  -0.235   0.370  34.362 -0.0835  0.8593 -0.9825
   54CHL1  H11A 6437  -0.217   0.417  34.262  0.7038  0.6315 -0.9588
   54CHL1  H11B 6438  -0.170   0.437  34.422  0.0923 -0.8014  0.7409
   54CHL1    C9 6439  -0.168   0.225  34.364 -0.3119  0.3505  0.3500
   54CHL1    H9 6440  -0.175   0.197  34.471  2.6313 -2.0279  0.0694
   54CHL1   C10 6441  -0.009   0.224  34.347 -0.2261  0.4325  0.0214
   54CHL1   C19 6442   0.024   0.277  34.202  0.0905 -0.6276  0.0929
   54CHL1  H19A 6443  -0.036   0.217  34.130  0.0035 -1.1710  0.6098
   54CHL1  H19B 6444  -0.006   0.382  34.184  2.7380  0.4407  1.4035
   54CHL1  H19C 6445   0.133   0.272  34.180 -0.2210 -1.8772 -1.3345
   54CHL1    C1 6446   0.063   0.315  34.451  0.3977  0.2029 -0.7736
   54CHL1   H1A 6447   0.048   0.419  34.415 -1.4825 -0.7058 -2.8737
   54CHL1   H1B 6448   0.008   0.290  34.545  0.0489  0.5970 -0.8735
   54CHL1    C2 6449   0.210   0.291  34.461  0.0633  0.7878  0.2696
   54CHL1   H2A 6450   0.238   0.348  34.552  2.1631  0.4630 -0.1153
   54CHL1   H2B 6451   0.262   0.343  34.378 -0.6221 -0.1674 -0.7928
   54CHL1   C20 6452  -0.725   0.333  34.275  0.4471  0.0324 -0.1741
   54CHL1   H20 6453  -0.716   0.316  34.166  2.2565  1.2566 -0.2546
   54CHL1   C21 6454  -0.695   0.480  34.310  0.8307 -0.0627 -0.4489
   54CHL1  H21A 6455  -0.765   0.554  34.265  2.0716  0.4756 -1.5701
   54CHL1  H21B 6456  -0.602   0.523  34.267  1.2206  1.3601  1.7026
   54CHL1  H21C 6457  -0.695   0.497  34.419  1.5896 -2.0569 -0.1013
   54CHL1   C22 6458  -0.854   0.278  34.345  0.2079 -0.1373 -0.5209
   54CHL1  H22A 6459  -0.863   0.167  34.347 -0.7629 -0.0627  0.0634
   54CHL1  H22B 6460  -0.852   0.297  34.454  1.4353 -3.0990  0.0816
   54CHL1   C23 6461  -0.977   0.331  34.269 -0.2767  0.4382 -0.4576
   54CHL1  H23A 6462  -0.987   0.441  34.268 -1.9243  0.3682  1.6837
   54CHL1  H23B 6463  -0.958   0.290  34.167  1.6939  1.6770 -0.6447
   54CHL1   C24 6464  -1.105   0.260  34.322 -0.9866  0.3452 -0.4900
   54CHL1  H24A 6465  -1.091   0.150  34.321 -1.4164  0.2890 -1.2004
   54CHL1  H24B 6466  -1.133   0.295  34.424  2.1389  0.1468  0.5553
   54CHL1   C25 6467  -1.237   0.279  34.237  0.0314 -0.1670 -0.0307
   54CHL1   H25 6468  -1.267   0.386  34.231  1.4208  0.1633 -2.3638
   54CHL1   C26 6469  -1.214   0.245  34.086 -0.1707  0.7009 -0.4030
   54CHL1  H26A 6470  -1.310   0.254  34.031  0.3554  1.2524 -1.2524
   54CHL1  H26B 6471  -1.138   0.297  34.025  1.6334 -0.7536  0.5076
   54CHL1  H26C 6472  -1.188   0.137  34.084  1.4309  1.0262 -3.6261
   54CHL1   C27 6473  -1.356   0.202  34.292 -0.1223  0.1375 -0.5104
   54CHL1  H27A 6474  -1.440   0.225  34.223 -0.9825  2.0240  1.0468
   54CHL1  H27B 6475  -1.352   0.091  34.302 -0.4544  0.0929 -0.8571
   54CHL1  H27C 6476  -1.378   0.239  34.395 -2.1334 -0.6482 -0.6148
   55CHL1    C3 6477   1.031   2.798  33.276  1.3642 -0.3036 -0.1346
   55CHL1    H3 6478   1.045   2.711  33.344 -0.3854 -1.3650 -1.0565
   55CHL1    O3 6479   1.040   2.920  33.345 -0.4094  0.3589  0.0613
   55CHL1   H3' 6480   1.042   2.980  33.269  0.7457  0.2206 -0.0366
   55CHL1    C4 6481   1.133   2.801  33.152  0.8950  0.0143 -0.1125
   55CHL1   H4A 6482   1.118   2.892  33.090 -0.1984  0.4503  0.7539
   55CHL1   H4B 6483   1.234   2.812  33.198 -0.3222 -1.1947  3.0779
   55CHL1    C5 6484   1.115   2.679  33.063  0.6421  0.4254  0.9349
   55CHL1    C6 6485   1.224   2.599  33.043 -0.6830 -0.2495 -0.0118
   55CHL1    H6 6486   1.326   2.627  33.071 -1.2441  2.3319 -0.3252
   55CHL1    C7 6487   1.205   2.475  32.956 -0.7883 -0.0301 -0.6143
   55CHL1   H7A 6488   1.292   2.467  32.887  0.6815  2.3828  0.8158
   55CHL1   H7B 6489   1.212   2.387  33.024  0.8911  0.4383 -0.1453
   55CHL1    C8 6490   1.068   2.465  32.880  0.9385 -0.0330 -0.3612
   55CHL1    H8 6491   1.073   2.544  32.803 -1.8464  0.8090  0.2438
   55CHL1   C14 6492   1.047   2.321  32.824 -0.7497 -0.5651  0.0638
   55CHL1   H14 6493   1.045   2.248  32.909  1.9285 -1.5286 -0.5935
   55CHL1   C15 6494   1.162   2.263  32.734 -0.0945 -0.4854 -0.3607
   55CHL1  H15A 6495   1.211   2.344  32.674  0.1535  2.1761  3.1186
   55CHL1  H15B 6496   1.240   2.207  32.790 -1.4297 -3.1294 -0.9947
   55CHL1   C16 6497   1.084   2.162  32.642  1.3009 -0.2043  0.0729
   55CHL1  H16A 6498   1.099   2.195  32.537 -1.6357  0.0845 -0.3377
   55CHL1  H16B 6499   1.121   2.057  32.646  0.8617 -0.3260  2.2425
   55CHL1   C17 6500   0.936   2.176  32.679  0.1094 -0.9239 -0.0562
   55CHL1   H17 6501   0.925   2.103  32.762  0.8505 -3.7832 -2.2611
   55CHL1   C13 6502   0.916   2.310  32.745  0.3275  0.5252 -0.2928
   55CHL1   C18 6503   0.914   2.417  32.638 -0.2148 -0.0072  0.0676
   55CHL1  H18A 6504   0.827   2.411  32.569 -3.4650 -0.0018  3.7524
   55CHL1  H18B 6505   0.906   2.521  32.677  0.3121  0.2057 -0.3905
   55CHL1  H18C 6506   1.010   2.418  32.583 -0.3297  0.2984 -0.1277
   55CHL1   C12 6507   0.797   2.332  32.841 -0.4586 -0.6907 -0.4534
   55CHL1  H12A 6508   0.704   2.313  32.784 -1.8395 -2.9069  2.2637
   55CHL1  H12B 6509   0.797   2.255  32.921 -1.1861 -0.7114 -0.4726
   55CHL1   C11 6510   0.811   2.474  32.908  0.2852 -0.0051 -0.4088
   55CHL1  H11A 6511   0.776   2.544  32.830 -0.7351 -0.0991 -0.0582
   55CHL1  H11B 6512   0.742   2.480  32.995  1.0381 -2.1237  0.4103
   55CHL1    C9 6513   0.952   2.498  32.977  0.2301 -0.5886  1.1158
   55CHL1    H9 6514   0.955   2.419  33.054 -1.8514 -0.8234  1.0134
   55CHL1   C10 6515   0.960   2.641  33.030 -0.5468  0.3340  0.0599
   55CHL1   C19 6516   0.923   2.745  32.921 -0.3314  0.0027 -0.2952
   55CHL1  H19A 6517   0.905   2.845  32.968 -0.9460  0.4057 -1.3638
   55CHL1  H19B 6518   1.008   2.765  32.852  0.5779 -0.8395  0.5363
   55CHL1  H19C 6519   0.838   2.714  32.858 -0.6427  1.8097 -0.8395
   55CHL1    C1 6520   0.859   2.657  33.150  0.2519  0.1284  0.2186
   55CHL1   H1A 6521   0.753   2.651  33.120 -0.6392  2.5214  2.5376
   55CHL1   H1B 6522   0.876   2.574  33.222  0.2678  0.6638  0.8347
   55CHL1    C2 6523   0.889   2.788  33.227  1.1111  0.3320  0.3955
   55CHL1   H2A 6524   0.826   2.797  33.318  1.4938 -0.0919  0.7066
   55CHL1   H2B 6525   0.871   2.873  33.158  0.1359  0.3812  0.6994
   55CHL1   C20 6526   0.833   2.122  32.574 -0.3731  0.3398  0.4019
   55CHL1   H20 6527   0.743   2.183  32.597  0.4229  1.9706 -0.7107
   55CHL1   C21 6528   0.811   1.974  32.617 -0.0830  0.4319 -0.5608
   55CHL1  H21A 6529   0.722   1.938  32.561  1.0824 -0.2943 -2.0289
   55CHL1  H21B 6530   0.788   1.957  32.724 -2.1315 -2.5441 -1.3472
   55CHL1  H21C 6531   0.900   1.914  32.588 -1.0484 -1.6593  0.6093
   55CHL1   C22 6532   0.873   2.146  32.426 -0.5032  0.3780  0.1756
   55CHL1  H22A 6533   0.937   2.236  32.425  1.2949 -0.8302  0.5669
   55CHL1  H22B 6534   0.928   2.057  32.388  0.1000  0.0578  1.7147
   55CHL1   C23 6535   0.757   2.184  32.341  1.0741  0.4707 -0.1893
   55CHL1  H23A 6536   0.681   2.105  32.356  1.5369  0.4104  2.0595
   55CHL1  H23B 6537   0.713   2.279  32.378  0.0125  0.3209 -1.0035
   55CHL1   C24 6538   0.796   2.215  32.198  0.6411  0.0622  0.3055
   55CHL1  H24A 6539   0.879   2.289  32.199 -1.9650  3.4580 -3.9326
   55CHL1  H24B 6540   0.822   2.126  32.137 -1.3655  0.4976 -1.2694
   55CHL1   C25 6541   0.690   2.294  32.114  0.1652  0.3957  0.9094
   55CHL1   H25 6542   0.654   2.381  32.173 -4.2573  1.1191 -2.3169
   55CHL1   C26 6543   0.759   2.365  31.992 -0.3218  0.5416 -0.3230
   55CHL1  H26A 6544   0.815   2.290  31.931  0.5673 -0.9069  2.1094
   55CHL1  H26B 6545   0.690   2.425  31.929  0.2679  0.3613 -1.1654
   55CHL1  H26C 6546   0.833   2.437  32.031 -0.1994 -0.2626  0.9871
   55CHL1   C27 6547   0.561   2.212  32.064 -0.0594  0.3095 -0.5119
   55CHL1  H27A 6548   0.519   2.164  32.155  0.8054 -1.1088 -0.8258
   55CHL1  H27B 6549   0.480   2.274  32.021 -1.3950 -0.5098  0.7054
   55CHL1  H27C 6550   0.582   2.126  31.997 -0.3410 -0.1239 -0.0504
   56CHL1    C3 6551   0.826   2.821  41.738 -0.1580  0.2020 -0.3757
   56CHL1    H3 6552   0.750   2.740  41.740  2.1634 -2.1150  1.7435
   56CHL1    O3 6553   0.832   2.874  41.867 -0.0333  0.9078 -0.1158
   56CHL1   H3' 6554   0.926   2.888  41.880 -0.1088  1.2071  0.1114
   56CHL1    C4 6555   0.970   2.777  41.686  0.4703 -0.2346  0.1288
   56CHL1   H4A 6556   1.044   2.859  41.700  0.4715 -0.1604 -0.3085
   56CHL1   H4B 6557   0.992   2.694  41.757 -2.6106 -1.1554  0.1324
   56CHL1    C5 6558   0.974   2.728  41.542 -0.3051  0.2173 -0.1313
   56CHL1    C6 6559   1.017   2.606  41.515 -0.0459 -0.0365 -0.4123
   56CHL1    H6 6560   1.050   2.540  41.596 -3.4341 -0.5841  0.6904
   56CHL1    C7 6561   1.025   2.555  41.373  0.3379 -0.6984 -0.3675
   56CHL1   H7A 6562   1.114   2.492  41.354 -0.1905 -1.6497  0.2356
   56CHL1   H7B 6563   0.936   2.488  41.373  0.3474 -0.7354  0.6477
   56CHL1    C8 6564   1.016   2.669  41.266 -0.2050  0.5100  0.0181
   56CHL1    H8 6565   1.118   2.713  41.267  0.2046 -0.4131  1.4194
   56CHL1   C14 6566   0.990   2.613  41.122  0.8204 -1.1042 -0.2819
   56CHL1   H14 6567   0.883   2.582  41.126  1.0012 -1.7887 -0.6053
   56CHL1   C15 6568   1.054   2.488  41.074 -0.7386  0.0257  0.4699
   56CHL1  H15A 6569   1.165   2.483  41.082 -0.7890 -2.4239  0.4468
   56CHL1  H15B 6570   1.007   2.404  41.130 -0.1028  0.9638  2.5418
   56CHL1   C16 6571   1.028   2.491  40.922  1.1273 -0.2997 -0.4167
   56CHL1  H16A 6572   1.129   2.476  40.877  1.0552 -1.0723 -0.3291
   56CHL1  H16B 6573   0.966   2.412  40.875  1.3411  0.5719 -2.2494
   56CHL1   C17 6574   0.959   2.622  40.885 -0.2795 -0.2773 -0.4735
   56CHL1   H17 6575   0.851   2.601  40.900 -1.2761  3.9291 -0.7172
   56CHL1   C13 6576   0.991   2.705  41.007 -1.0161 -0.6482  0.0661
   56CHL1   C18 6577   1.133   2.775  40.991  0.2505  0.0778 -0.2170
   56CHL1  H18A 6578   1.212   2.701  40.969  0.8724  0.4886  0.5546
   56CHL1  H18B 6579   1.119   2.846  40.907  0.3057 -0.7829 -0.9572
   56CHL1  H18C 6580   1.153   2.843  41.077 -1.1153  1.5304 -0.9830
   56CHL1   C12 6581   0.886   2.811  41.041 -0.6614 -0.3373  0.0572
   56CHL1  H12A 6582   0.888   2.883  40.957 -0.3871 -0.7531 -0.2939
   56CHL1  H12B 6583   0.780   2.778  41.049 -1.8113  3.1528  1.0884
   56CHL1   C11 6584   0.902   2.875  41.174 -0.6079  0.0814 -0.0383
   56CHL1  H11A 6585   0.995   2.935  41.167 -0.7281  0.1785 -0.9115
   56CHL1  H11B 6586   0.825   2.953  41.194  0.2877  1.2107 -0.8825
   56CHL1    C9 6587   0.916   2.774  41.296  0.2427 -0.0048  0.3458
   56CHL1    H9 6588   0.816   2.726  41.297  0.4205 -0.4335 -0.9846
   56CHL1   C10 6589   0.927   2.837  41.438 -0.0331 -0.3659  0.1585
   56CHL1   C19 6590   1.035   2.954  41.447 -0.2583  0.0630 -0.5656
   56CHL1  H19A 6591   1.139   2.918  41.440  0.6864  2.7497 -1.4909
   56CHL1  H19B 6592   1.019   3.033  41.371  1.5972  0.0784 -0.9827
   56CHL1  H19C 6593   1.029   3.010  41.543  1.1466  0.4571 -0.6972
   56CHL1    C1 6594   0.787   2.884  41.493 -0.1933  0.1367 -0.7131
   56CHL1   H1A 6595   0.760   2.975  41.435  2.8713  1.0365 -0.9477
   56CHL1   H1B 6596   0.710   2.805  41.488 -1.0122  0.9507 -1.2554
   56CHL1    C2 6597   0.783   2.930  41.638  0.3808 -0.0340  0.3452
   56CHL1   H2A 6598   0.677   2.960  41.652  0.3071 -0.0731 -0.1063
   56CHL1   H2B 6599   0.848   3.016  41.664 -0.8088  1.0913 -0.3054
   56CHL1   C20 6600   0.984   2.666  40.734  0.1432 -0.1066  0.8228
   56CHL1   H20 6601   1.087   2.707  40.722 -0.2935  0.8744  0.3331
   56CHL1   C21 6602   0.874   2.778  40.701 -0.1480  0.2491 -0.3454
   56CHL1  H21A 6603   0.778   2.745  40.746  1.5392 -1.4440  2.3572
   56CHL1  H21B 6604   0.863   2.789  40.591 -0.7135  0.1275 -0.3070
   56CHL1  H21C 6605   0.906   2.872  40.750  2.0759 -0.1348 -0.9585
   56CHL1   C22 6606   0.967   2.550  40.644  0.5734  0.4772 -0.8275
   56CHL1  H22A 6607   1.045   2.477  40.676 -0.1005  0.7950  1.7303
   56CHL1  H22B 6608   0.866   2.506  40.655  1.8022 -1.9790  2.3409
   56CHL1   C23 6609   0.991   2.565  40.487 -0.2863 -0.0256 -0.1686
   56CHL1  H23A 6610   0.933   2.656  40.459 -1.4544 -0.3138  1.1423
   56CHL1  H23B 6611   1.098   2.589  40.470 -0.3959 -0.2960 -1.3134
   56CHL1   C24 6612   0.946   2.440  40.408  0.3298  0.6502  0.6586
   56CHL1  H24A 6613   1.005   2.357  40.451  0.2758  0.2464 -0.0323
   56CHL1  H24B 6614   0.836   2.423  40.410  0.5375 -1.1710 -0.6490
   56CHL1   C25 6615   0.989   2.450  40.258  0.3865  0.0769  0.2381
   56CHL1   H25 6616   1.100   2.464  40.261  0.6834 -1.8422 -0.0831
   56CHL1   C26 6617   0.955   2.325  40.181 -0.7045  0.6828  0.0898
   56CHL1  H26A 6618   0.996   2.236  40.233 -0.0621  0.0337 -1.4718
   56CHL1  H26B 6619   0.846   2.303  40.175 -0.4844 -0.3421 -0.3156
   56CHL1  H26C 6620   1.000   2.329  40.080 -0.8204 -0.2115 -0.0032
   56CHL1   C27 6621   0.922   2.572  40.185  0.0517  0.0533  0.3354
   56CHL1  H27A 6622   0.954   2.670  40.227  0.2760 -0.4193  1.2933
   56CHL1  H27B 6623   0.950   2.571  40.077  0.8492  1.3188  0.5040
   56CHL1  H27C 6624   0.813   2.555  40.193  0.0878 -1.1244 -1.3381
   57CHL1    C3 6625   0.509   2.319  33.637 -0.3331 -0.6505  0.0930
   57CHL1    H3 6626   0.435   2.237  33.652 -0.4620 -1.4060 -3.7004
   57CHL1    O3 6627   0.545   2.373  33.761  0.1005 -0.0431 -0.3162
   57CHL1   H3' 6628   0.578   2.461  33.741  1.5850 -0.6857 -0.8195
   57CHL1    C4 6629   0.639   2.260  33.568  0.1704 -0.3988 -0.3590
   57CHL1   H4A 6630   0.708   2.347  33.576 -0.6016  0.1030  1.4532
   57CHL1   H4B 6631   0.680   2.186  33.640  2.2539 -0.1195 -1.1843
   57CHL1    C5 6632   0.614   2.211  33.422  0.6562 -0.4841  0.4388
   57CHL1    C6 6633   0.659   2.091  33.389  0.0812  0.1294 -0.6437
   57CHL1    H6 6634   0.719   2.029  33.457 -1.3531 -0.1644  0.3860
   57CHL1    C7 6635   0.634   2.012  33.264 -0.0474  0.7168  0.4518
   57CHL1   H7A 6636   0.734   1.986  33.223 -0.1487 -0.2819  0.8018
   57CHL1   H7B 6637   0.597   1.907  33.272  1.0492  0.2524 -0.3886
   57CHL1    C8 6638   0.552   2.095  33.163 -0.2482 -0.7334 -0.1413
   57CHL1    H8 6639   0.620   2.163  33.107 -0.2101 -0.0187  0.7511
   57CHL1   C14 6640   0.477   2.008  33.065 -0.7611 -0.2036 -0.8841
   57CHL1   H14 6641   0.410   1.933  33.112  1.4230 -1.6001  0.1969
   57CHL1   C15 6642   0.565   1.916  32.984  0.5664  0.1963 -0.3398
   57CHL1  H15A 6643   0.658   1.977  32.974  0.9097 -0.1579  0.5224
   57CHL1  H15B 6644   0.597   1.828  33.044 -1.2774  1.0134  2.0075
   57CHL1   C16 6645   0.474   1.868  32.866  0.2722 -0.1371  0.9097
   57CHL1  H16A 6646   0.533   1.891  32.774  1.0032 -2.4451  0.7297
   57CHL1  H16B 6647   0.448   1.760  32.870  0.4262 -0.1721  0.9538
   57CHL1   C17 6648   0.352   1.962  32.869  0.5261  0.6842 -0.1526
   57CHL1   H17 6649   0.274   1.903  32.921 -0.6345 -1.1450 -3.6401
   57CHL1   C13 6650   0.399   2.081  32.957 -0.3464 -0.2905  0.5465
   57CHL1   C18 6651   0.494   2.174  32.863 -0.2884 -0.1262 -0.5844
   57CHL1  H18A 6652   0.534   2.261  32.920 -1.6887 -0.6202  1.2521
   57CHL1  H18B 6653   0.573   2.109  32.819 -1.3639 -1.9162  0.0053
   57CHL1  H18C 6654   0.440   2.219  32.778  1.3662 -0.7002 -2.0024
   57CHL1   C12 6655   0.299   2.165  33.029  0.1490 -0.3378  0.3604
   57CHL1  H12A 6656   0.253   2.216  32.941  1.0615 -0.4792 -0.2164
   57CHL1  H12B 6657   0.221   2.101  33.073 -1.5340  0.8404 -0.7857
   57CHL1   C11 6658   0.362   2.265  33.125 -0.2481  0.5998 -0.7339
   57CHL1  H11A 6659   0.415   2.344  33.068 -2.8174  2.3373 -0.8900
   57CHL1  H11B 6660   0.282   2.305  33.192  1.0928 -0.9821  2.0218
   57CHL1    C9 6661   0.453   2.190  33.233  0.2521 -0.1376  0.5309
   57CHL1    H9 6662   0.389   2.122  33.292  0.2571 -0.2957  0.3556
   57CHL1   C10 6663   0.515   2.292  33.335  0.2589  0.1325 -0.3846
   57CHL1   C19 6664   0.582   2.407  33.263  0.1973 -0.2765  1.2348
   57CHL1  H19A 6665   0.638   2.374  33.172 -1.1674  2.0565 -0.5978
   57CHL1  H19B 6666   0.518   2.488  33.220  1.4703  0.4734  0.6895
   57CHL1  H19C 6667   0.651   2.464  33.328 -0.7892  3.6515 -0.8190
   57CHL1    C1 6668   0.396   2.350  33.421 -0.2538 -1.1851 -0.3589
   57CHL1   H1A 6669   0.335   2.427  33.368  2.3103 -0.3366 -2.2978
   57CHL1   H1B 6670   0.326   2.271  33.454 -2.4508 -0.4213 -2.8380
   57CHL1    C2 6671   0.435   2.424  33.553  0.0490  0.0355  0.5180
   57CHL1   H2A 6672   0.352   2.462  33.616  0.1001  0.9721  0.0291
   57CHL1   H2B 6673   0.496   2.512  33.522 -0.6637  0.1607 -0.5733
   57CHL1   C20 6674   0.291   1.994  32.728 -0.9512  0.3170 -0.4280
   57CHL1   H20 6675   0.341   2.078  32.676 -0.7349 -1.4350 -3.1897
   57CHL1   C21 6676   0.142   2.033  32.747 -0.4342 -0.2089 -0.1808
   57CHL1  H21A 6677   0.087   1.940  32.770 -0.5142 -0.3129 -0.7793
   57CHL1  H21B 6678   0.107   2.079  32.652  2.4578  1.0251 -0.7791
   57CHL1  H21C 6679   0.141   2.111  32.826 -1.3223  1.7187 -1.9700
   57CHL1   C22 6680   0.293   1.870  32.620 -0.2250  0.7362  0.0477
   57CHL1  H22A 6681   0.394   1.827  32.605 -0.3638  0.2321  0.5230
   57CHL1  H22B 6682   0.233   1.788  32.665 -0.2939  0.4840 -0.4913
   57CHL1   C23 6683   0.237   1.901  32.485 -0.0643 -0.6669  0.3037
   57CHL1  H23A 6684   0.126   1.899  32.493 -0.3593 -0.0756 -2.6300
   57CHL1  H23B 6685   0.250   2.006  32.454 -0.6529 -0.4456  0.7921
   57CHL1   C24 6686   0.278   1.809  32.367 -0.1923  0.1220  0.4802
   57CHL1  H24A 6687   0.389   1.803  32.365 -0.1971 -0.2164  1.0688
   57CHL1  H24B 6688   0.253   1.701  32.380  0.2208 -0.0599 -0.2015
   57CHL1   C25 6689   0.240   1.865  32.228  0.2450 -0.5085 -0.3488
   57CHL1   H25 6690   0.274   1.970  32.214 -1.4491 -0.1395 -2.1047
   57CHL1   C26 6691   0.316   1.783  32.119  0.6175 -0.1618 -0.1204
   57CHL1  H26A 6692   0.267   1.686  32.101  0.4919 -0.6861  2.5741
   57CHL1  H26B 6693   0.296   1.844  32.028 -1.2853  2.5098  1.9123
   57CHL1  H26C 6694   0.426   1.776  32.138  0.7951 -2.1743 -1.6168
   57CHL1   C27 6695   0.094   1.860  32.211 -0.3610 -0.6020  0.2750
   57CHL1  H27A 6696   0.050   1.762  32.239 -0.6027 -0.3818  0.6692
   57CHL1  H27B 6697   0.037   1.929  32.276  0.9186  1.2260 -0.4671
   57CHL1  H27C 6698   0.062   1.891  32.109  0.5697 -1.8043 -0.4000
   58CHL1    C3 6699   3.401   0.018  41.640 -0.1312 -0.5959 -0.5614
   58CHL1    H3 6700   3.380   0.122  41.670 -3.2051 -0.9147 -1.2517
   58CHL1    O3 6701   3.401  -0.067  41.759 -0.1223 -0.1414 -0.5823
   58CHL1   H3' 6702   3.319  -0.117  41.755 -0.3482  0.1052  0.6627
   58CHL1    C4 6703   3.301  -0.044  41.536 -0.0786 -0.6750 -0.1345
   58CHL1   H4A 6704   3.290  -0.154  41.551 -2.3549 -0.2864  1.6072
   58CHL1   H4B 6705   3.203  -0.000  41.566 -0.4575  0.8406 -3.2488
   58CHL1    C5 6706   3.320  -0.012  41.392  0.0480 -0.1468  0.3974
   58CHL1    C6 6707   3.215   0.032  41.309 -0.5290 -0.7112  0.0384
   58CHL1    H6 6708   3.113   0.040  41.348 -0.9497 -1.7575 -0.8148
   58CHL1    C7 6709   3.225   0.051  41.155 -0.1135 -0.2005 -0.5305
   58CHL1   H7A 6710   3.133  -0.000  41.120  0.0078 -0.0818 -1.0233
   58CHL1   H7B 6711   3.214   0.159  41.129 -2.0572 -0.6146 -1.6384
   58CHL1    C8 6712   3.352  -0.015  41.103  1.0310  0.3829 -0.7806
   58CHL1    H8 6713   3.330  -0.124  41.094  0.0223  0.4908  0.2826
   58CHL1   C14 6714   3.371   0.035  40.958 -0.3790  0.6542  1.2179
   58CHL1   H14 6715   3.398   0.142  40.959 -0.9718  0.9041 -1.8866
   58CHL1   C15 6716   3.249   0.043  40.865 -0.2303  0.4278  0.2460
   58CHL1  H15A 6717   3.198  -0.052  40.894  0.3601 -0.4223 -1.3852
   58CHL1  H15B 6718   3.182   0.129  40.886 -2.1629 -1.1688  1.0034
   58CHL1   C16 6719   3.312   0.032  40.720  0.3870  0.1641  0.3203
   58CHL1  H16A 6720   3.294  -0.065  40.671  4.1864 -0.4632 -0.2013
   58CHL1  H16B 6721   3.271   0.108  40.651 -3.9465 -3.0566 -1.0181
   58CHL1   C17 6722   3.467   0.032  40.744 -0.6405 -0.6931 -0.5839
   58CHL1   H17 6723   3.487   0.140  40.759 -1.0724 -0.7501  0.4969
   58CHL1   C13 6724   3.489  -0.031  40.887  1.0597 -0.0702 -0.0852
   58CHL1   C18 6725   3.459  -0.181  40.872  0.3230  0.5132  0.3277
   58CHL1  H18A 6726   3.527  -0.226  40.797  0.4550  1.1202  0.0819
   58CHL1  H18B 6727   3.467  -0.240  40.966  1.0394 -1.3779 -0.8675
   58CHL1  H18C 6728   3.352  -0.192  40.845  0.7421 -2.3237 -0.5050
   58CHL1   C12 6729   3.619   0.005  40.966  0.2678  0.1560 -0.8301
   58CHL1  H12A 6730   3.709  -0.052  40.934 -0.2156 -1.5403  0.6759
   58CHL1  H12B 6731   3.637   0.113  40.946 -0.8685 -0.1283 -3.9371
   58CHL1   C11 6732   3.613  -0.035  41.114 -0.7670 -0.0626 -0.1322
   58CHL1  H11A 6733   3.607  -0.146  41.111 -3.0104  0.0298 -1.9897
   58CHL1  H11B 6734   3.707  -0.009  41.167 -1.7097  3.3880  0.0447
   58CHL1    C9 6735   3.481   0.012  41.182  0.5276 -0.1894  0.1408
   58CHL1    H9 6736   3.479   0.123  41.174  1.1511 -0.2491 -1.2525
   58CHL1   C10 6737   3.462  -0.030  41.332  0.2975  0.3063 -0.0107
   58CHL1   C19 6738   3.466  -0.191  41.348  0.4392 -0.3943  0.1087
   58CHL1  H19A 6739   3.565  -0.220  41.307 -0.6378 -1.0284 -2.2262
   58CHL1  H19B 6740   3.464  -0.237  41.449 -0.5881 -2.9451 -0.9884
   58CHL1  H19C 6741   3.404  -0.250  41.278  3.2982 -3.1526 -0.3271
   58CHL1    C1 6742   3.555   0.049  41.425 -0.0528  0.2203 -0.5601
   58CHL1   H1A 6743   3.660   0.033  41.392  1.3506  0.7375  3.1500
   58CHL1   H1B 6744   3.541   0.159  41.421 -0.5879  0.1737 -0.0737
   58CHL1    C2 6745   3.544   0.013  41.575  0.3889  0.2953 -0.4272
   58CHL1   H2A 6746   3.614   0.085  41.623  0.4823 -0.8080  1.1841
   58CHL1   H2B 6747   3.579  -0.092  41.588  0.3212  0.5992  3.3817
   58CHL1   C20 6748   3.555  -0.009  40.631 -0.0617 -0.5303 -0.4556
   58CHL1   H20 6749   3.560  -0.119  40.646  0.5680 -0.2375  1.8619
   58CHL1   C21 6750   3.690   0.058  40.656 -0.7349 -0.7144  0.4679
   58CHL1  H21A 6751   3.669   0.166  40.666  1.3666 -0.3570  1.3426
   58CHL1  H21B 6752   3.746   0.051  40.560 -1.4113  3.0464 -0.3495
   58CHL1  H21C 6753   3.753   0.022  40.740  2.3890  1.3220 -0.8439
   58CHL1   C22 6754   3.498   0.032  40.496 -0.0486 -1.0026 -0.2047
   58CHL1  H22A 6755   3.429   0.118  40.501  0.7801 -0.4017  2.0939
   58CHL1  H22B 6756   3.584   0.073  40.439 -0.2982 -1.1377 -0.6859
   58CHL1   C23 6757   3.426  -0.086  40.427  0.0589 -0.6980 -0.6246
   58CHL1  H23A 6758   3.491  -0.176  40.427 -0.2332 -0.9123 -1.0408
   58CHL1  H23B 6759   3.329  -0.100  40.480 -0.1909  0.4327 -0.7557
   58CHL1   C24 6760   3.400  -0.048  40.279  0.3287 -0.2281 -0.4929
   58CHL1  H24A 6761   3.344   0.047  40.283 -0.9358 -0.9852  1.0737
   58CHL1  H24B 6762   3.500  -0.044  40.230  0.8350  0.6929  0.5773
   58CHL1   C25 6763   3.302  -0.156  40.217  0.1289 -0.4617 -0.0547
   58CHL1   H25 6764   3.337  -0.255  40.252 -0.3522  0.1908  2.4714
   58CHL1   C26 6765   3.152  -0.120  40.254  0.7604  0.3221  0.1566
   58CHL1  H26A 6766   3.134  -0.118  40.364  2.3028  1.5523  0.4145
   58CHL1  H26B 6767   3.122  -0.020  40.218  1.5074 -0.0572 -1.6521
   58CHL1  H26C 6768   3.077  -0.182  40.200  0.1475  1.0311  0.1830
   58CHL1   C27 6769   3.306  -0.154  40.069  0.2108 -0.6542  0.2883
   58CHL1  H27A 6770   3.247  -0.232  40.017  0.7058 -0.2517 -0.9234
   58CHL1  H27B 6771   3.278  -0.051  40.040 -1.6822 -1.1203  0.3582
   58CHL1  H27C 6772   3.405  -0.177  40.024  0.5224  1.1264  0.0001
   59CHL1    C3 6773   3.254   0.482  41.553 -0.1829  0.2340 -0.2527
   59CHL1    H3 6774   3.155   0.534  41.556 -0.6379 -0.6617  1.4261
   59CHL1    O3 6775   3.274   0.432  41.685 -0.5082  0.1344  0.0620
   59CHL1   H3' 6776   3.255   0.511  41.736 -0.6586  0.7620 -0.9404
   59CHL1    C4 6777   3.245   0.366  41.457 -0.1995  0.8526  0.3571
   59CHL1   H4A 6778   3.328   0.295  41.477  0.2344  1.8652  2.4664
   59CHL1   H4B 6779   3.159   0.304  41.492 -0.0143  0.1410 -0.4294
   59CHL1    C5 6780   3.235   0.418  41.314 -0.2942  0.4404 -0.5941
   59CHL1    C6 6781   3.127   0.389  41.243 -0.9160 -0.6521  0.4522
   59CHL1    H6 6782   3.055   0.325  41.296 -2.3628 -1.3570 -2.1984
   59CHL1    C7 6783   3.109   0.424  41.101  0.4011 -0.2138 -0.0183
   59CHL1   H7A 6784   3.047   0.342  41.056 -0.6145  1.2157 -1.3425
   59CHL1   H7B 6785   3.045   0.514  41.087  1.3350  0.5209  0.3855
   59CHL1    C8 6786   3.248   0.469  41.041 -0.6811  0.0174  0.1301
   59CHL1    H8 6787   3.304   0.374  41.030 -1.5325 -0.6577  1.3216
   59CHL1   C14 6788   3.231   0.541  40.902 -0.4802  0.3141 -0.0565
   59CHL1   H14 6789   3.185   0.638  40.931  2.9370  1.0993  3.6226
   59CHL1   C15 6790   3.127   0.480  40.809  0.3386 -0.0779 -0.7263
   59CHL1  H15A 6791   3.138   0.369  40.808  1.2922 -0.0444  1.3472
   59CHL1  H15B 6792   3.024   0.508  40.837  1.2867  1.4887  1.4279
   59CHL1   C16 6793   3.171   0.529  40.671 -0.0832 -0.0309  0.3162
   59CHL1  H16A 6794   3.218   0.442  40.620  3.0031  0.0532  2.7391
   59CHL1  H16B 6795   3.090   0.582  40.616  2.7995  1.8945 -2.4474
   59CHL1   C17 6796   3.291   0.627  40.696 -0.0741 -0.1400 -0.0389
   59CHL1   H17 6797   3.252   0.730  40.707  0.7716  0.4200 -1.8354
   59CHL1   C13 6798   3.353   0.580  40.829  0.4429  0.4375  0.8654
   59CHL1   C18 6799   3.441   0.458  40.806 -0.4231  0.0629 -0.5293
   59CHL1  H18A 6800   3.515   0.476  40.725  0.8336  0.6323  0.7090
   59CHL1  H18B 6801   3.492   0.435  40.902 -1.1725  1.7067  0.2940
   59CHL1  H18C 6802   3.380   0.372  40.770  4.2928 -2.7660 -2.7054
   59CHL1   C12 6803   3.423   0.686  40.917  0.0638  0.0787 -0.1342
   59CHL1  H12A 6804   3.524   0.706  40.875  0.9950 -2.2186  0.7872
   59CHL1  H12B 6805   3.361   0.778  40.919  0.0596  0.0666  0.9770
   59CHL1   C11 6806   3.445   0.643  41.064 -0.6899  0.7970  0.3735
   59CHL1  H11A 6807   3.524   0.569  41.043 -0.5194  1.3552 -1.0416
   59CHL1  H11B 6808   3.478   0.725  41.131  1.6186  1.0922 -1.0141
   59CHL1    C9 6809   3.327   0.558  41.132  0.2255 -0.1676  0.8783
   59CHL1    H9 6810   3.249   0.635  41.152  1.1843  0.6684  1.4750
   59CHL1   C10 6811   3.359   0.501  41.270  0.4171  0.0342  0.0908
   59CHL1   C19 6812   3.485   0.419  41.262 -0.4836  0.4074 -0.3450
   59CHL1  H19A 6813   3.473   0.331  41.195  0.5770 -0.0988  0.1046
   59CHL1  H19B 6814   3.578   0.472  41.230 -0.3996  0.9468  0.7460
   59CHL1  H19C 6815   3.511   0.382  41.363  0.2547  1.3336 -0.1699
   59CHL1    C1 6816   3.377   0.616  41.376 -0.8234 -0.1782 -0.5783
   59CHL1   H1A 6817   3.475   0.667  41.365 -0.2052 -1.1752  0.1168
   59CHL1   H1B 6818   3.297   0.692  41.363 -2.8979 -2.0908  0.3668
   59CHL1    C2 6819   3.371   0.573  41.521 -0.0190  0.0211 -0.4533
   59CHL1   H2A 6820   3.366   0.666  41.582 -2.1615  0.1195 -0.6718
   59CHL1   H2B 6821   3.459   0.521  41.564 -1.3514 -0.9749  1.1985
   59CHL1   C20 6822   3.381   0.642  40.578  0.4038  0.3984 -0.1101
   59CHL1   H20 6823   3.421   0.540  40.557 -0.1274 -0.3057  1.9562
   59CHL1   C21 6824   3.502   0.730  40.602 -0.3233  0.4188 -0.8752
   59CHL1  H21A 6825   3.572   0.678  40.671 -1.1251 -1.6451 -1.5526
   59CHL1  H21B 6826   3.462   0.827  40.639 -1.3528  0.0773 -1.0597
   59CHL1  H21C 6827   3.561   0.747  40.509  0.5999  2.0766 -0.0291
   59CHL1   C22 6828   3.303   0.682  40.450 -0.0018 -0.2744  0.2654
   59CHL1  H22A 6829   3.222   0.607  40.441 -0.7775  0.6594 -0.8703
   59CHL1  H22B 6830   3.253   0.781  40.459 -0.7248 -0.6479  0.4563
   59CHL1   C23 6831   3.386   0.677  40.323 -0.2304 -1.2920  0.1657
   59CHL1  H23A 6832   3.450   0.768  40.325  0.4461 -1.6492 -2.1860
   59CHL1  H23B 6833   3.452   0.587  40.330  0.3575 -0.8060  1.0434
   59CHL1   C24 6834   3.296   0.671  40.197  0.2388  0.3593  0.5658
   59CHL1  H24A 6835   3.252   0.569  40.202  1.5918 -0.3729 -1.2256
   59CHL1  H24B 6836   3.217   0.748  40.186 -1.0814 -1.0502 -0.3349
   59CHL1   C25 6837   3.386   0.674  40.071  0.3108  0.7957  0.4049
   59CHL1   H25 6838   3.319   0.645  39.986 -1.0790  0.8118  1.4587
   59CHL1   C26 6839   3.421   0.816  40.036  0.3836 -0.1162  0.1776
   59CHL1  H26A 6840   3.492   0.858  40.110  0.1240 -0.8137  0.8329
   59CHL1  H26B 6841   3.473   0.825  39.938  0.7190  0.7959  0.4244
   59CHL1  H26C 6842   3.335   0.887  40.044  1.8747  1.6290  1.6355
   59CHL1   C27 6843   3.504   0.580  40.070 -0.3867  0.8791 -0.7063
   59CHL1  H27A 6844   3.547   0.586  39.968 -0.4201 -1.9233 -0.9755
   59CHL1  H27B 6845   3.592   0.609  40.132  0.3309  1.7784 -2.1060
   59CHL1  H27C 6846   3.466   0.477  40.086  1.9318 -0.2452 -1.8946
   60CHL1    C3 6847   1.560   1.234  33.929  0.9559  0.8170  0.0219
   60CHL1    H3 6848   1.521   1.135  33.896 -2.8635  2.3090 -0.3768
   60CHL1    O3 6849   1.471   1.281  34.026 -0.2736  0.6348 -0.0637
   60CHL1   H3' 6850   1.385   1.273  33.983 -0.3274 -4.0441  0.3946
   60CHL1    C4 6851   1.690   1.209  33.994  1.1535 -0.1224  0.3990
   60CHL1   H4A 6852   1.715   1.306  34.041 -0.0040 -0.2639  1.3652
   60CHL1   H4B 6853   1.674   1.137  34.078 -1.0060 -0.7155 -0.4505
   60CHL1    C5 6854   1.796   1.168  33.901 -0.0967 -0.1907 -0.3525
   60CHL1    C6 6855   1.876   1.060  33.929  0.3055 -0.2570  0.4580
   60CHL1    H6 6856   1.858   1.004  34.022 -0.8377  0.1887  0.5277
   60CHL1    C7 6857   1.980   1.015  33.833 -0.0182 -0.1236  0.6020
   60CHL1   H7A 6858   2.068   0.968  33.881 -0.7033  1.1398  3.3156
   60CHL1   H7B 6859   1.938   0.929  33.777 -1.2669 -1.9618  4.0483
   60CHL1    C8 6860   2.019   1.121  33.720  0.0513  0.4463  0.0173
   60CHL1    H8 6861   2.093   1.189  33.767  1.8078 -2.0017  1.0037
   60CHL1   C14 6862   2.090   1.047  33.602  0.5888 -0.3981 -0.7801
   60CHL1   H14 6863   2.023   0.970  33.557 -1.1109  0.5513  0.0451
   60CHL1   C15 6864   2.217   0.962  33.628  0.4932  0.6616 -0.5344
   60CHL1  H15A 6865   2.269   1.018  33.709 -0.9132 -1.4807  1.9742
   60CHL1  H15B 6866   2.181   0.860  33.651 -1.7519  1.2165 -1.2641
   60CHL1   C16 6867   2.291   0.962  33.493 -0.2994  0.0148  0.0340
   60CHL1  H16A 6868   2.378   1.029  33.502  0.1986 -0.8291  2.2615
   60CHL1  H16B 6869   2.331   0.868  33.450 -1.8555 -0.1689 -1.1169
   60CHL1   C17 6870   2.205   1.038  33.390  0.1522  0.3913 -0.0104
   60CHL1   H17 6871   2.133   0.959  33.360  0.1544  0.1365  0.6389
   60CHL1   C13 6872   2.126   1.139  33.480  0.1059  0.2484 -0.3558
   60CHL1   C18 6873   2.222   1.257  33.524  0.2480 -0.1703  0.6302
   60CHL1  H18A 6874   2.241   1.320  33.435 -0.4278 -2.6975 -1.4083
   60CHL1  H18B 6875   2.185   1.313  33.613  0.8863  0.1348  0.7119
   60CHL1  H18C 6876   2.317   1.217  33.566  1.5704  0.3957 -1.6496
   60CHL1   C12 6877   1.990   1.185  33.427  0.6674 -0.4971  0.1663
   60CHL1  H12A 6878   1.993   1.264  33.349 -0.1811  0.3655  0.9675
   60CHL1  H12B 6879   1.919   1.105  33.398  1.6254 -0.8892 -1.1574
   60CHL1   C11 6880   1.918   1.276  33.539 -0.3792  0.3220  0.5369
   60CHL1  H11A 6881   1.984   1.362  33.565 -1.2949  1.7921 -1.6681
   60CHL1  H11B 6882   1.827   1.321  33.493  0.2163 -0.1265 -1.1826
   60CHL1    C9 6883   1.891   1.185  33.661  0.2492 -0.3708  0.8835
   60CHL1    H9 6884   1.828   1.101  33.623  0.1277  0.7475 -1.5989
   60CHL1   C10 6885   1.808   1.250  33.777  0.0075  0.5619 -0.4145
   60CHL1   C19 6886   1.883   1.379  33.832 -0.1811 -0.8063 -0.6917
   60CHL1  H19A 6887   1.991   1.365  33.852 -0.5862 -2.1820  0.7301
   60CHL1  H19B 6888   1.859   1.454  33.754  2.2963 -1.5064 -2.2061
   60CHL1  H19C 6889   1.836   1.425  33.922 -2.9873 -1.2264 -1.8491
   60CHL1    C1 6890   1.675   1.281  33.715  0.0469 -0.4589 -0.2461
   60CHL1   H1A 6891   1.683   1.359  33.636  0.9595  0.7953  1.0267
   60CHL1   H1B 6892   1.638   1.191  33.663 -1.8064  0.4075 -0.5103
   60CHL1    C2 6893   1.568   1.325  33.815 -0.6545  0.1377  0.6537
   60CHL1   H2A 6894   1.474   1.330  33.755  1.2934  1.7172 -2.5334
   60CHL1   H2B 6895   1.594   1.426  33.852  0.5828 -0.1374  0.5851
   60CHL1   C20 6896   2.287   1.098  33.269  0.8246 -0.1653  0.3671
   60CHL1   H20 6897   2.361   1.162  33.322 -1.6386  0.7648  2.9660
   60CHL1   C21 6898   2.192   1.185  33.176  0.1720  0.5228 -0.3715
   60CHL1  H21A 6899   2.096   1.132  33.157 -0.1492  0.9409  0.0832
   60CHL1  H21B 6900   2.239   1.199  33.077  2.9656  2.4502  1.1012
   60CHL1  H21C 6901   2.161   1.284  33.215  2.7899  0.7269  1.4952
   60CHL1   C22 6902   2.373   0.999  33.183  0.0738 -0.0651 -0.2114
   60CHL1  H22A 6903   2.423   0.942  33.263 -0.7597 -1.0239 -0.3580
   60CHL1  H22B 6904   2.305   0.933  33.124 -0.5908 -0.6930  1.2211
   60CHL1   C23 6905   2.483   1.058  33.094 -0.2302  0.3707  0.0538
   60CHL1  H23A 6906   2.434   1.103  33.005  0.9358 -0.8093 -1.2386
   60CHL1  H23B 6907   2.534   1.141  33.146  0.3435 -0.8497  1.5102
   60CHL1   C24 6908   2.603   0.968  33.053  0.4354 -0.5114 -0.7061
   60CHL1  H24A 6909   2.650   0.913  33.138 -1.3368 -0.7010  0.2065
   60CHL1  H24B 6910   2.559   0.889  32.989  1.7565 -1.2733 -0.7152
   60CHL1   C25 6911   2.700   1.050  32.977 -0.1717 -1.1155 -0.5475
   60CHL1   H25 6912   2.636   1.119  32.917 -0.1937 -0.7100 -0.0678
   60CHL1   C26 6913   2.787   1.145  33.058  0.7145 -0.0390  0.2031
   60CHL1  H26A 6914   2.878   1.090  33.090  1.1386  0.4422 -0.1622
   60CHL1  H26B 6915   2.812   1.232  32.993  0.4181 -0.9581 -1.1951
   60CHL1  H26C 6916   2.728   1.187  33.142 -0.7911  1.4813 -1.5103
   60CHL1   C27 6917   2.782   0.969  32.885  0.3857  0.1123 -0.0221
   60CHL1  H27A 6918   2.715   0.920  32.811  1.2762 -0.7129 -0.2920
   60CHL1  H27B 6919   2.851   1.030  32.824  0.5832  0.9359  0.9901
   60CHL1  H27C 6920   2.842   0.893  32.940 -0.4460  0.9631  2.1685
   61CHL1    C3 6921   0.361   1.873  36.653  0.1955  0.7438 -0.1880
   61CHL1    H3 6922   0.286   1.894  36.732  0.7874  1.1760  0.2574
   61CHL1    O3 6923   0.484   1.886  36.710 -0.5063 -0.2626 -0.8635
   61CHL1   H3' 6924   0.539   1.871  36.633  0.1298 -0.8791 -0.2984
   61CHL1    C4 6925   0.347   1.729  36.606 -0.2591  0.5890 -0.3125
   61CHL1   H4A 6926   0.434   1.723  36.538  0.4031  2.5499  0.2912
   61CHL1   H4B 6927   0.353   1.660  36.692 -0.8618  0.3440 -0.4586
   61CHL1    C5 6928   0.216   1.714  36.527  0.5650  0.0463 -0.2517
   61CHL1    C6 6929   0.129   1.624  36.571  0.1814 -0.1034  0.0731
   61CHL1    H6 6930   0.157   1.559  36.655  0.3628  0.2999  0.3276
   61CHL1    C7 6931  -0.005   1.597  36.506 -0.3199 -0.0792 -0.5083
   61CHL1   H7A 6932  -0.017   1.487  36.496  3.0006 -0.4388 -1.9223
   61CHL1   H7B 6933  -0.081   1.635  36.577  1.1333  1.3199  0.3596
   61CHL1    C8 6934  -0.021   1.672  36.376  0.2073 -0.2515 -0.1826
   61CHL1    H8 6935   0.022   1.615  36.291  0.2361  0.7021 -0.8259
   61CHL1   C14 6936  -0.165   1.683  36.343  0.3935  0.3989 -0.0403
   61CHL1   H14 6937  -0.223   1.749  36.411 -0.6219  2.1005 -2.4105
   61CHL1   C15 6938  -0.232   1.547  36.345 -0.6468 -0.3507  0.4427
   61CHL1  H15A 6939  -0.168   1.472  36.293 -0.4938  0.7108 -0.9649
   61CHL1  H15B 6940  -0.267   1.526  36.448 -0.7715  0.7644  0.6377
   61CHL1   C16 6941  -0.366   1.566  36.267  1.0697  0.2986  0.5112
   61CHL1  H16A 6942  -0.365   1.486  36.190  0.0455  2.1718 -1.5594
   61CHL1  H16B 6943  -0.456   1.555  36.330 -2.6924 -0.7214 -4.4268
   61CHL1   C17 6944  -0.353   1.712  36.204  0.3576 -0.7457 -0.5194
   61CHL1   H17 6945  -0.398   1.783  36.277 -1.4350 -0.2826 -2.0012
   61CHL1   C13 6946  -0.196   1.728  36.196  0.1909  0.2269 -0.3103
   61CHL1   C18 6947  -0.134   1.643  36.076  0.1886 -0.1675  0.2255
   61CHL1  H18A 6948  -0.147   1.689  35.976  0.3055 -0.3831  0.1086
   61CHL1  H18B 6949  -0.023   1.646  36.085  0.1561 -1.8739  1.7716
   61CHL1  H18C 6950  -0.173   1.539  36.071 -2.3472  0.6778  0.8097
   61CHL1   C12 6951  -0.145   1.873  36.196 -0.6170  0.1046  0.6158
   61CHL1  H12A 6952  -0.147   1.929  36.100 -0.9471 -0.1140  0.4920
   61CHL1  H12B 6953  -0.197   1.944  36.263 -0.1026  0.2272  0.8938
   61CHL1   C11 6954   0.003   1.875  36.237 -0.7087 -0.0215 -0.6416
   61CHL1  H11A 6955   0.058   1.824  36.155 -0.0389 -0.6710  0.2010
   61CHL1  H11B 6956   0.025   1.984  36.245  1.0702 -0.5025  4.3080
   61CHL1    C9 6957   0.034   1.808  36.378 -0.5435 -0.7246  0.8296
   61CHL1    H9 6958  -0.022   1.876  36.446  1.3560  3.5796 -1.4560
   61CHL1   C10 6959   0.182   1.822  36.420  0.0727 -0.1964 -0.9674
   61CHL1   C19 6960   0.275   1.807  36.298  0.3376  0.5223 -0.1695
   61CHL1  H19A 6961   0.384   1.813  36.314  0.0457 -1.2030  3.4806
   61CHL1  H19B 6962   0.253   1.709  36.250 -1.2608  0.4410  0.6467
   61CHL1  H19C 6963   0.243   1.883  36.223 -1.9739  0.7116  0.9143
   61CHL1    C1 6964   0.208   1.964  36.486  0.0917  0.2079 -0.2831
   61CHL1   H1A 6965   0.182   2.056  36.430 -0.0059  2.5764  3.3021
   61CHL1   H1B 6966   0.133   1.975  36.568 -0.9075 -1.6203 -0.8887
   61CHL1    C2 6967   0.347   1.978  36.545 -0.0820 -0.7600  0.1681
   61CHL1   H2A 6968   0.367   2.077  36.591  1.1804 -2.0938  2.6458
   61CHL1   H2B 6969   0.427   1.963  36.469 -0.3174  0.4079 -0.3350
   61CHL1   C20 6970  -0.433   1.733  36.077  0.0318  0.6208 -0.0186
   61CHL1   H20 6971  -0.385   1.675  35.996 -0.2467 -1.0656  0.9741
   61CHL1   C21 6972  -0.433   1.877  36.019  0.2420  0.3344  0.8720
   61CHL1  H21A 6973  -0.513   1.880  35.943  0.6997  0.2342  0.3824
   61CHL1  H21B 6974  -0.334   1.904  35.975 -0.5488  2.7585  0.4083
   61CHL1  H21C 6975  -0.455   1.960  36.090 -1.7628  2.3961 -1.9553
   61CHL1   C22 6976  -0.583   1.677  36.082 -0.4017 -0.0611 -0.3827
   61CHL1  H22A 6977  -0.636   1.705  35.989 -0.6368  1.2091  0.1213
   61CHL1  H22B 6978  -0.579   1.567  36.096  2.0823  0.2385  2.2196
   61CHL1   C23 6979  -0.673   1.714  36.207  0.0657  0.2634  0.1828
   61CHL1  H23A 6980  -0.647   1.646  36.291 -0.7495 -2.5590 -1.7060
   61CHL1  H23B 6981  -0.670   1.823  36.229 -2.6422  0.2843  0.8277
   61CHL1   C24 6982  -0.823   1.680  36.181  0.0322 -0.6427  0.0884
   61CHL1  H24A 6983  -0.844   1.733  36.085  2.5945  0.6704  0.1743
   61CHL1  H24B 6984  -0.817   1.572  36.158  2.7356 -0.8271  1.3465
   61CHL1   C25 6985  -0.923   1.725  36.296  0.1610  0.7735  0.4863
   61CHL1   H25 6986  -0.919   1.655  36.382  0.5273  1.0876  0.7250
   61CHL1   C26 6987  -0.891   1.872  36.338 -0.6607 -0.6667  0.1631
   61CHL1  H26A 6988  -0.805   1.891  36.406 -0.2798  0.2344 -0.5487
   61CHL1  H26B 6989  -0.880   1.934  36.247  2.9160 -1.3102  0.0096
   61CHL1  H26C 6990  -0.976   1.904  36.402 -0.8406 -2.4882  0.8910
   61CHL1   C27 6991  -1.075   1.725  36.253 -0.0985 -0.7404  0.0203
   61CHL1  H27A 6992  -1.091   1.617  36.232 -1.1878 -0.2896 -1.6511
   61CHL1  H27B 6993  -1.131   1.761  36.341  0.8789  0.2013  0.2749
   61CHL1  H27C 6994  -1.088   1.776  36.155 -2.1138 -0.9116  0.1720
   62CHL1    C3 6995   0.104   2.182  33.782  0.2849  0.0409 -0.0597
   62CHL1    H3 6996   0.103   2.084  33.729 -0.2032 -2.0842  3.5713
   62CHL1    O3 6997   0.235   2.204  33.839  0.3233 -0.4431  0.3014
   62CHL1   H3' 6998   0.233   2.296  33.865 -0.2601 -0.8739  1.9654
   62CHL1    C4 6999   0.057   2.287  33.677  0.2910 -0.6410 -0.6055
   62CHL1   H4A 7000   0.073   2.387  33.722 -2.0572 -0.8114  0.7529
   62CHL1   H4B 7001   0.131   2.273  33.595 -0.3341 -0.2702 -1.2449
   62CHL1    C5 7002  -0.091   2.275  33.636  1.2275  0.1989  0.0759
   62CHL1    C6 7003  -0.115   2.287  33.500  0.2506 -0.1590  0.1774
   62CHL1    H6 7004  -0.033   2.296  33.427 -0.6966  0.3918 -0.8572
   62CHL1    C7 7005  -0.241   2.263  33.438 -1.0034  0.8007 -0.0212
   62CHL1   H7A 7006  -0.263   2.339  33.360 -1.0192 -0.1682 -0.9851
   62CHL1   H7B 7007  -0.230   2.165  33.386 -0.9350  1.4370 -1.2472
   62CHL1    C8 7008  -0.351   2.247  33.536  0.1358 -0.1135 -0.1815
   62CHL1    H8 7009  -0.381   2.346  33.577 -1.5067 -1.1468  1.2204
   62CHL1   C14 7010  -0.462   2.170  33.467 -0.4461  0.5496 -0.6797
   62CHL1   H14 7011  -0.437   2.062  33.466 -2.2629  0.0360  1.6403
   62CHL1   C15 7012  -0.504   2.207  33.323  0.2763  0.8691 -0.0843
   62CHL1  H15A 7013  -0.483   2.316  33.321  0.2961  0.8663 -0.0296
   62CHL1  H15B 7014  -0.440   2.166  33.242 -0.7422  1.1475 -1.0631
   62CHL1   C16 7015  -0.648   2.175  33.305  0.2877  0.5600 -0.2472
   62CHL1  H16A 7016  -0.714   2.264  33.294 -1.1363 -0.6265 -1.8684
   62CHL1  H16B 7017  -0.656   2.105  33.219 -0.6351  1.1130 -0.6346
   62CHL1   C17 7018  -0.680   2.101  33.439  1.0257  0.6539 -0.0372
   62CHL1   H17 7019  -0.651   1.995  33.423 -2.7230 -0.5459  0.1362
   62CHL1   C13 7020  -0.592   2.172  33.545  0.6480  0.0572  0.8336
   62CHL1   C18 7021  -0.646   2.313  33.573  0.0505 -0.1390  0.0892
   62CHL1  H18A 7022  -0.745   2.318  33.624  1.4957  1.2049  3.0301
   62CHL1  H18B 7023  -0.582   2.359  33.652  0.1591  0.5300 -0.3768
   62CHL1  H18C 7024  -0.636   2.384  33.489 -1.5463 -0.4613 -0.4091
   62CHL1   C12 7025  -0.565   2.087  33.673  0.9452  0.2425  0.4702
   62CHL1  H12A 7026  -0.650   2.079  33.744  0.1666  0.4425 -0.4135
   62CHL1  H12B 7027  -0.557   1.980  33.643  0.5425  1.0132 -2.8619
   62CHL1   C11 7028  -0.440   2.126  33.748 -0.4466  0.4330 -0.5780
   62CHL1  H11A 7029  -0.448   2.209  33.822  0.3188  0.8745 -0.9661
   62CHL1  H11B 7030  -0.401   2.046  33.814  2.7138  3.2558  1.3161
   62CHL1    C9 7031  -0.314   2.169  33.661 -0.0410  0.1417 -0.4307
   62CHL1    H9 7032  -0.267   2.075  33.625 -0.9827 -0.3572 -0.3784
   62CHL1   C10 7033  -0.198   2.231  33.741  0.0631  1.4367  0.1058
   62CHL1   C19 7034  -0.253   2.347  33.816 -0.7389 -1.1478  1.1398
   62CHL1  H19A 7035  -0.297   2.311  33.911 -0.6944 -1.1196  1.1723
   62CHL1  H19B 7036  -0.179   2.428  33.834 -0.1948 -1.4496  0.3307
   62CHL1  H19C 7037  -0.343   2.389  33.767  0.3696 -0.5293 -0.4328
   62CHL1    C1 7038  -0.133   2.122  33.839 -0.1374 -0.3962  0.1125
   62CHL1   H1A 7039  -0.209   2.093  33.915 -0.2157 -0.8053 -0.1148
   62CHL1   H1B 7040  -0.103   2.035  33.777 -1.4743  1.3387 -3.2224
   62CHL1    C2 7041   0.007   2.171  33.892 -0.3416  0.0623 -0.1111
   62CHL1   H2A 7042   0.039   2.096  33.967 -0.2894  0.9550  0.7937
   62CHL1   H2B 7043  -0.000   2.274  33.934  2.3206  0.1782  0.2158
   62CHL1   C20 7044  -0.834   2.095  33.449 -0.5772 -0.7148 -0.7147
   62CHL1   H20 7045  -0.886   2.193  33.443  0.9200  0.0505 -1.8149
   62CHL1   C21 7046  -0.870   2.034  33.589  0.9109  0.3101 -0.6367
   62CHL1  H21A 7047  -0.855   2.099  33.678 -1.7754 -0.0223  0.1518
   62CHL1  H21B 7048  -0.807   1.943  33.598 -2.6281 -2.4092 -0.9210
   62CHL1  H21C 7049  -0.973   1.994  33.585  0.6267  1.1127 -1.6250
   62CHL1   C22 7050  -0.907   2.013  33.336 -0.2386 -0.4618 -0.0739
   62CHL1  H22A 7051  -0.864   2.033  33.236  1.8630 -0.3724  0.8092
   62CHL1  H22B 7052  -0.897   1.905  33.362 -3.1783 -1.0828 -1.0721
   62CHL1   C23 7053  -1.056   2.043  33.335 -0.1518 -0.7851  0.1850
   62CHL1  H23A 7054  -1.110   2.001  33.423 -0.7422 -0.6939 -0.1359
   62CHL1  H23B 7055  -1.069   2.151  33.316 -1.9023 -0.9102  0.5623
   62CHL1   C24 7056  -1.136   1.986  33.218  0.4717 -0.8754 -0.9838
   62CHL1  H24A 7057  -1.085   2.000  33.120  2.1076  0.7553  0.0392
   62CHL1  H24B 7058  -1.144   1.875  33.228  0.1084 -0.7007  1.0740
   62CHL1   C25 7059  -1.282   2.042  33.191 -0.1952  0.6054 -0.8659
   62CHL1   H25 7060  -1.275   2.143  33.145 -0.5571  0.9780 -0.1281
   62CHL1   C26 7061  -1.355   1.942  33.102 -0.2479  0.3602 -0.5599
   62CHL1  H26A 7062  -1.294   1.904  33.017  1.1505  0.4362  0.3606
   62CHL1  H26B 7063  -1.384   1.860  33.170 -0.8147 -0.6155 -1.9439
   62CHL1  H26C 7064  -1.450   1.994  33.079 -0.6004  0.7654  1.6310
   62CHL1   C27 7065  -1.372   2.068  33.309 -0.1292  0.0187 -0.1189
   62CHL1  H27A 7066  -1.478   2.063  33.278 -0.3500 -0.8851  0.7175
   62CHL1  H27B 7067  -1.354   1.994  33.391 -0.6718 -0.8548 -0.7784
   62CHL1  H27C 7068  -1.354   2.174  33.338 -0.7536  0.3552 -0.9617
   63CHL1    C3 7069   1.043   3.258  33.087  0.5827  0.3254  0.6872
   63CHL1    H3 7070   0.974   3.234  33.003 -0.1486  0.6049  1.1944
   63CHL1    O3 7071   0.988   3.197  33.204  0.3254 -0.5909  0.0795
   63CHL1   H3' 7072   1.034   3.249  33.269  0.3745  3.5294 -2.8522
   63CHL1    C4 7073   1.192   3.219  33.078  0.0207  0.6679 -0.0495
   63CHL1   H4A 7074   1.243   3.257  33.169 -1.9508 -2.3154  2.4658
   63CHL1   H4B 7075   1.200   3.109  33.086  1.6367  0.8562  1.3828
   63CHL1    C5 7076   1.255   3.276  32.945 -0.4123 -0.2543 -0.3293
   63CHL1    C6 7077   1.289   3.201  32.839 -0.5108 -0.9815 -0.0240
   63CHL1    H6 7078   1.273   3.093  32.853 -1.2083 -0.9207 -0.3555
   63CHL1    C7 7079   1.355   3.261  32.717  0.2265 -0.4292 -0.0214
   63CHL1   H7A 7080   1.433   3.195  32.673 -1.0228 -0.5942 -2.0936
   63CHL1   H7B 7081   1.278   3.264  32.637  2.0467  1.3172 -1.8259
   63CHL1    C8 7082   1.394   3.405  32.733 -0.4662  0.3406 -0.3890
   63CHL1    H8 7083   1.484   3.399  32.798  1.3800 -0.2719 -2.8511
   63CHL1   C14 7084   1.415   3.472  32.600 -0.2520  0.0117  0.5077
   63CHL1   H14 7085   1.317   3.463  32.548 -0.1053  0.1464  0.2015
   63CHL1   C15 7086   1.512   3.407  32.498  0.5056  0.2689  0.3135
   63CHL1  H15A 7087   1.614   3.395  32.540  1.4550 -0.0103 -1.9378
   63CHL1  H15B 7088   1.475   3.308  32.463 -1.4053  1.1468 -0.2923
   63CHL1   C16 7089   1.508   3.511  32.390 -0.3540  0.4665  0.1333
   63CHL1  H16A 7090   1.610   3.528  32.348  0.3776 -0.6039  1.4286
   63CHL1  H16B 7091   1.433   3.474  32.317  1.0301 -0.0156 -1.0930
   63CHL1   C17 7092   1.448   3.640  32.441  0.8671  0.4295 -0.8298
   63CHL1   H17 7093   1.341   3.642  32.411  0.8581  1.0058 -0.7724
   63CHL1   C13 7094   1.455   3.621  32.592 -0.5452 -0.0327 -0.1218
   63CHL1   C18 7095   1.596   3.648  32.640 -0.0019  0.7038 -0.4366
   63CHL1  H18A 7096   1.599   3.602  32.741 -0.5631 -1.0481 -1.1749
   63CHL1  H18B 7097   1.683   3.615  32.579  0.8753  1.3427  0.4328
   63CHL1  H18C 7098   1.615   3.756  32.658 -0.9744  0.4894  2.2834
   63CHL1   C12 7099   1.352   3.701  32.676 -0.1600 -0.0863 -0.2778
   63CHL1  H12A 7100   1.398   3.802  32.686 -2.4244  0.8637  1.3514
   63CHL1  H12B 7101   1.264   3.711  32.609  0.3632  0.9068 -0.8411
   63CHL1   C11 7102   1.323   3.649  32.812  0.4118 -0.4246  0.6429
   63CHL1  H11A 7103   1.413   3.676  32.871  1.6270  0.9610 -1.6981
   63CHL1  H11B 7104   1.234   3.704  32.850  0.7641 -1.3408  2.9813
   63CHL1    C9 7105   1.288   3.495  32.806 -1.0846  0.1573  0.1952
   63CHL1    H9 7106   1.197   3.500  32.744 -0.9675 -0.8028 -0.0545
   63CHL1   C10 7107   1.252   3.430  32.943 -0.4522 -0.7243  0.3823
   63CHL1   C19 7108   1.354   3.487  33.056  0.0332  0.0896 -0.2354
   63CHL1  H19A 7109   1.458   3.449  33.045  0.9107  1.7688  1.6461
   63CHL1  H19B 7110   1.364   3.597  33.053 -2.2074  0.3427 -0.2180
   63CHL1  H19C 7111   1.326   3.471  33.162  0.8240  0.3787  0.0230
   63CHL1    C1 7112   1.109   3.472  32.978 -0.2559  0.1177  1.1623
   63CHL1   H1A 7113   1.113   3.582  32.989  0.5457  0.3123 -0.7120
   63CHL1   H1B 7114   1.050   3.455  32.886  0.2920  1.7575  0.4732
   63CHL1    C2 7115   1.051   3.412  33.100 -0.1742  0.6723  0.7932
   63CHL1   H2A 7116   0.951   3.461  33.100 -1.2523 -1.3999  0.6691
   63CHL1   H2B 7117   1.116   3.446  33.184  1.1393 -1.2686  0.6375
   63CHL1   C20 7118   1.515   3.760  32.377 -0.1026  0.0305 -0.1406
   63CHL1   H20 7119   1.622   3.753  32.407  0.2532  1.3568 -1.0565
   63CHL1   C21 7120   1.462   3.897  32.424 -0.2027  0.6685 -0.6062
   63CHL1  H21A 7121   1.520   3.985  32.391  1.1100  0.0289 -0.0781
   63CHL1  H21B 7122   1.464   3.906  32.535 -0.0374 -0.4681 -0.5044
   63CHL1  H21C 7123   1.360   3.906  32.381 -0.9502 -0.4960  0.8346
   63CHL1   C22 7124   1.515   3.751  32.223 -0.9514  0.1105 -0.1855
   63CHL1  H22A 7125   1.514   3.652  32.173 -0.9848  0.2751 -0.5136
   63CHL1  H22B 7126   1.429   3.811  32.188  0.2633  0.8338 -2.0892
   63CHL1   C23 7127   1.630   3.840  32.161 -0.4201  0.3573 -0.0267
   63CHL1  H23A 7128   1.597   3.942  32.191 -1.2864  0.1784 -0.3241
   63CHL1  H23B 7129   1.728   3.801  32.197 -1.2261 -1.3692  0.4060
   63CHL1   C24 7130   1.612   3.818  32.011 -0.1819 -0.5120 -0.8754
   63CHL1  H24A 7131   1.620   3.710  31.990  2.6883 -0.1732 -2.0229
   63CHL1  H24B 7132   1.511   3.846  31.972 -0.1424  3.4442  1.3523
   63CHL1   C25 7133   1.715   3.893  31.922 -1.1847 -0.2807  0.2140
   63CHL1   H25 7134   1.712   3.996  31.963  1.0956 -0.6598  1.4914
   63CHL1   C26 7135   1.844   3.826  31.947  0.1947  0.1297 -0.2240
   63CHL1  H26A 7136   1.920   3.871  31.880  1.6646 -1.1757  0.4924
   63CHL1  H26B 7137   1.878   3.829  32.053  0.0932 -1.4719 -0.1222
   63CHL1  H26C 7138   1.845   3.719  31.918 -0.6643  0.9328 -3.5578
   63CHL1   C27 7139   1.672   3.888  31.768 -0.0020  0.0841 -0.5811
   63CHL1  H27A 7140   1.652   3.783  31.737  0.3418 -0.3890  0.7431
   63CHL1  H27B 7141   1.582   3.948  31.743  1.5060  1.8759 -2.0136
   63CHL1  H27C 7142   1.755   3.938  31.715  0.8549  1.9828  2.3728
   64CHL1    C3 7143   1.999   2.865  33.817 -0.5799 -0.1274 -0.7107
   64CHL1    H3 7144   2.002   2.757  33.843 -1.8039 -0.4717 -1.8878
   64CHL1    O3 7145   1.970   2.955  33.927 -0.1774  0.9746  0.1065
   64CHL1   H3' 7146   1.874   2.957  33.917 -0.6263 -2.7010  2.0372
   64CHL1    C4 7147   2.151   2.896  33.794  0.5378 -0.0091  0.3221
   64CHL1   H4A 7148   2.169   2.999  33.757 -3.2244  0.1167 -1.6487
   64CHL1   H4B 7149   2.213   2.882  33.884  1.5611  1.7857 -0.0587
   64CHL1    C5 7150   2.207   2.805  33.693  0.0469  0.1393  0.3728
   64CHL1    C6 7151   2.298   2.716  33.720 -0.0491  0.0115  0.1321
   64CHL1    H6 7152   2.348   2.714  33.818 -0.4755 -0.2564  0.3456
   64CHL1    C7 7153   2.360   2.630  33.613 -0.3820 -0.0340 -0.9005
   64CHL1   H7A 7154   2.470   2.630  33.632 -1.0106  0.7634  4.0622
   64CHL1   H7B 7155   2.327   2.526  33.634 -1.3128  0.7755  2.1182
   64CHL1    C8 7156   2.336   2.677  33.470  0.3863 -0.0966 -0.1982
   64CHL1    H8 7157   2.400   2.766  33.451  2.4542 -1.3559  0.5460
   64CHL1   C14 7158   2.367   2.563  33.367 -0.3211  0.0563 -0.4222
   64CHL1   H14 7159   2.301   2.477  33.393  0.3532 -1.2428 -2.7225
   64CHL1   C15 7160   2.511   2.500  33.368  0.2843 -0.7030  0.0382
   64CHL1  H15A 7161   2.591   2.575  33.350 -1.0565  0.6628 -0.4440
   64CHL1  H15B 7162   2.532   2.435  33.455  0.4386  2.3151  2.4392
   64CHL1   C16 7163   2.512   2.419  33.233 -0.7430  0.1419  0.0244
   64CHL1  H16A 7164   2.604   2.443  33.176 -1.7607  0.3491 -1.6351
   64CHL1  H16B 7165   2.513   2.311  33.256 -1.6678  0.1916  0.3653
   64CHL1   C17 7166   2.377   2.459  33.157 -0.4839  0.1430  0.4050
   64CHL1   H17 7167   2.299   2.385  33.188 -0.1472 -1.0023 -1.3620
   64CHL1   C13 7168   2.332   2.590  33.225 -0.2601  0.7566  0.1184
   64CHL1   C18 7169   2.415   2.711  33.177 -0.2561 -0.4910 -0.3572
   64CHL1  H18A 7170   2.409   2.793  33.252  1.6654 -1.6070  1.1004
   64CHL1  H18B 7171   2.521   2.691  33.152 -0.0755 -0.0887  0.0658
   64CHL1  H18C 7172   2.365   2.750  33.085  3.5432  1.3156 -1.8430
   64CHL1   C12 7173   2.178   2.620  33.219 -0.0132  0.3756 -0.2005
   64CHL1  H12A 7174   2.149   2.640  33.113 -0.1784  0.3817 -0.1531
   64CHL1  H12B 7175   2.131   2.521  33.238  1.7101 -1.3976 -3.9702
   64CHL1   C11 7176   2.136   2.738  33.303  0.2087  0.4237  0.6156
   64CHL1  H11A 7177   2.184   2.826  33.255  2.1175 -0.0222  1.5902
   64CHL1  H11B 7178   2.026   2.751  33.303 -0.5519 -4.2889  0.3298
   64CHL1    C9 7179   2.188   2.717  33.452 -0.0184  0.0070 -0.9804
   64CHL1    H9 7180   2.144   2.623  33.492 -0.9223  1.0632  0.6719
   64CHL1   C10 7181   2.143   2.823  33.560 -0.1368 -0.4014 -0.1300
   64CHL1   C19 7182   2.180   2.957  33.496 -0.0063  0.5484  0.1479
   64CHL1  H19A 7183   2.291   2.963  33.483  0.0420  1.4100  0.8884
   64CHL1  H19B 7184   2.134   2.972  33.396 -0.8972  0.6773  0.5659
   64CHL1  H19C 7185   2.141   3.034  33.565 -1.5123  0.2828 -0.3769
   64CHL1    C1 7186   1.989   2.812  33.578  0.2363 -0.4395 -0.2907
   64CHL1   H1A 7187   1.943   2.850  33.484  0.7177  0.6262 -0.1051
   64CHL1   H1B 7188   1.953   2.707  33.579 -2.3832  0.3675  0.3320
   64CHL1    C2 7189   1.923   2.894  33.696  0.1208 -0.0424  0.0845
   64CHL1   H2A 7190   1.813   2.879  33.708 -0.0253  1.6510  1.0728
   64CHL1   H2B 7191   1.909   3.001  33.669 -2.8371 -0.5247 -0.7435
   64CHL1   C20 7192   2.385   2.447  33.002  0.1062  0.5839 -0.1696
   64CHL1   H20 7193   2.448   2.530  32.964 -1.7291  1.3481 -1.6512
   64CHL1   C21 7194   2.256   2.479  32.922 -0.5013 -0.1759  0.0969
   64CHL1  H21A 7195   2.169   2.421  32.959  1.4270 -1.8440  2.4112
   64CHL1  H21B 7196   2.269   2.463  32.813 -1.9752  0.1112 -0.1333
   64CHL1  H21C 7197   2.238   2.587  32.938 -0.3990 -0.3031  1.1742
   64CHL1   C22 7198   2.445   2.305  32.962  0.3644 -0.0916 -0.0679
   64CHL1  H22A 7199   2.518   2.265  33.034 -1.2582 -1.6342  0.7997
   64CHL1  H22B 7200   2.363   2.231  32.976  0.8911 -0.3515  1.9975
   64CHL1   C23 7201   2.505   2.290  32.815  0.4033 -0.1282 -0.3157
   64CHL1  H23A 7202   2.421   2.305  32.744  0.1751 -0.0090 -0.0179
   64CHL1  H23B 7203   2.585   2.366  32.803 -0.9555  1.1331 -1.9072
   64CHL1   C24 7204   2.576   2.161  32.790  0.0014  0.6151 -0.4872
   64CHL1  H24A 7205   2.618   2.177  32.689 -1.9606  1.9206 -1.1630
   64CHL1  H24B 7206   2.661   2.157  32.861  1.2111 -0.4267 -1.9510
   64CHL1   C25 7207   2.490   2.027  32.799 -0.3834 -0.8303 -0.1403
   64CHL1   H25 7208   2.416   2.038  32.881 -3.2390 -1.6299 -2.4163
   64CHL1   C26 7209   2.429   2.008  32.661  0.1893  0.5338 -0.2985
   64CHL1  H26A 7210   2.401   2.109  32.621  0.3262  0.7032  0.0343
   64CHL1  H26B 7211   2.496   1.953  32.592 -1.4500 -0.7911 -0.9003
   64CHL1  H26C 7212   2.348   1.934  32.672 -0.3209  1.1461  0.1496
   64CHL1   C27 7213   2.581   1.908  32.827 -0.8334 -0.9141 -0.2745
   64CHL1  H27A 7214   2.529   1.810  32.835 -1.0332 -0.8811 -1.0452
   64CHL1  H27B 7215   2.659   1.893  32.749 -0.9650 -1.5191 -0.2946
   64CHL1  H27C 7216   2.633   1.929  32.922 -1.3417 -0.7837 -0.0242
   65CHL1    C3 7217   2.270   2.351  41.930 -0.3417 -0.2065  0.1275
   65CHL1    H3 7218   2.353   2.354  41.856  1.8310  0.2670  2.4275
   65CHL1    O3 7219   2.309   2.343  42.068 -0.5967  0.3800  0.1861
   65CHL1   H3' 7220   2.367   2.268  42.086  1.0452  2.0128  2.1069
   65CHL1    C4 7221   2.168   2.470  41.922  0.5730 -0.3387 -0.2397
   65CHL1   H4A 7222   2.092   2.459  42.003  1.7555 -4.2803  0.5794
   65CHL1   H4B 7223   2.219   2.564  41.950  1.0903 -1.0574  1.3887
   65CHL1    C5 7224   2.105   2.476  41.786 -0.0399 -0.7438 -0.4173
   65CHL1    C6 7225   2.120   2.589  41.714  0.3672 -0.3974 -0.0131
   65CHL1    H6 7226   2.178   2.672  41.757 -0.5557 -0.9865  2.5365
   65CHL1    C7 7227   2.074   2.606  41.573 -0.0942  0.7768 -0.5319
   65CHL1   H7A 7228   2.030   2.707  41.559  1.3741  1.7371  1.3365
   65CHL1   H7B 7229   2.163   2.600  41.506  0.9425  2.1661  0.6624
   65CHL1    C8 7230   1.967   2.505  41.533  0.6467  0.1894 -0.0332
   65CHL1    H8 7231   1.879   2.541  41.591  0.4916 -0.1165 -0.0764
   65CHL1   C14 7232   1.933   2.498  41.380 -0.3534 -0.3014 -0.5077
   65CHL1   H14 7233   2.028   2.466  41.333  0.1338 -1.3090  1.0725
   65CHL1   C15 7234   1.902   2.629  41.309 -0.6265 -0.9629 -0.1990
   65CHL1  H15A 7235   1.827   2.694  41.359 -1.5875 -0.6243 -1.9933
   65CHL1  H15B 7236   2.003   2.674  41.292 -1.1195  0.4443  0.4044
   65CHL1   C16 7237   1.834   2.591  41.180 -0.4059  0.0632  0.3411
   65CHL1  H16A 7238   1.740   2.650  41.171 -0.0608  0.2906 -3.2604
   65CHL1  H16B 7239   1.893   2.625  41.092 -0.2043 -1.5932 -0.2034
   65CHL1   C17 7240   1.810   2.435  41.187 -0.7329  0.2304  0.2242
   65CHL1   H17 7241   1.900   2.390  41.140 -0.5632  0.2379  0.5364
   65CHL1   C13 7242   1.820   2.402  41.340  0.0341  0.4279  0.6791
   65CHL1   C18 7243   1.684   2.446  41.402  1.1819 -0.7390  0.9124
   65CHL1  H18A 7244   1.665   2.546  41.358 -0.5825 -1.3905  0.0922
   65CHL1  H18B 7245   1.594   2.385  41.377  0.1539  0.6871  1.0136
   65CHL1  H18C 7246   1.691   2.462  41.512  0.0833  1.6465  0.6990
   65CHL1   C12 7247   1.854   2.258  41.382 -0.1570  0.2426  0.4167
   65CHL1  H12A 7248   1.770   2.187  41.367  0.3235 -0.7391  2.1326
   65CHL1  H12B 7249   1.948   2.225  41.332 -1.3691 -1.4905 -0.8523
   65CHL1   C11 7250   1.888   2.247  41.535  0.3079 -0.2798 -0.8142
   65CHL1  H11A 7251   1.796   2.250  41.596  0.8276 -1.5823  0.0753
   65CHL1  H11B 7252   1.934   2.149  41.557  0.7852  0.1377  0.0935
   65CHL1    C9 7253   2.003   2.357  41.576  0.1552  0.3307 -0.1286
   65CHL1    H9 7254   2.098   2.335  41.523  1.2106  4.2419 -0.1215
   65CHL1   C10 7255   2.045   2.344  41.725 -0.0819 -1.0962 -0.5506
   65CHL1   C19 7256   1.914   2.329  41.817 -0.3720 -0.0326  0.1785
   65CHL1  H19A 7257   1.941   2.323  41.925 -1.9605 -0.5181  0.5719
   65CHL1  H19B 7258   1.858   2.419  41.785 -1.0150 -0.1619  0.8885
   65CHL1  H19C 7259   1.849   2.243  41.789  0.5319 -1.2420  1.6001
   65CHL1    C1 7260   2.133   2.222  41.754  0.2139  0.2090  0.6488
   65CHL1   H1A 7261   2.069   2.131  41.743  0.3323 -0.1851  2.8162
   65CHL1   H1B 7262   2.223   2.205  41.691  0.7686 -1.1267  1.7627
   65CHL1    C2 7263   2.196   2.224  41.895  0.2250  0.5401 -0.3113
   65CHL1   H2A 7264   2.264   2.136  41.903  0.4605  0.6678 -0.8369
   65CHL1   H2B 7265   2.113   2.216  41.968  1.1971  0.1158  0.7831
   65CHL1   C20 7266   1.675   2.396  41.108  0.8202 -0.5014  0.3283
   65CHL1   H20 7267   1.592   2.447  41.162  0.4002 -1.5845  0.7356
   65CHL1   C21 7268   1.643   2.242  41.119 -0.0045  0.0302 -0.7360
   65CHL1  H21A 7269   1.740   2.195  41.093  0.6411  1.5991 -1.2500
   65CHL1  H21B 7270   1.570   2.213  41.040 -1.8811 -0.0844  0.9515
   65CHL1  H21C 7271   1.612   2.222  41.224  1.6943 -0.6445 -0.3387
   65CHL1   C22 7272   1.671   2.447  40.962 -0.0519  1.0373  0.7125
   65CHL1  H22A 7273   1.563   2.452  40.936 -0.1178 -0.7427  0.5086
   65CHL1  H22B 7274   1.714   2.549  40.948  0.1016  0.9096  0.2471
   65CHL1   C23 7275   1.746   2.360  40.857 -0.1477  0.2200  0.0653
   65CHL1  H23A 7276   1.846   2.338  40.902  0.7226  1.0581 -1.3669
   65CHL1  H23B 7277   1.693   2.269  40.825 -1.1546  0.2979  1.4321
   65CHL1   C24 7278   1.793   2.432  40.733 -0.1936 -0.5843 -0.1388
   65CHL1  H24A 7279   1.712   2.492  40.687 -1.5146 -1.8936  0.3958
   65CHL1  H24B 7280   1.886   2.487  40.759  0.8901 -2.3960 -0.0818
   65CHL1   C25 7281   1.837   2.332  40.626 -0.2938  0.1589 -0.6244
   65CHL1   H25 7282   1.748   2.272  40.596 -2.3423  3.7157 -2.3005
   65CHL1   C26 7283   1.874   2.399  40.499  0.9421  0.5675 -0.2334
   65CHL1  H26A 7284   1.785   2.460  40.472  0.0318 -1.3911 -1.9021
   65CHL1  H26B 7285   1.964   2.462  40.519  1.6958 -0.2964 -0.8072
   65CHL1  H26C 7286   1.897   2.330  40.415 -1.9355 -0.1037 -0.5562
   65CHL1   C27 7287   1.949   2.233  40.677 -0.6837  0.2882 -0.1921
   65CHL1  H27A 7288   1.928   2.197  40.780 -1.6986 -0.3309 -0.6102
   65CHL1  H27B 7289   1.964   2.151  40.604  0.3095 -0.5206  0.8807
   65CHL1  H27C 7290   2.046   2.283  40.699  0.1462 -1.9079  1.4845
   66CHL1    C3 7291   0.492   1.682  33.774 -1.3941  0.0386 -0.1404
   66CHL1    H3 7292   0.458   1.577  33.768 -1.3703  0.0992 -1.5818
   66CHL1    O3 7293   0.611   1.688  33.854 -0.4263  0.1136  0.5058
   66CHL1   H3' 7294   0.686   1.658  33.803  1.4180  2.1634  1.8560
   66CHL1    C4 7295   0.533   1.731  33.638 -0.0792  0.0429  0.3125
   66CHL1   H4A 7296   0.575   1.833  33.647  3.0324 -1.1489  0.3147
   66CHL1   H4B 7297   0.617   1.670  33.600 -0.3328 -0.1913  0.1203
   66CHL1    C5 7298   0.415   1.721  33.545  0.3734  0.8666 -0.1104
   66CHL1    C6 7299   0.419   1.656  33.429 -0.9951  0.4430  0.8445
   66CHL1    H6 7300   0.510   1.613  33.385 -1.1357  2.2780 -1.4511
   66CHL1    C7 7301   0.311   1.651  33.324 -0.0638  0.9165 -0.3790
   66CHL1   H7A 7302   0.357   1.669  33.224 -0.4901  2.7932 -0.2709
   66CHL1   H7B 7303   0.266   1.550  33.323  0.7828  0.4496  2.0231
   66CHL1    C8 7304   0.202   1.755  33.353  0.2773 -0.8835 -0.4855
   66CHL1    H8 7305   0.242   1.856  33.328 -1.4919  0.7333  2.5974
   66CHL1   C14 7306   0.074   1.729  33.270 -0.3272 -0.3392  0.7296
   66CHL1   H14 7307   0.034   1.638  33.319  0.3399 -0.7132  0.5818
   66CHL1   C15 7308   0.080   1.713  33.115 -0.9814  0.0933  0.2492
   66CHL1  H15A 7309   0.146   1.790  33.071 -0.3335  0.5009  1.8681
   66CHL1  H15B 7310   0.135   1.622  33.082  0.6788  1.1614 -0.0637
   66CHL1   C16 7311  -0.063   1.716  33.069 -0.3687 -0.0836  0.4290
   66CHL1  H16A 7312  -0.081   1.790  32.988 -0.0527 -0.8712 -0.3770
   66CHL1  H16B 7313  -0.090   1.615  33.033  0.8947 -0.1006 -0.5464
   66CHL1   C17 7314  -0.153   1.766  33.188  0.0891 -0.3016 -0.4286
   66CHL1   H17 7315  -0.185   1.670  33.233  1.2370 -1.0529 -1.1335
   66CHL1   C13 7316  -0.045   1.825  33.284  0.8336  0.3176  0.3998
   66CHL1   C18 7317  -0.012   1.967  33.231 -0.3101 -0.4031  0.5398
   66CHL1  H18A 7318   0.028   1.969  33.127  0.6691 -2.6115  0.8296
   66CHL1  H18B 7319  -0.095   2.041  33.237  0.5083  0.4417  2.3131
   66CHL1  H18C 7320   0.074   2.002  33.292  1.0901 -0.6810 -1.1770
   66CHL1   C12 7321  -0.079   1.825  33.437  0.1593  0.4771  0.5437
   66CHL1  H12A 7322  -0.160   1.893  33.470 -0.3516  0.1647 -0.0524
   66CHL1  H12B 7323  -0.118   1.724  33.463  0.7434  0.6724  2.2749
   66CHL1   C11 7324   0.044   1.859  33.522  0.2821 -0.1400  0.5182
   66CHL1  H11A 7325   0.067   1.966  33.500  1.6110 -0.3420  0.8770
   66CHL1  H11B 7326   0.008   1.862  33.627  1.0677  0.8508  0.7738
   66CHL1    C9 7327   0.166   1.765  33.500 -0.7612  0.1322 -0.4103
   66CHL1    H9 7328   0.137   1.665  33.539  1.2113  0.3238  1.7509
   66CHL1   C10 7329   0.293   1.796  33.588  0.4099 -0.8074  0.0085
   66CHL1   C19 7330   0.341   1.950  33.569  0.0530  0.6619  0.1549
   66CHL1  H19A 7331   0.420   1.962  33.647  1.1248 -0.9438 -0.6478
   66CHL1  H19B 7332   0.379   1.977  33.468  1.0206 -2.0911 -0.2878
   66CHL1  H19C 7333   0.263   2.027  33.590 -1.2273 -0.4864 -0.2842
   66CHL1    C1 7334   0.257   1.765  33.731 -0.0279 -0.6604  0.2010
   66CHL1   H1A 7335   0.179   1.833  33.773  1.3145  1.8178 -1.0728
   66CHL1   H1B 7336   0.219   1.663  33.749  2.2581 -1.1287  3.2871
   66CHL1    C2 7337   0.378   1.767  33.834  0.1868  0.5427 -0.3827
   66CHL1   H2A 7338   0.346   1.710  33.924  0.3127  0.2962 -0.4936
   66CHL1   H2B 7339   0.404   1.872  33.859 -2.3626  1.5239 -1.5867
   66CHL1   C20 7340  -0.288   1.834  33.153  0.8772  0.4879  0.0408
   66CHL1   H20 7341  -0.272   1.935  33.110 -0.6794  0.8619  0.2671
   66CHL1   C21 7342  -0.380   1.836  33.278 -0.9225  0.2124  0.2365
   66CHL1  H21A 7343  -0.382   1.732  33.315  0.6645  0.3290  0.7274
   66CHL1  H21B 7344  -0.484   1.871  33.259 -0.5553  0.6925 -1.0468
   66CHL1  H21C 7345  -0.334   1.907  33.351 -0.0359  0.5959 -0.6602
   66CHL1   C22 7346  -0.364   1.752  33.045 -0.3507 -0.6588  0.3741
   66CHL1  H22A 7347  -0.456   1.812  33.026 -0.2523 -0.5660  0.1907
   66CHL1  H22B 7348  -0.302   1.762  32.954 -1.2086 -0.7883 -0.2341
   66CHL1   C23 7349  -0.383   1.605  33.064  0.3086  0.2180 -0.2914
   66CHL1  H23A 7350  -0.287   1.560  33.098  0.4887  1.2208  0.5785
   66CHL1  H23B 7351  -0.472   1.585  33.127 -1.0913  1.0730 -1.9294
   66CHL1   C24 7352  -0.410   1.533  32.931  0.2904 -0.2592 -0.0659
   66CHL1  H24A 7353  -0.338   1.563  32.851 -2.0190  0.4132 -2.0153
   66CHL1  H24B 7354  -0.412   1.422  32.940 -0.9126 -0.2817 -0.4930
   66CHL1   C25 7355  -0.538   1.569  32.858 -0.4589 -0.3766  0.5461
   66CHL1   H25 7356  -0.516   1.668  32.812  0.7725  0.3117  2.4832
   66CHL1   C26 7357  -0.550   1.476  32.735  0.3046 -0.7298 -0.2542
   66CHL1  H26A 7358  -0.569   1.372  32.768  2.2798 -0.3885  2.2587
   66CHL1  H26B 7359  -0.636   1.516  32.677  0.3804 -0.2188 -0.0156
   66CHL1  H26C 7360  -0.460   1.495  32.672  1.1685  0.7170  1.3194
   66CHL1   C27 7361  -0.671   1.572  32.938  0.2784 -0.0359  0.5171
   66CHL1  H27A 7362  -0.751   1.614  32.874 -1.2147 -0.8181  1.7826
   66CHL1  H27B 7363  -0.695   1.466  32.962 -2.4235  0.6153  1.0412
   66CHL1  H27C 7364  -0.654   1.643  33.022 -1.3205  2.2704 -0.9906
   67CHL1    C3 7365   1.149   0.387  42.042 -0.0200 -0.2754  0.6248
   67CHL1    H3 7366   1.219   0.469  42.017  2.0789 -1.6620  1.6454
   67CHL1    O3 7367   1.138   0.390  42.181  0.3299 -0.1445  0.1597
   67CHL1   H3' 7368   1.061   0.445  42.200  0.5609  0.6727 -1.1493
   67CHL1    C4 7369   1.016   0.394  41.969  0.7960 -0.3220 -0.2058
   67CHL1   H4A 7370   0.956   0.311  42.012  3.3983 -2.3117 -0.1408
   67CHL1   H4B 7371   0.960   0.485  41.998 -0.8459 -1.0519 -0.9478
   67CHL1    C5 7372   1.010   0.378  41.813  0.5712 -0.5817 -0.3430
   67CHL1    C6 7373   0.947   0.471  41.732 -0.0002 -0.8386  0.1284
   67CHL1    H6 7374   0.891   0.556  41.773  4.8331  3.4849 -1.0905
   67CHL1    C7 7375   0.949   0.464  41.584 -0.1135 -0.6365  0.4292
   67CHL1   H7A 7376   0.850   0.489  41.539  1.3182  2.7328 -1.1603
   67CHL1   H7B 7377   1.013   0.543  41.540 -0.3579 -0.2470  0.7708
   67CHL1    C8 7378   1.005   0.329  41.534 -0.2755  0.4070 -0.4006
   67CHL1    H8 7379   0.931   0.250  41.560  0.4069 -0.3266 -0.6207
   67CHL1   C14 7380   1.032   0.331  41.386  0.6881  0.1277 -0.2200
   67CHL1   H14 7381   1.106   0.412  41.373 -0.0507  0.7660 -0.5583
   67CHL1   C15 7382   0.911   0.377  41.306 -0.1459  0.1721  0.2938
   67CHL1  H15A 7383   0.817   0.330  41.343 -0.3275 -0.0396 -0.4136
   67CHL1  H15B 7384   0.907   0.487  41.317  2.1316  0.3847 -0.4942
   67CHL1   C16 7385   0.942   0.320  41.164 -0.2767  0.9253  0.1562
   67CHL1  H16A 7386   0.851   0.263  41.134  1.1899 -0.3383 -2.2800
   67CHL1  H16B 7387   0.969   0.401  41.093  1.0089  1.0605  0.7684
   67CHL1   C17 7388   1.073   0.233  41.179 -0.1683  0.0564  0.2716
   67CHL1   H17 7389   1.153   0.309  41.168 -1.4662  1.4645  0.1202
   67CHL1   C13 7390   1.081   0.201  41.333 -0.2174  0.3026  0.1462
   67CHL1   C18 7391   0.984   0.084  41.361  0.2516 -0.4727 -0.1963
   67CHL1  H18A 7392   1.038  -0.008  41.329  4.2184  1.5301  0.1489
   67CHL1  H18B 7393   0.965   0.063  41.469  2.1693 -0.4862  0.1815
   67CHL1  H18C 7394   0.888   0.099  41.307  0.5659 -0.5878 -0.7903
   67CHL1   C12 7395   1.223   0.178  41.390 -0.9002 -0.1858 -0.1582
   67CHL1  H12A 7396   1.266   0.089  41.338  1.8890  0.3494  1.0266
   67CHL1  H12B 7397   1.288   0.266  41.373  0.7222 -0.7780  2.2747
   67CHL1   C11 7398   1.213   0.159  41.545  0.5211  0.0265 -0.4223
   67CHL1  H11A 7399   1.160   0.063  41.563 -1.1033  0.7863 -1.0336
   67CHL1  H11B 7400   1.320   0.158  41.577  0.2509 -0.4219  0.5095
   67CHL1    C9 7401   1.138   0.289  41.609 -0.3392  0.4602 -0.5593
   67CHL1    H9 7402   1.206   0.376  41.595 -0.3432  0.6136  0.3053
   67CHL1   C10 7403   1.106   0.267  41.762  0.4477  0.4343  0.7474
   67CHL1   C19 7404   1.043   0.121  41.792  0.7571 -0.4227  0.8057
   67CHL1  H19A 7405   1.115   0.037  41.802 -2.0122 -2.9916  0.8093
   67CHL1  H19B 7406   0.986   0.109  41.886 -1.8251  0.9155 -0.4736
   67CHL1  H19C 7407   0.977   0.084  41.711  1.5731  1.1487 -0.6430
   67CHL1    C1 7408   1.240   0.274  41.844  0.1085 -0.2425 -0.7561
   67CHL1   H1A 7409   1.312   0.195  41.815  0.5442  0.4650 -1.6658
   67CHL1   H1B 7410   1.292   0.369  41.819  1.7106 -0.7829  0.4200
   67CHL1    C2 7411   1.225   0.264  41.996  0.2344 -0.6633 -0.2819
   67CHL1   H2A 7412   1.328   0.264  42.038  0.2896  0.9778 -0.3570
   67CHL1   H2B 7413   1.175   0.166  42.012  0.3270 -0.7313 -0.4072
   67CHL1   C20 7414   1.089   0.113  41.081  0.5064 -0.1161  0.3100
   67CHL1   H20 7415   1.081   0.014  41.131  0.3950  0.4983  1.5479
   67CHL1   C21 7416   1.232   0.127  41.037 -0.7378 -0.1367  0.1902
   67CHL1  H21A 7417   1.295   0.137  41.128  0.1993 -1.0666 -0.3221
   67CHL1  H21B 7418   1.239   0.215  40.970  1.9234  0.4960  1.1832
   67CHL1  H21C 7419   1.269   0.035  40.985  1.9163  1.6682 -1.3896
   67CHL1   C22 7420   0.993   0.119  40.959 -0.2303  0.2936  0.2710
   67CHL1  H22A 7421   0.887   0.140  40.989  0.0927  2.3257  0.1415
   67CHL1  H22B 7422   1.023   0.196  40.885 -1.4018 -1.5659 -2.2899
   67CHL1   C23 7423   0.969  -0.013  40.886  0.0696 -0.1194  0.3098
   67CHL1  H23A 7424   1.049  -0.031  40.810 -1.5871 -0.8990 -1.3300
   67CHL1  H23B 7425   0.974  -0.094  40.961  0.5567  0.1279  0.5505
   67CHL1   C24 7426   0.829  -0.012  40.827  0.4284  1.3482  0.2312
   67CHL1  H24A 7427   0.790  -0.110  40.791 -1.3732  0.6929  3.6039
   67CHL1  H24B 7428   0.768   0.013  40.916 -0.0860 -0.2197  0.3422
   67CHL1   C25 7429   0.791   0.094  40.729  0.3372 -0.3530  0.1598
   67CHL1   H25 7430   0.819   0.186  40.786 -0.6080 -0.6886  1.1922
   67CHL1   C26 7431   0.879   0.095  40.602 -0.6368 -1.0512  1.3858
   67CHL1  H26A 7432   0.875   0.201  40.569 -0.2066 -0.9113  1.7789
   67CHL1  H26B 7433   0.983   0.071  40.634 -0.3363 -1.1250  0.3916
   67CHL1  H26C 7434   0.848   0.028  40.519  1.2643 -0.5989  0.2440
   67CHL1   C27 7435   0.640   0.095  40.684  0.1851 -0.8227 -0.4141
   67CHL1  H27A 7436   0.625   0.189  40.626 -1.7487 -0.4912  0.5399
   67CHL1  H27B 7437   0.617   0.000  40.631 -0.5520 -1.4950  1.0674
   67CHL1  H27C 7438   0.574   0.099  40.773  0.6977  3.8366  0.0470
   68CHL1    C3 7439   0.754   2.357  39.805 -0.0716 -0.2788  0.4505
   68CHL1    H3 7440   0.755   2.255  39.849 -1.5105 -0.6281 -0.2753
   68CHL1    O3 7441   0.870   2.405  39.734 -0.3672 -0.6482 -0.2884
   68CHL1   H3' 7442   0.879   2.499  39.751 -3.0586  0.0812 -2.2039
   68CHL1    C4 7443   0.643   2.374  39.694  0.1828 -0.0372  0.3454
   68CHL1   H4A 7444   0.656   2.478  39.656  0.5976  0.2619  1.2700
   68CHL1   H4B 7445   0.662   2.308  39.607  0.7141 -1.0987  1.2473
   68CHL1    C5 7446   0.506   2.351  39.746 -0.3142 -0.1219 -1.1594
   68CHL1    C6 7447   0.424   2.258  39.685 -0.8256  0.0855  0.3589
   68CHL1    H6 7448   0.454   2.195  39.600  1.4200 -1.3608  2.0999
   68CHL1    C7 7449   0.280   2.247  39.731 -0.5106  0.4975 -0.2888
   68CHL1   H7A 7450   0.218   2.239  39.639  0.4236  2.7158 -1.1865
   68CHL1   H7B 7451   0.270   2.157  39.795 -1.7292  0.9356  0.1590
   68CHL1    C8 7452   0.230   2.374  39.812 -0.5868  0.1425  0.4724
   68CHL1    H8 7453   0.213   2.455  39.738 -1.2055  0.8817  1.4015
   68CHL1   C14 7454   0.099   2.342  39.876 -0.4239 -0.4226  0.0661
   68CHL1   H14 7455   0.123   2.250  39.933 -0.5842 -0.9754 -0.7387
   68CHL1   C15 7456  -0.012   2.298  39.776 -0.4026 -0.3594 -0.2945
   68CHL1  H15A 7457  -0.024   2.349  39.678  0.0004  0.5122  0.1024
   68CHL1  H15B 7458  -0.002   2.190  39.753 -1.7956 -0.3303 -1.1403
   68CHL1   C16 7459  -0.132   2.304  39.871 -0.2122 -0.5315  0.0854
   68CHL1  H16A 7460  -0.207   2.363  39.814 -2.1716  0.6423  3.5693
   68CHL1  H16B 7461  -0.174   2.205  39.897 -2.2521  0.5656  1.3540
   68CHL1   C17 7462  -0.095   2.381  40.001  0.1226  0.2101  0.3035
   68CHL1   H17 7463  -0.063   2.309  40.079 -0.6791 -1.0061 -0.4609
   68CHL1   C13 7464   0.038   2.449  39.961 -0.1252  0.6134 -0.3655
   68CHL1   C18 7465  -0.003   2.578  39.879  0.9080 -0.3245  0.5618
   68CHL1  H18A 7466   0.063   2.584  39.790  0.0419 -1.7109 -0.2167
   68CHL1  H18B 7467  -0.108   2.573  39.843  0.2815  2.0182  1.8317
   68CHL1  H18C 7468  -0.000   2.672  39.938  0.4323  0.0126  0.0531
   68CHL1   C12 7469   0.134   2.480  40.070  0.2841 -0.1859  0.5252
   68CHL1  H12A 7470   0.103   2.560  40.140 -0.5331  1.3958 -1.5409
   68CHL1  H12B 7471   0.160   2.388  40.128  0.6997  0.9279  2.1922
   68CHL1   C11 7472   0.267   2.532  40.008  1.0590  0.0428 -0.4809
   68CHL1  H11A 7473   0.231   2.625  39.958 -1.4268 -0.0531  0.9618
   68CHL1  H11B 7474   0.343   2.554  40.086  5.5319 -1.7780 -3.8624
   68CHL1    C9 7475   0.326   2.420  39.916 -0.4403  0.2212 -0.1439
   68CHL1    H9 7476   0.341   2.331  39.981  0.4278  0.0815 -0.5277
   68CHL1   C10 7477   0.470   2.451  39.860  0.5086 -0.0419 -0.0660
   68CHL1   C19 7478   0.470   2.595  39.809  0.3406 -0.0680  0.0392
   68CHL1  H19A 7479   0.567   2.620  39.761  0.5179  0.8378  0.8297
   68CHL1  H19B 7480   0.390   2.609  39.733  0.0025 -0.0621  0.3910
   68CHL1  H19C 7481   0.448   2.666  39.892  0.3663 -2.6531  2.4149
   68CHL1    C1 7482   0.579   2.449  39.974 -0.5155  0.2237  0.1614
   68CHL1   H1A 7483   0.552   2.536  40.037  0.6708  1.3627 -0.8417
   68CHL1   H1B 7484   0.575   2.350  40.024  0.9338  0.3383  0.5571
   68CHL1    C2 7485   0.719   2.461  39.916  0.2179  0.5827  0.4093
   68CHL1   H2A 7486   0.779   2.440  40.007 -0.8404  2.4887  1.6348
   68CHL1   H2B 7487   0.740   2.567  39.887  2.5013  0.4639  1.3665
   68CHL1   C20 7488  -0.194   2.475  40.073 -0.4104  0.8328  0.1484
   68CHL1   H20 7489  -0.176   2.582  40.049  3.5402  0.0231 -1.2625
   68CHL1   C21 7490  -0.166   2.481  40.233 -0.6172 -0.1143  0.8780
   68CHL1  H21A 7491  -0.067   2.520  40.267 -0.0020 -1.3525  0.5448
   68CHL1  H21B 7492  -0.182   2.384  40.285 -2.1105  0.5485  1.7106
   68CHL1  H21C 7493  -0.246   2.549  40.270 -1.9462 -0.0079 -1.9433
   68CHL1   C22 7494  -0.339   2.437  40.037 -0.1323  0.2001  0.4474
   68CHL1  H22A 7495  -0.352   2.446  39.927  1.8956  1.3052  0.2517
   68CHL1  H22B 7496  -0.371   2.336  40.072 -0.6195  0.1884 -0.0184
   68CHL1   C23 7497  -0.434   2.547  40.085 -0.2703  0.2728 -0.4345
   68CHL1  H23A 7498  -0.451   2.558  40.194 -0.8844 -1.0458 -0.3786
   68CHL1  H23B 7499  -0.391   2.643  40.050 -2.6020  1.9431  0.9367
   68CHL1   C24 7500  -0.580   2.514  40.047 -0.2165 -0.0324 -0.0767
   68CHL1  H24A 7501  -0.564   2.474  39.944  2.3769  0.6715  0.0010
   68CHL1  H24B 7502  -0.611   2.432  40.115  0.0766  0.2560  0.4036
   68CHL1   C25 7503  -0.681   2.635  40.054 -0.0275 -0.1751  0.6911
   68CHL1   H25 7504  -0.665   2.705  40.139 -0.8163 -2.0739  2.4811
   68CHL1   C26 7505  -0.675   2.726  39.921  0.1768  0.0568 -0.9404
   68CHL1  H26A 7506  -0.681   2.666  39.828  2.2376 -1.1845 -0.3315
   68CHL1  H26B 7507  -0.754   2.803  39.910  0.1796  0.2664  0.3619
   68CHL1  H26C 7508  -0.577   2.778  39.912  0.9960 -1.3203 -0.2644
   68CHL1   C27 7509  -0.830   2.582  40.066  0.1624 -0.1939  0.6958
   68CHL1  H27A 7510  -0.826   2.494  40.134 -0.4331  1.0147  2.3733
   68CHL1  H27B 7511  -0.889   2.667  40.107 -1.3683 -0.0002 -1.7109
   68CHL1  H27C 7512  -0.875   2.560  39.967  1.1503  1.5417 -0.1880
   69CHL1    C3 7513   2.782   1.089  32.198  0.0163 -0.4017  0.6230
   69CHL1    H3 7514   2.700   1.130  32.135  1.2963  2.0332  0.4179
   69CHL1    O3 7515   2.886   1.031  32.119 -0.4675 -0.2856  0.3461
   69CHL1   H3' 7516   2.949   1.101  32.100 -1.8762  1.3987  1.4874
   69CHL1    C4 7517   2.833   1.210  32.280  0.5838  0.1562  0.2371
   69CHL1   H4A 7518   2.918   1.187  32.347 -0.1318 -0.2954  1.0066
   69CHL1   H4B 7519   2.858   1.283  32.200 -2.3244 -1.4891 -2.3690
   69CHL1    C5 7520   2.729   1.264  32.367  1.0948 -0.6981  0.5690
   69CHL1    C6 7521   2.701   1.397  32.361 -0.1480  0.3998 -0.2389
   69CHL1    H6 7522   2.764   1.459  32.296 -0.5702  1.2329  0.1275
   69CHL1    C7 7523   2.596   1.477  32.440 -0.2167 -0.1148  0.7007
   69CHL1   H7A 7524   2.644   1.564  32.489  0.4340 -1.1969  2.0673
   69CHL1   H7B 7525   2.517   1.514  32.370  0.9448 -1.5795 -1.4997
   69CHL1    C8 7526   2.537   1.392  32.555 -0.0917 -0.4538 -0.1413
   69CHL1    H8 7527   2.608   1.405  32.639 -0.4929  2.3413 -0.1347
   69CHL1   C14 7528   2.408   1.460  32.591  0.2447  0.3299  0.2453
   69CHL1   H14 7529   2.334   1.469  32.508  1.1646 -2.3002 -0.9688
   69CHL1   C15 7530   2.417   1.605  32.650 -0.3485  0.4920 -0.4475
   69CHL1  H15A 7531   2.492   1.616  32.731 -0.8351 -0.2110  0.1071
   69CHL1  H15B 7532   2.446   1.686  32.579  3.4704  1.4345  1.9152
   69CHL1   C16 7533   2.279   1.626  32.721  0.2519 -0.0432  0.4142
   69CHL1  H16A 7534   2.310   1.654  32.824  2.0616 -2.1496  0.5198
   69CHL1  H16B 7535   2.219   1.705  32.671  1.3237 -0.0106 -0.8777
   69CHL1   C17 7536   2.209   1.486  32.715 -0.2095  0.0432  0.6752
   69CHL1   H17 7537   2.151   1.482  32.621  0.2757 -0.5894  0.4015
   69CHL1   C13 7538   2.321   1.387  32.697 -0.1704  0.3068 -0.6958
   69CHL1   C18 7539   2.401   1.375  32.833 -0.1060 -0.2809 -0.4826
   69CHL1  H18A 7540   2.494   1.314  32.827  0.8332  0.9614  0.7897
   69CHL1  H18B 7541   2.433   1.473  32.874 -0.1308 -0.5380  0.1817
   69CHL1  H18C 7542   2.330   1.332  32.908 -0.5071 -1.3754 -1.4656
   69CHL1   C12 7543   2.289   1.253  32.631  0.6190  0.5951  0.1532
   69CHL1  H12A 7544   2.209   1.196  32.683 -0.5308  0.7137 -1.4094
   69CHL1  H12B 7545   2.243   1.274  32.532  0.5293 -1.1374 -0.1986
   69CHL1   C11 7546   2.414   1.175  32.596 -0.4070 -0.0233  0.1402
   69CHL1  H11A 7547   2.468   1.143  32.687  0.2967 -2.1965 -0.9770
   69CHL1  H11B 7548   2.385   1.079  32.548  0.7769 -1.4193  2.0795
   69CHL1    C9 7549   2.512   1.246  32.499  0.3592 -0.1130 -0.4095
   69CHL1    H9 7550   2.457   1.262  32.404 -1.4223  1.2943  0.7912
   69CHL1   C10 7551   2.640   1.178  32.457 -0.4760 -0.1931 -0.1206
   69CHL1   C19 7552   2.728   1.125  32.571 -0.2287 -0.3941  0.2024
   69CHL1  H19A 7553   2.665   1.087  32.654 -0.7497 -1.1967 -0.5469
   69CHL1  H19B 7554   2.801   1.047  32.541  1.1837  0.0862  2.1802
   69CHL1  H19C 7555   2.791   1.210  32.606  0.4743 -0.0218 -1.8015
   69CHL1    C1 7556   2.607   1.056  32.365 -0.3056 -0.0106 -0.0259
   69CHL1   H1A 7557   2.552   0.977  32.421  2.8785 -2.0227  0.5132
   69CHL1   H1B 7558   2.537   1.089  32.285  0.3638 -2.1559 -1.5810
   69CHL1    C2 7559   2.719   0.984  32.287  0.0340  0.2677  0.1800
   69CHL1   H2A 7560   2.671   0.906  32.224  0.3638 -1.1416  1.5864
   69CHL1   H2B 7561   2.799   0.941  32.351 -1.2268 -1.6691  0.5606
   69CHL1   C20 7562   2.103   1.470  32.832 -0.1515  0.1847 -0.4654
   69CHL1   H20 7563   2.149   1.468  32.933 -2.7134  0.1419  0.7561
   69CHL1   C21 7564   2.016   1.343  32.803 -1.0853 -0.1243  0.0794
   69CHL1  H21A 7565   1.994   1.346  32.694  0.5812  2.0742 -0.2706
   69CHL1  H21B 7566   1.920   1.337  32.858 -1.1708  1.6989  0.1846
   69CHL1  H21C 7567   2.075   1.253  32.830 -0.3690  0.2379 -0.2344
   69CHL1   C22 7568   2.013   1.597  32.837 -0.4030 -0.1228 -0.3827
   69CHL1  H22A 7569   2.071   1.691  32.850 -1.4876  0.8257 -1.8972
   69CHL1  H22B 7570   1.966   1.603  32.736  0.1088 -1.3215 -0.7080
   69CHL1   C23 7571   1.926   1.594  32.963 -0.0751  0.8454 -0.6643
   69CHL1  H23A 7572   1.875   1.692  32.950 -0.2551  0.7692 -0.5293
   69CHL1  H23B 7573   1.844   1.520  32.952 -2.2851  2.9065  0.8796
   69CHL1   C24 7574   1.997   1.593  33.099  0.1997  0.4534  0.7052
   69CHL1  H24A 7575   2.042   1.494  33.122  0.9036  0.5922 -0.0354
   69CHL1  H24B 7576   2.072   1.675  33.097  1.8105 -0.8397  3.1563
   69CHL1   C25 7577   1.901   1.612  33.216  0.6552  0.3605  0.1293
   69CHL1   H25 7578   1.859   1.715  33.212  0.1676  0.2102  0.9531
   69CHL1   C26 7579   1.781   1.510  33.220  0.0372 -0.5454  0.4820
   69CHL1  H26A 7580   1.729   1.501  33.122  0.2235  1.1217  0.2015
   69CHL1  H26B 7581   1.817   1.409  33.248  2.4475  0.0317 -0.3023
   69CHL1  H26C 7582   1.698   1.540  33.288  0.8776 -0.1283  1.3382
   69CHL1   C27 7583   1.976   1.607  33.354  0.6845 -0.1385  0.4670
   69CHL1  H27A 7584   1.913   1.661  33.429 -1.0912 -1.5831  0.0923
   69CHL1  H27B 7585   1.987   1.503  33.391 -0.4078 -0.6583 -0.5919
   69CHL1  H27C 7586   2.079   1.643  33.333  1.3091 -0.8595  2.0935
   70CHL1    C3 7587   0.238   3.167  31.058  0.1638 -0.2219 -0.0525
   70CHL1    H3 7588   0.139   3.117  31.055  0.9931 -2.0165  0.6284
   70CHL1    O3 7589   0.260   3.257  30.944  0.0715  0.0378  0.4620
   70CHL1   H3' 7590   0.311   3.203  30.884  0.5311  0.9281  0.0408
   70CHL1    C4 7591   0.259   3.240  31.187 -0.3554 -0.4294  0.4685
   70CHL1   H4A 7592   0.361   3.283  31.195 -0.2368 -0.1641 -1.9564
   70CHL1   H4B 7593   0.183   3.322  31.187 -0.4432 -0.5083  0.0045
   70CHL1    C5 7594   0.244   3.160  31.311 -0.3910 -0.2799  0.5339
   70CHL1    C6 7595   0.157   3.195  31.408  0.4895  0.0955  0.9470
   70CHL1    H6 7596   0.098   3.287  31.396  0.4769  0.0299  0.4864
   70CHL1    C7 7597   0.140   3.118  31.538  0.3607  0.0288 -0.0944
   70CHL1   H7A 7598   0.164   3.181  31.627  1.8006  0.1981 -0.5890
   70CHL1   H7B 7599   0.040   3.070  31.548 -0.5525  1.9089  0.4817
   70CHL1    C8 7600   0.261   3.018  31.554 -0.5836  0.7540 -0.2727
   70CHL1    H8 7601   0.353   3.076  31.577  1.6147 -1.4792 -2.6787
   70CHL1   C14 7602   0.237   2.922  31.666  0.7055  0.3311 -0.0243
   70CHL1   H14 7603   0.142   2.877  31.629  0.3829  1.9065 -1.2246
   70CHL1   C15 7604   0.205   2.979  31.803  0.2813 -0.4177  0.2381
   70CHL1  H15A 7605   0.270   3.065  31.829 -0.1949 -0.1095  0.4077
   70CHL1  H15B 7606   0.099   3.011  31.798 -0.0918 -1.8192 -2.5983
   70CHL1   C16 7607   0.220   2.860  31.896  0.0914  0.5423 -0.1942
   70CHL1  H16A 7608   0.290   2.879  31.981  0.8994  0.9551 -0.9299
   70CHL1  H16B 7609   0.129   2.819  31.945  0.6549  0.8033  1.1204
   70CHL1   C17 7610   0.280   2.744  31.810 -0.2959 -0.5561 -0.5438
   70CHL1   H17 7611   0.194   2.687  31.770 -3.0247  2.9906 -0.1497
   70CHL1   C13 7612   0.343   2.817  31.689 -0.1801  0.7030 -0.2098
   70CHL1   C18 7613   0.476   2.878  31.738  0.3106  0.8041  0.3116
   70CHL1  H18A 7614   0.462   2.936  31.832 -0.2653  0.0634  0.6945
   70CHL1  H18B 7615   0.559   2.805  31.748  1.5323  2.1059  0.0291
   70CHL1  H18C 7616   0.512   2.950  31.662  0.5355  0.2361 -0.1330
   70CHL1   C12 7617   0.361   2.733  31.566  0.0982 -0.2791 -0.0484
   70CHL1  H12A 7618   0.443   2.660  31.580 -1.8082 -2.7183 -0.8680
   70CHL1  H12B 7619   0.274   2.667  31.548  0.0205 -0.5881  1.3418
   70CHL1   C11 7620   0.396   2.832  31.453  0.3736  0.4108  0.0761
   70CHL1  H11A 7621   0.502   2.864  31.468  0.4417 -0.8296  2.5557
   70CHL1  H11B 7622   0.403   2.767  31.363  0.5751  0.6209 -0.0650
   70CHL1    C9 7623   0.296   2.940  31.428  0.4238 -0.3012  0.3948
   70CHL1    H9 7624   0.201   2.896  31.391 -0.1181  0.6006  0.6761
   70CHL1   C10 7625   0.337   3.048  31.318 -0.6972  0.4805 -0.3272
   70CHL1   C19 7626   0.478   3.122  31.347 -0.3173  0.2776 -0.6525
   70CHL1  H19A 7627   0.497   3.165  31.448  0.5267  0.5960 -0.9455
   70CHL1  H19B 7628   0.561   3.048  31.337 -0.2350  0.3198 -0.3011
   70CHL1  H19C 7629   0.514   3.193  31.270  0.9164  0.9655  0.5030
   70CHL1    C1 7630   0.354   2.972  31.177 -0.4240 -0.4182 -1.0841
   70CHL1   H1A 7631   0.447   2.912  31.169  0.3307  0.4349  0.7484
   70CHL1   H1B 7632   0.273   2.896  31.171 -1.6314  0.8253 -0.9441
   70CHL1    C2 7633   0.355   3.061  31.056  0.8952  1.0034 -0.0288
   70CHL1   H2A 7634   0.369   2.990  30.972  0.5361 -1.4070  1.8349
   70CHL1   H2B 7635   0.454   3.111  31.064  0.9640  0.6223  4.2047
   70CHL1   C20 7636   0.359   2.648  31.896  0.0969 -0.0485  0.2717
   70CHL1   H20 7637   0.447   2.699  31.940  1.9321 -1.5748 -1.4030
   70CHL1   C21 7638   0.417   2.533  31.807 -0.5815  0.6519  0.7399
   70CHL1  H21A 7639   0.461   2.464  31.881  1.6356  0.9914 -0.1876
   70CHL1  H21B 7640   0.500   2.576  31.747 -1.0381  0.9526  0.3162
   70CHL1  H21C 7641   0.334   2.488  31.748 -0.8213 -0.0027  1.5545
   70CHL1   C22 7642   0.260   2.595  32.012 -0.7892  0.7441 -0.9067
   70CHL1  H22A 7643   0.228   2.673  32.083 -1.1263 -0.4987  0.3355
   70CHL1  H22B 7644   0.168   2.549  31.972  0.0662 -0.8966 -1.0831
   70CHL1   C23 7645   0.327   2.480  32.099 -0.0383 -0.3581  0.4254
   70CHL1  H23A 7646   0.322   2.387  32.039  2.8716  0.0752 -0.6544
   70CHL1  H23B 7647   0.433   2.499  32.129 -0.1006  0.3992  0.1818
   70CHL1   C24 7648   0.240   2.451  32.216  0.5567 -0.3954 -0.5751
   70CHL1  H24A 7649   0.201   2.533  32.281  1.4847 -0.3450 -0.0670
   70CHL1  H24B 7650   0.148   2.406  32.173 -0.0387 -0.0598  0.3073
   70CHL1   C25 7651   0.288   2.337  32.311 -1.1685  0.3855  0.3102
   70CHL1   H25 7652   0.311   2.258  32.236 -3.0907  0.5051 -0.4740
   70CHL1   C26 7653   0.414   2.357  32.392  0.1073 -0.1076 -0.4502
   70CHL1  H26A 7654   0.401   2.452  32.449 -0.1444 -0.4209  0.0145
   70CHL1  H26B 7655   0.436   2.271  32.458  1.3321  0.0774 -0.5992
   70CHL1  H26C 7656   0.498   2.363  32.319 -1.0768  2.9200 -1.7415
   70CHL1   C27 7657   0.168   2.284  32.396  0.0248 -0.4805  0.4468
   70CHL1  H27A 7658   0.125   2.372  32.448  3.0094  0.6986  1.0967
   70CHL1  H27B 7659   0.087   2.240  32.334 -2.3042  1.2951  2.0586
   70CHL1  H27C 7660   0.210   2.215  32.472 -0.8249 -0.1334  1.2538
   71CHL1    C3 7661   1.645   3.371  28.128 -0.5389  0.1919 -0.3051
   71CHL1    H3 7662   1.641   3.275  28.182  0.0595  1.6839  2.6053
   71CHL1    O3 7663   1.766   3.386  28.062 -0.2502  0.2636 -0.1712
   71CHL1   H3' 7664   1.836   3.380  28.127 -0.4698 -2.3789 -0.0579
   71CHL1    C4 7665   1.533   3.385  28.020 -0.3973 -0.0281 -0.3217
   71CHL1   H4A 7666   1.542   3.474  27.955  0.6372  1.7519  2.1274
   71CHL1   H4B 7667   1.558   3.292  27.965  3.0414 -0.0253  1.0270
   71CHL1    C5 7668   1.398   3.383  28.085  0.6826  0.0758 -0.1347
   71CHL1    C6 7669   1.307   3.289  28.049 -0.3480  0.4269  0.2859
   71CHL1    H6 7670   1.334   3.213  27.975  2.8823  1.0567  0.6837
   71CHL1    C7 7671   1.172   3.265  28.123 -0.0435  0.2383 -0.2383
   71CHL1   H7A 7672   1.092   3.239  28.050 -0.8100 -0.2005  0.7241
   71CHL1   H7B 7673   1.183   3.176  28.188 -1.6488  0.6336  0.6208
   71CHL1    C8 7674   1.136   3.383  28.211  0.2576 -0.3612  0.4227
   71CHL1    H8 7675   1.114   3.470  28.145 -1.7949 -1.2229 -0.1154
   71CHL1   C14 7676   1.017   3.354  28.309 -0.6533 -0.3831  0.2285
   71CHL1   H14 7677   1.060   3.285  28.385  0.8191  0.0804 -0.1504
   71CHL1   C15 7678   0.897   3.280  28.248  0.6789 -0.0418 -0.0785
   71CHL1  H15A 7679   0.883   3.323  28.146  0.4094 -0.5132 -0.2453
   71CHL1  H15B 7680   0.919   3.171  28.252 -1.0441 -0.5337 -2.0298
   71CHL1   C16 7681   0.780   3.321  28.339 -0.0863  0.0233 -0.1237
   71CHL1  H16A 7682   0.698   3.375  28.286 -2.1771 -1.8518  1.0294
   71CHL1  H16B 7683   0.731   3.230  28.381 -1.4993  1.1890  0.9202
   71CHL1   C17 7684   0.846   3.422  28.442 -0.1651 -0.4360 -0.2230
   71CHL1   H17 7685   0.891   3.351  28.514  4.1741  0.7460 -1.4168
   71CHL1   C13 7686   0.973   3.481  28.380 -0.0711  0.5468 -0.0136
   71CHL1   C18 7687   0.933   3.592  28.277 -0.4928 -0.1367  0.3210
   71CHL1  H18A 7688   0.878   3.676  28.325  0.9287 -0.0355  1.8681
   71CHL1  H18B 7689   1.017   3.626  28.214 -2.3599  2.9616 -0.6706
   71CHL1  H18C 7690   0.863   3.544  28.206 -1.0930  2.4641 -0.9547
   71CHL1   C12 7691   1.092   3.516  28.478  0.4729 -0.3459  0.9324
   71CHL1  H12A 7692   1.074   3.620  28.511 -0.7796  0.6230 -2.3995
   71CHL1  H12B 7693   1.112   3.436  28.552 -0.8251 -1.0846  0.5283
   71CHL1   C11 7694   1.219   3.537  28.396 -0.5982 -0.6033  0.4767
   71CHL1  H11A 7695   1.197   3.635  28.349 -0.7122 -0.2792  1.1920
   71CHL1  H11B 7696   1.311   3.543  28.459  0.2899  1.3684 -0.9254
   71CHL1    C9 7697   1.252   3.430  28.287  0.2122 -0.1102 -0.9152
   71CHL1    H9 7698   1.284   3.341  28.344  0.2522  0.8488  0.6048
   71CHL1   C10 7699   1.373   3.477  28.204 -0.0839  0.4293  0.0859
   71CHL1   C19 7700   1.345   3.613  28.142  1.2326 -0.2480  0.2115
   71CHL1  H19A 7701   1.418   3.642  28.063  0.1308 -0.1390 -0.8118
   71CHL1  H19B 7702   1.243   3.634  28.102  1.0198  0.2716  1.0058
   71CHL1  H19C 7703   1.353   3.691  28.221 -1.6652 -1.0488  1.4075
   71CHL1    C1 7704   1.497   3.488  28.300  0.1449  0.8612  0.0201
   71CHL1   H1A 7705   1.482   3.588  28.346 -2.7882 -0.8679  3.2756
   71CHL1   H1B 7706   1.495   3.416  28.384  1.4860  1.8789  0.9687
   71CHL1    C2 7707   1.637   3.485  28.228  0.2044 -0.4959  0.7553
   71CHL1   H2A 7708   1.718   3.467  28.302  0.0037 -1.7149  0.6978
   71CHL1   H2B 7709   1.660   3.578  28.173  2.5929 -1.4000  0.0899
   71CHL1   C20 7710   0.746   3.516  28.511  0.2259 -0.3919  0.4256
   71CHL1   H20 7711   0.713   3.586  28.431  0.1743 -1.8544 -0.8713
   71CHL1   C21 7712   0.815   3.613  28.615  0.8214 -0.7902  0.3248
   71CHL1  H21A 7713   0.885   3.681  28.563 -2.3849  1.3516 -1.5232
   71CHL1  H21B 7714   0.863   3.542  28.687 -0.1851 -1.8936 -0.0646
   71CHL1  H21C 7715   0.744   3.679  28.669  1.6493 -1.1498  1.9243
   71CHL1   C22 7716   0.622   3.444  28.571  0.6018  0.3027  0.5461
   71CHL1  H22A 7717   0.549   3.521  28.604 -1.3969 -0.4002 -1.9427
   71CHL1  H22B 7718   0.580   3.377  28.494  2.6625 -1.1437  0.6030
   71CHL1   C23 7719   0.642   3.363  28.702  0.3356  0.8127  1.0013
   71CHL1  H23A 7720   0.701   3.273  28.671 -2.1917 -0.3078 -0.8589
   71CHL1  H23B 7721   0.712   3.414  28.772  0.6562  0.9916  0.5560
   71CHL1   C24 7722   0.512   3.333  28.776 -1.0903  0.2854  0.6855
   71CHL1  H24A 7723   0.531   3.293  28.877  2.3905  0.6456  0.2772
   71CHL1  H24B 7724   0.457   3.428  28.791 -1.1421  0.3471  0.1456
   71CHL1   C25 7725   0.410   3.251  28.692  0.3629 -0.0773 -0.5030
   71CHL1   H25 7726   0.395   3.310  28.599 -0.1197  0.8596  0.1536
   71CHL1   C26 7727   0.451   3.103  28.662 -0.1326  0.3372  0.3447
   71CHL1  H26A 7728   0.368   3.052  28.607  0.9118  0.1561 -1.1298
   71CHL1  H26B 7729   0.545   3.101  28.602 -0.0445  0.2362  0.4867
   71CHL1  H26C 7730   0.473   3.058  28.761 -0.4117  0.5532  0.5062
   71CHL1   C27 7731   0.272   3.261  28.761  0.4949 -0.1257  0.7742
   71CHL1  H27A 7732   0.190   3.212  28.704  0.3774 -1.9135  2.3784
   71CHL1  H27B 7733   0.267   3.210  28.859 -0.0039  0.5200  1.0927
   71CHL1  H27C 7734   0.255   3.369  28.778 -0.9426 -0.6011  2.6209
   72CHL1    C3 7735   2.740   2.308  23.372 -0.6938 -0.0133  0.0717
   72CHL1    H3 7736   2.710   2.412  23.344 -0.0047  0.3418  0.6125
   72CHL1    O3 7737   2.832   2.250  23.277  0.3241 -0.4389 -0.3394
   72CHL1   H3' 7738   2.913   2.302  23.278  0.8012 -1.1360  2.0009
   72CHL1    C4 7739   2.807   2.316  23.510 -0.2171  0.0846 -0.4798
   72CHL1   H4A 7740   2.839   2.212  23.533 -0.4603  0.2915  0.8485
   72CHL1   H4B 7741   2.895   2.384  23.512  1.2096 -1.6732  0.3804
   72CHL1    C5 7742   2.714   2.356  23.624 -0.0518  0.4991 -0.2547
   72CHL1    C6 7743   2.744   2.457  23.702 -0.7836  0.3665 -0.5396
   72CHL1    H6 7744   2.843   2.502  23.693  0.1849 -1.2052  1.4334
   72CHL1    C7 7745   2.663   2.504  23.820  0.0060 -0.1686  0.0926
   72CHL1   H7A 7746   2.723   2.495  23.913  0.5820  0.0536 -0.2546
   72CHL1   H7B 7747   2.637   2.609  23.796  1.4410 -0.0566 -1.0622
   72CHL1    C8 7748   2.534   2.414  23.846 -0.0064 -0.6320  0.0624
   72CHL1    H8 7749   2.573   2.320  23.890 -0.3787  0.0806  2.0151
   72CHL1   C14 7750   2.435   2.472  23.943  0.7129  0.0815 -0.0285
   72CHL1   H14 7751   2.382   2.553  23.890  0.4558 -1.1438 -1.7060
   72CHL1   C15 7752   2.498   2.521  24.077 -0.7688  0.1056 -0.1901
   72CHL1  H15A 7753   2.578   2.451  24.108  3.0897  4.2703  0.2798
   72CHL1  H15B 7754   2.550   2.618  24.063  1.6581 -0.9950  0.6206
   72CHL1   C16 7755   2.381   2.519  24.182 -0.3524  0.1002  0.3276
   72CHL1  H16A 7756   2.395   2.441  24.260  1.7240  0.5247  0.4364
   72CHL1  H16B 7757   2.372   2.619  24.229  3.2804  0.8850 -0.3207
   72CHL1   C17 7758   2.251   2.463  24.101 -0.9380 -0.5323 -0.1275
   72CHL1   H17 7759   2.212   2.555  24.053  0.7908  0.0782 -0.4279
   72CHL1   C13 7760   2.320   2.376  23.989 -0.5446 -0.5178  0.0799
   72CHL1   C18 7761   2.377   2.244  24.056 -0.6018 -0.3189  0.8039
   72CHL1  H18A 7762   2.435   2.249  24.151 -1.9103 -1.8893  1.7392
   72CHL1  H18B 7763   2.292   2.174  24.068  0.1555 -1.5225 -0.6028
   72CHL1  H18C 7764   2.445   2.199  23.981  0.7398 -0.8302  2.2838
   72CHL1   C12 7765   2.236   2.337  23.864  0.0604 -0.5087 -0.7660
   72CHL1  H12A 7766   2.148   2.269  23.871 -0.4937  0.1950 -0.8138
   72CHL1  H12B 7767   2.197   2.428  23.814 -3.4775 -0.8315  1.0555
   72CHL1   C11 7768   2.331   2.284  23.756  0.1625 -0.5335  0.4497
   72CHL1  H11A 7769   2.351   2.178  23.784  1.6787 -0.3287  0.1894
   72CHL1  H11B 7770   2.268   2.276  23.664 -2.0100 -1.9871  1.9603
   72CHL1    C9 7771   2.469   2.357  23.722 -0.4235 -0.0103  0.5691
   72CHL1    H9 7772   2.434   2.444  23.663 -1.9652 -2.0497 -1.7254
   72CHL1   C10 7773   2.571   2.289  23.627 -0.0775  0.2213 -0.1941
   72CHL1   C19 7774   2.593   2.145  23.666  0.0463  0.0441 -0.6862
   72CHL1  H19A 7775   2.497   2.094  23.642 -0.5262  0.3867  0.8045
   72CHL1  H19B 7776   2.676   2.086  23.620 -0.1698 -0.7914 -0.0410
   72CHL1  H19C 7777   2.605   2.125  23.774 -0.8009 -1.6605 -0.8785
   72CHL1    C1 7778   2.519   2.278  23.482  0.1353 -0.1091  0.1134
   72CHL1   H1A 7779   2.429   2.213  23.480  0.4333 -0.4976 -1.2200
   72CHL1   H1B 7780   2.496   2.379  23.444 -0.6081  0.7673  2.7071
   72CHL1    C2 7781   2.617   2.218  23.375  0.0372  0.2328  0.3300
   72CHL1   H2A 7782   2.573   2.219  23.273 -2.6103  0.1071  1.3755
   72CHL1   H2B 7783   2.641   2.112  23.396 -1.5356  0.1572  2.0959
   72CHL1   C20 7784   2.136   2.405  24.189  0.5365 -0.3827  0.0137
   72CHL1   H20 7785   2.153   2.297  24.208 -0.0904  0.0580  3.7547
   72CHL1   C21 7786   2.001   2.409  24.102 -0.2429 -0.1326  0.3180
   72CHL1  H21A 7787   1.953   2.310  24.087 -0.6793  0.2886 -1.3007
   72CHL1  H21B 7788   2.018   2.452  24.001 -0.7281  1.3818  0.8438
   72CHL1  H21C 7789   1.929   2.482  24.146  1.7059  1.0061  1.7710
   72CHL1   C22 7790   2.129   2.481  24.325  0.5141 -0.1668  0.1537
   72CHL1  H22A 7791   2.224   2.455  24.378 -0.5100 -0.0681  2.1123
   72CHL1  H22B 7792   2.109   2.588  24.304 -0.5047 -0.2628  0.6010
   72CHL1   C23 7793   2.022   2.425  24.424 -0.8809 -0.5602  0.3114
   72CHL1  H23A 7794   1.918   2.435  24.386 -0.1624  2.8836 -1.1730
   72CHL1  H23B 7795   2.058   2.323  24.448  0.7432 -0.2680 -0.7578
   72CHL1   C24 7796   1.999   2.505  24.564 -0.5688  0.2990  0.1709
   72CHL1  H24A 7797   1.905   2.463  24.604  0.5407 -1.4751  1.0630
   72CHL1  H24B 7798   2.083   2.476  24.631 -0.8867  1.3874  1.0699
   72CHL1   C25 7799   1.980   2.653  24.561  0.4769 -0.1145  0.3967
   72CHL1   H25 7800   2.070   2.697  24.514 -0.0317 -0.0174 -0.5096
   72CHL1   C26 7801   1.872   2.685  24.454  0.4618  0.9793 -0.0815
   72CHL1  H26A 7802   1.852   2.794  24.463 -1.6065  0.6013  0.6025
   72CHL1  H26B 7803   1.901   2.660  24.350 -0.4610 -0.0015 -0.1317
   72CHL1  H26C 7804   1.777   2.632  24.478  1.9683 -0.9056  2.1883
   72CHL1   C27 7805   1.956   2.728  24.693 -0.2520  0.1214  0.4988
   72CHL1  H27A 7806   2.033   2.730  24.773  1.1057  2.4116 -0.7635
   72CHL1  H27B 7807   1.934   2.834  24.668 -0.3174  0.0305  0.1680
   72CHL1  H27C 7808   1.868   2.674  24.734 -0.1837 -4.2971 -4.1598
   73CHL1    C3 7809   0.796   0.232  32.718 -0.2500  0.5435  0.2213
   73CHL1    H3 7810   0.798   0.166  32.629  0.8168  1.7358 -0.6607
   73CHL1    O3 7811   0.822   0.155  32.832 -0.1233  0.4752 -0.6975
   73CHL1   H3' 7812   0.823   0.210  32.910  1.0959 -0.8591  0.2968
   73CHL1    C4 7813   0.912   0.327  32.702  0.1099 -0.3684  0.3046
   73CHL1   H4A 7814   0.934   0.388  32.792  0.1968  1.9113 -1.1939
   73CHL1   H4B 7815   1.004   0.266  32.687  0.7198  0.6387 -0.1339
   73CHL1    C5 7816   0.894   0.418  32.583 -0.0624 -0.4164  0.2927
   73CHL1    C6 7817   0.974   0.418  32.478  0.0717  0.8055 -0.3723
   73CHL1    H6 7818   1.051   0.340  32.471 -2.5221 -2.2014  1.6299
   73CHL1    C7 7819   0.959   0.505  32.356  0.5424 -0.0774  0.0568
   73CHL1   H7A 7820   1.061   0.542  32.335  0.5465  0.7869  1.4657
   73CHL1   H7B 7821   0.908   0.452  32.272  1.0940 -1.1887  0.4109
   73CHL1    C8 7822   0.865   0.618  32.381  0.0217  0.8379 -0.2003
   73CHL1    H8 7823   0.913   0.684  32.456  2.2591 -3.3364  2.4493
   73CHL1   C14 7824   0.827   0.676  32.241 -0.1296 -0.6936 -0.0890
   73CHL1   H14 7825   0.757   0.603  32.196 -0.1131 -0.5042 -0.4284
   73CHL1   C15 7826   0.945   0.686  32.140  0.1863 -0.2398 -0.1347
   73CHL1  H15A 7827   1.033   0.713  32.203  1.3811 -0.9320 -1.4429
   73CHL1  H15B 7828   0.975   0.592  32.090  0.1147  0.3089 -1.2295
   73CHL1   C16 7829   0.899   0.802  32.046  0.2657 -0.3354 -0.4676
   73CHL1  H16A 7830   0.971   0.886  32.054  0.5800 -0.7399  1.3784
   73CHL1  H16B 7831   0.911   0.765  31.942  1.4244 -0.1645 -0.4049
   73CHL1   C17 7832   0.755   0.838  32.097  0.4308 -0.4344  0.0796
   73CHL1   H17 7833   0.691   0.765  32.042 -0.5026  1.2587 -1.1689
   73CHL1   C13 7834   0.746   0.808  32.246  0.3870 -0.1443  0.3846
   73CHL1   C18 7835   0.813   0.917  32.337  0.0760 -0.1818 -0.0819
   73CHL1  H18A 7836   0.858   0.872  32.428  2.7504  0.0242 -1.2075
   73CHL1  H18B 7837   0.902   0.962  32.288  0.0480  0.1356  0.1573
   73CHL1  H18C 7838   0.745   1.003  32.354  0.3176  0.0498 -0.2733
   73CHL1   C12 7839   0.615   0.752  32.304 -0.0130 -0.0906 -0.9626
   73CHL1  H12A 7840   0.554   0.842  32.325 -0.6025  0.2117 -3.6061
   73CHL1  H12B 7841   0.574   0.681  32.229 -2.9517 -0.7373  1.0616
   73CHL1   C11 7842   0.636   0.681  32.447  0.3533 -0.2948  0.6985
   73CHL1  H11A 7843   0.662   0.766  32.513  1.1695 -1.8882  2.4961
   73CHL1  H11B 7844   0.542   0.640  32.491  0.4852  1.3265  2.5856
   73CHL1    C9 7845   0.735   0.564  32.444  0.1809  0.0797  0.0957
   73CHL1    H9 7846   0.703   0.484  32.374 -0.7243  0.2245  0.3329
   73CHL1   C10 7847   0.759   0.503  32.592 -0.2278  0.8372 -0.1271
   73CHL1   C19 7848   0.777   0.610  32.700 -0.1317  0.7389  0.0054
   73CHL1  H19A 7849   0.856   0.689  32.693 -0.1657  0.6665 -1.5278
   73CHL1  H19B 7850   0.682   0.667  32.704 -0.5031  0.1335 -0.1081
   73CHL1  H19C 7851   0.785   0.551  32.794 -0.3026  0.8162  0.0699
   73CHL1    C1 7852   0.642   0.403  32.625  0.8040 -0.5789 -0.2983
   73CHL1   H1A 7853   0.552   0.462  32.653  0.1564 -1.2788 -0.8409
   73CHL1   H1B 7854   0.618   0.345  32.533 -3.1611  0.9379 -0.3954
   73CHL1    C2 7855   0.670   0.309  32.734  0.3595  0.0669 -0.7461
   73CHL1   H2A 7856   0.583   0.241  32.744 -0.4427  1.0108 -1.1559
   73CHL1   H2B 7857   0.683   0.363  32.831  2.0283 -0.4127 -0.6765
   73CHL1   C20 7858   0.702   0.976  32.056 -0.2871  0.2418  0.2159
   73CHL1   H20 7859   0.752   1.053  32.118 -2.9998  3.2788 -1.0706
   73CHL1   C21 7860   0.550   0.980  32.069  0.5941 -0.1697  1.3637
   73CHL1  H21A 7861   0.502   0.917  31.990  2.9813  0.0165 -0.3648
   73CHL1  H21B 7862   0.521   1.086  32.056  2.4040  0.0870 -1.6143
   73CHL1  H21C 7863   0.516   0.959  32.173 -0.9369  2.2846  1.4296
   73CHL1   C22 7864   0.740   1.011  31.910 -0.4745 -0.9916 -0.7091
   73CHL1  H22A 7865   0.851   1.005  31.897 -0.2486 -2.9759  1.5450
   73CHL1  H22B 7866   0.684   0.947  31.838 -2.2383  0.5208 -0.7251
   73CHL1   C23 7867   0.719   1.168  31.875 -0.3910  0.0484  0.2959
   73CHL1  H23A 7868   0.616   1.207  31.885 -0.2351  1.2359 -1.9381
   73CHL1  H23B 7869   0.777   1.225  31.950  1.1438  0.5501 -1.2146
   73CHL1   C24 7870   0.779   1.202  31.739  0.4934 -0.4677 -0.0374
   73CHL1  H24A 7871   0.886   1.233  31.749  0.4227  1.3033 -3.3290
   73CHL1  H24B 7872   0.780   1.114  31.671  1.9028 -2.3505  2.2691
   73CHL1   C25 7873   0.701   1.323  31.682 -0.6768 -0.0159 -0.5089
   73CHL1   H25 7874   0.676   1.386  31.770 -0.7658 -0.3016 -0.3292
   73CHL1   C26 7875   0.800   1.387  31.581 -0.1329 -0.7631 -0.2805
   73CHL1  H26A 7876   0.750   1.463  31.517  2.8325  1.6728  0.0611
   73CHL1  H26B 7877   0.883   1.434  31.638  0.9761 -0.1282 -2.3494
   73CHL1  H26C 7878   0.835   1.306  31.515 -1.1865 -0.4376 -1.2701
   73CHL1   C27 7879   0.576   1.279  31.611 -0.0244 -0.0310 -0.7377
   73CHL1  H27A 7880   0.530   1.369  31.567  2.1927  2.6076  1.9300
   73CHL1  H27B 7881   0.600   1.208  31.529  0.0660 -1.9153  0.8147
   73CHL1  H27C 7882   0.505   1.229  31.681  0.6915  0.5079  0.4022
   74CHL1    C3 7883   3.256   2.043  23.283  0.4474 -0.0788 -0.6605
   74CHL1    H3 7884   3.153   2.011  23.310  0.2674  0.7309 -0.3863
   74CHL1    O3 7885   3.278   2.022  23.141 -0.1518  0.0261  0.0299
   74CHL1   H3' 7886   3.336   2.092  23.110 -1.7355  1.0362 -0.7893
   74CHL1    C4 7887   3.271   2.189  23.320  0.0092 -1.0006 -0.9573
   74CHL1   H4A 7888   3.363   2.234  23.276  0.4269  0.0152  0.8661
   74CHL1   H4B 7889   3.181   2.228  23.267 -1.8904 -0.7823  2.2086
   74CHL1    C5 7890   3.267   2.225  23.469  0.4327  0.0717 -0.0082
   74CHL1    C6 7891   3.177   2.314  23.515 -0.0306 -0.2247 -0.5435
   74CHL1    H6 7892   3.109   2.368  23.448 -3.2537 -2.9160  0.2481
   74CHL1    C7 7893   3.159   2.352  23.660  0.5615 -0.0883 -0.1220
   74CHL1   H7A 7894   3.150   2.461  23.681  1.8484 -0.2724  1.6082
   74CHL1   H7B 7895   3.063   2.307  23.692 -0.2403  0.9344 -1.0236
   74CHL1    C8 7896   3.278   2.304  23.745  0.1051 -0.2810  0.2589
   74CHL1    H8 7897   3.355   2.382  23.731 -0.5704  0.2831 -0.3569
   74CHL1   C14 7898   3.238   2.314  23.897 -0.2233 -0.3609  0.0794
   74CHL1   H14 7899   3.143   2.258  23.906 -0.6604  0.2348 -0.7890
   74CHL1   C15 7900   3.196   2.454  23.958  0.1307  0.1968 -0.8603
   74CHL1  H15A 7901   3.260   2.536  23.919 -0.3610  1.1890  0.3590
   74CHL1  H15B 7902   3.090   2.482  23.943  0.5634  1.9354 -0.8547
   74CHL1   C16 7903   3.218   2.434  24.112 -0.3868 -0.6922  0.0530
   74CHL1  H16A 7904   3.291   2.512  24.142 -0.8706 -0.7756  1.5243
   74CHL1  H16B 7905   3.133   2.434  24.184 -0.0819 -1.2317  0.4110
   74CHL1   C17 7906   3.272   2.289  24.125 -0.1819 -0.4947 -0.0781
   74CHL1   H17 7907   3.186   2.218  24.124 -0.2775 -0.4335  1.5187
   74CHL1   C13 7908   3.344   2.264  23.992 -0.3775  0.0216  0.3187
   74CHL1   C18 7909   3.473   2.352  23.981  0.5854 -0.0731  0.0317
   74CHL1  H18A 7910   3.559   2.308  24.036 -1.7747 -1.5321  2.8413
   74CHL1  H18B 7911   3.506   2.357  23.876  2.0187 -0.7936  0.4301
   74CHL1  H18C 7912   3.473   2.454  24.027  3.9234 -1.4488  3.7133
   74CHL1   C12 7913   3.386   2.120  23.955 -0.1232  0.1687 -0.0112
   74CHL1  H12A 7914   3.466   2.080  24.021  0.4993  1.0239 -0.2168
   74CHL1  H12B 7915   3.295   2.057  23.962 -0.1200  0.1593 -0.0477
   74CHL1   C11 7916   3.422   2.107  23.806 -0.0497  0.5225  0.0434
   74CHL1  H11A 7917   3.518   2.163  23.801  0.9134 -1.0222  0.5450
   74CHL1  H11B 7918   3.431   2.001  23.774  0.3710  0.5234  0.1611
   74CHL1    C9 7919   3.318   2.158  23.706 -0.1310 -0.8960 -0.8721
   74CHL1    H9 7920   3.220   2.110  23.728 -0.2839 -0.7530 -1.2392
   74CHL1   C10 7921   3.360   2.142  23.556 -0.2018 -0.6611  0.4263
   74CHL1   C19 7922   3.510   2.190  23.527 -0.2055 -0.6632  0.3453
   74CHL1  H19A 7923   3.525   2.180  23.418 -1.6924 -0.8282  0.1300
   74CHL1  H19B 7924   3.521   2.296  23.557 -0.6363 -0.5043 -0.0423
   74CHL1  H19C 7925   3.581   2.123  23.581  0.6628 -1.2294 -1.4241
   74CHL1    C1 7926   3.350   1.991  23.520  0.3213  0.5143  0.0049
   74CHL1   H1A 7927   3.429   1.936  23.575 -0.0063  2.1779  2.2903
   74CHL1   H1B 7928   3.253   1.955  23.559 -0.1401 -0.8912 -2.2612
   74CHL1    C2 7929   3.362   1.963  23.363 -0.0366  0.3901 -0.8524
   74CHL1   H2A 7930   3.354   1.854  23.342 -0.9021  0.1945  0.4047
   74CHL1   H2B 7931   3.459   2.006  23.330  0.2027  1.3665  0.9790
   74CHL1   C20 7932   3.357   2.257  24.249  0.7955  0.1819  0.6531
   74CHL1   H20 7933   3.444   2.199  24.212  1.9089  0.8404  2.1111
   74CHL1   C21 7934   3.275   2.170  24.347 -0.1605  0.1943 -0.4459
   74CHL1  H21A 7935   3.223   2.085  24.298 -0.3310 -0.6556  1.1303
   74CHL1  H21B 7936   3.196   2.235  24.392 -0.6328  0.6753 -1.9170
   74CHL1  H21C 7937   3.337   2.125  24.428  0.0621 -2.3054 -1.8941
   74CHL1   C22 7938   3.422   2.378  24.316  1.0402  0.2742 -0.1963
   74CHL1  H22A 7939   3.497   2.433  24.256  0.6819  0.4218 -0.5106
   74CHL1  H22B 7940   3.345   2.452  24.346  0.4506 -0.2448 -0.4173
   74CHL1   C23 7941   3.488   2.353  24.448 -0.0360  0.2966 -0.6260
   74CHL1  H23A 7942   3.414   2.344  24.529 -0.1167 -0.6528 -0.7923
   74CHL1  H23B 7943   3.546   2.258  24.451 -0.6393 -0.0565  1.9655
   74CHL1   C24 7944   3.588   2.469  24.478  0.5803 -0.1278  0.8648
   74CHL1  H24A 7945   3.661   2.487  24.396  0.5121 -0.5264  0.7145
   74CHL1  H24B 7946   3.525   2.560  24.492  1.1110  0.4615 -0.4464
   74CHL1   C25 7947   3.661   2.453  24.614 -0.6415  1.1940 -0.2067
   74CHL1   H25 7948   3.746   2.382  24.601 -2.1696 -0.4978 -1.5354
   74CHL1   C26 7949   3.732   2.590  24.632  0.3144  0.0742  0.0854
   74CHL1  H26A 7950   3.670   2.681  24.648  1.5373  1.0210 -0.2908
   74CHL1  H26B 7951   3.790   2.589  24.727 -2.7405  1.5965  2.1384
   74CHL1  H26C 7952   3.799   2.595  24.544 -1.0537  0.7201 -0.9432
   74CHL1   C27 7953   3.580   2.414  24.741 -0.3557  0.4876  1.0418
   74CHL1  H27A 7954   3.547   2.308  24.735 -0.3247  0.5532 -0.4854
   74CHL1  H27B 7955   3.637   2.417  24.837 -1.9407 -2.3988  2.2134
   74CHL1  H27C 7956   3.487   2.474  24.750 -1.1307 -0.7045  1.2283
   75CHL1    C3 7957   2.755   1.691  31.714 -0.2720 -0.3028  0.3103
   75CHL1    H3 7958   2.831   1.763  31.752 -1.4045  0.1081  1.9255
   75CHL1    O3 7959   2.823   1.578  31.659 -0.1704 -0.1580  0.0351
   75CHL1   H3' 7960   2.890   1.621  31.607  0.9153  3.0003  3.6427
   75CHL1    C4 7961   2.672   1.640  31.829  0.3207  0.6989 -0.4496
   75CHL1   H4A 7962   2.600   1.564  31.793  0.9715 -0.0507 -0.1924
   75CHL1   H4B 7963   2.752   1.590  31.888 -1.3027 -2.7191 -0.9273
   75CHL1    C5 7964   2.592   1.750  31.895  0.2049  0.5663  0.0513
   75CHL1    C6 7965   2.589   1.771  32.025 -0.8237 -0.1157 -0.3781
   75CHL1    H6 7966   2.644   1.710  32.097 -3.0442  0.5640  2.0311
   75CHL1    C7 7967   2.494   1.867  32.099 -0.0948  0.3129 -0.3574
   75CHL1   H7A 7968   2.449   1.806  32.180  0.2248 -1.3821 -1.4103
   75CHL1   H7B 7969   2.531   1.963  32.140 -1.4543  0.3893  0.7417
   75CHL1    C8 7970   2.385   1.929  31.996 -0.7901 -0.0534  0.6976
   75CHL1    H8 7971   2.309   1.847  31.995 -0.3320 -0.5573  2.8554
   75CHL1   C14 7972   2.319   2.059  32.047 -0.5430  0.2049  0.0830
   75CHL1   H14 7973   2.408   2.125  32.044  0.7595 -1.3649 -4.8360
   75CHL1   C15 7974   2.281   2.059  32.200  0.2428 -0.1476  1.7683
   75CHL1  H15A 7975   2.255   1.959  32.241 -0.5785  0.0663  1.7827
   75CHL1  H15B 7976   2.373   2.081  32.257  2.1063 -1.2472 -0.6051
   75CHL1   C16 7977   2.174   2.170  32.205 -0.3212 -0.5298  0.7198
   75CHL1  H16A 7978   2.074   2.124  32.221 -0.8673 -0.4384 -1.8724
   75CHL1  H16B 7979   2.187   2.232  32.295 -1.3083  1.7576 -0.6148
   75CHL1   C17 7980   2.164   2.234  32.061 -0.6945  0.4286  0.0661
   75CHL1   H17 7981   2.240   2.313  32.042 -0.4326 -0.3056 -2.2331
   75CHL1   C13 7982   2.204   2.113  31.965  0.7073  0.3881 -0.9802
   75CHL1   C18 7983   2.090   2.005  31.954  0.0154  0.3561 -0.7229
   75CHL1  H18A 7984   2.019   2.039  31.876 -3.2118  0.4862  1.9975
   75CHL1  H18B 7985   2.134   1.907  31.927  1.9625  0.3023  2.2006
   75CHL1  H18C 7986   2.043   2.004  32.055  2.4196 -2.3034  0.5248
   75CHL1   C12 7987   2.264   2.140  31.832 -0.2957  0.6873  0.2135
   75CHL1  H12A 7988   2.178   2.167  31.767 -0.0820 -1.3773 -1.0276
   75CHL1  H12B 7989   2.339   2.221  31.839 -0.0974  0.7247 -1.7156
   75CHL1   C11 7990   2.342   2.016  31.766  0.2492 -0.5294  0.3371
   75CHL1  H11A 7991   2.263   1.953  31.720 -0.8606  0.9816  0.1392
   75CHL1  H11B 7992   2.407   2.063  31.689  1.9348 -0.4474  1.7523
   75CHL1    C9 7993   2.445   1.945  31.852  0.0719 -1.0031  0.4678
   75CHL1    H9 7994   2.526   2.021  31.856 -1.3447  0.6341 -0.6043
   75CHL1   C10 7995   2.500   1.819  31.793 -0.6180  0.0234  0.0905
   75CHL1   C19 7996   2.384   1.728  31.751 -0.4942  0.8988 -0.3333
   75CHL1  H19A 7997   2.329   1.754  31.658  1.1623  1.0034 -1.3350
   75CHL1  H19B 7998   2.426   1.633  31.710 -0.8460  1.0213 -0.9973
   75CHL1  H19C 7999   2.320   1.709  31.839  0.6565  1.2015  0.5931
   75CHL1    C1 8000   2.576   1.863  31.658  0.5039 -0.3911 -0.0785
   75CHL1   H1A 8001   2.504   1.884  31.576  0.7762  1.4586  0.1111
   75CHL1   H1B 8002   2.623   1.962  31.677  2.3033 -0.9607 -1.2275
   75CHL1    C2 8003   2.666   1.753  31.606  0.1792 -1.1159 -0.1924
   75CHL1   H2A 8004   2.733   1.803  31.533  1.3577 -0.7507  1.0965
   75CHL1   H2B 8005   2.602   1.678  31.554 -2.5483  1.1797 -0.3659
   75CHL1   C20 8006   2.025   2.301  32.032 -0.0965  0.0021 -0.0063
   75CHL1   H20 8007   1.947   2.223  32.029 -0.1840 -0.1925  3.3405
   75CHL1   C21 8008   2.023   2.380  31.900 -0.9333  0.0142 -1.1075
   75CHL1  H21A 8009   1.927   2.434  31.887 -1.2803 -0.3497 -0.2132
   75CHL1  H21B 8010   2.030   2.302  31.821 -0.2842 -2.2460  1.0342
   75CHL1  H21C 8011   2.108   2.450  31.891  0.7298 -1.8262 -0.4835
   75CHL1   C22 8012   1.987   2.388  32.149 -0.1991 -0.3929  0.2178
   75CHL1  H22A 8013   1.958   2.311  32.225  0.7135  0.7777  1.8287
   75CHL1  H22B 8014   2.078   2.441  32.183 -1.6390  0.8209  2.4183
   75CHL1   C23 8015   1.872   2.489  32.138  0.3840 -0.6778 -0.1686
   75CHL1  H23A 8016   1.898   2.568  32.065 -0.2774 -0.4157 -0.1293
   75CHL1  H23B 8017   1.789   2.426  32.099  0.7390 -1.2371 -0.0348
   75CHL1   C24 8018   1.847   2.553  32.275 -0.2258 -0.3139  0.0339
   75CHL1  H24A 8019   1.800   2.470  32.331 -1.6307 -0.7395 -1.7024
   75CHL1  H24B 8020   1.935   2.602  32.323 -2.3891  2.4871  1.4499
   75CHL1   C25 8021   1.729   2.658  32.263 -0.6248  0.3391 -0.0255
   75CHL1   H25 8022   1.750   2.725  32.177 -0.4818 -0.4595 -0.6264
   75CHL1   C26 8023   1.583   2.599  32.252 -0.3322  0.1091 -0.3350
   75CHL1  H26A 8024   1.576   2.522  32.332 -0.2552  0.4722  0.0233
   75CHL1  H26B 8025   1.503   2.673  32.273 -0.6662 -0.7627  1.7111
   75CHL1  H26C 8026   1.561   2.544  32.157 -0.3841 -2.0754  0.8734
   75CHL1   C27 8027   1.735   2.752  32.384  0.4203 -0.2127 -0.4512
   75CHL1  H27A 8028   1.659   2.832  32.376 -1.2215 -1.3247  2.3556
   75CHL1  H27B 8029   1.737   2.689  32.476  3.1651  0.9907  0.4106
   75CHL1  H27C 8030   1.830   2.808  32.388  0.4514 -0.2606 -0.5145
   76CHL1    C3 8031   2.283   0.862  31.120  0.1885 -0.4812 -0.7216
   76CHL1    H3 8032   2.217   0.775  31.140  1.6954 -0.6964  5.0803
   76CHL1    O3 8033   2.392   0.817  31.043 -0.0617 -0.2932 -0.3487
   76CHL1   H3' 8034   2.433   0.751  31.100  0.5279  1.5642  1.4902
   76CHL1    C4 8035   2.199   0.969  31.043 -0.6101  0.4770 -0.1809
   76CHL1   H4A 8036   2.276   1.049  31.036 -2.2087  2.2370  1.2568
   76CHL1   H4B 8037   2.173   0.928  30.943  1.7047 -1.7402  0.0151
   76CHL1    C5 8038   2.085   1.001  31.130  0.6800  1.0235 -0.4262
   76CHL1    C6 8039   1.964   0.984  31.088  0.2040 -1.1685 -0.0936
   76CHL1    H6 8040   1.958   0.928  30.994  1.4914 -2.4947  0.5831
   76CHL1    C7 8041   1.847   1.053  31.161  0.4085 -0.1543 -0.3155
   76CHL1   H7A 8042   1.792   1.102  31.078  2.2335  1.0934 -0.8693
   76CHL1   H7B 8043   1.788   0.982  31.223  0.9510  1.7522  2.5776
   76CHL1    C8 8044   1.889   1.166  31.260  1.7321 -0.6454 -0.0592
   76CHL1    H8 8045   1.915   1.256  31.201  0.6812  0.4853  1.1087
   76CHL1   C14 8046   1.771   1.208  31.348  0.2790  0.5566  0.6712
   76CHL1   H14 8047   1.741   1.123  31.412  6.1433 -0.3256  2.8567
   76CHL1   C15 8048   1.652   1.266  31.267 -0.4773 -0.3878  0.1414
   76CHL1  H15A 8049   1.689   1.341  31.194  1.6712 -0.3357  1.1901
   76CHL1  H15B 8050   1.591   1.198  31.205 -1.3097  1.6953 -1.4305
   76CHL1   C16 8051   1.567   1.324  31.383 -0.2785 -0.1756 -0.2193
   76CHL1  H16A 8052   1.505   1.412  31.358 -0.0519  0.1770  0.4295
   76CHL1  H16B 8053   1.486   1.256  31.416 -2.7127  1.1423 -3.0795
   76CHL1   C17 8054   1.665   1.354  31.503 -0.2173 -0.2579  0.0398
   76CHL1   H17 8055   1.652   1.284  31.588  0.6024  1.4686  1.6570
   76CHL1   C13 8056   1.805   1.324  31.447 -1.2878 -0.5701 -0.0129
   76CHL1   C18 8057   1.858   1.451  31.370 -0.2264 -0.0863 -0.1823
   76CHL1  H18A 8058   1.780   1.495  31.303  1.6814  1.5029 -1.4890
   76CHL1  H18B 8059   1.871   1.541  31.434 -0.5617  1.1295 -1.7513
   76CHL1  H18C 8060   1.948   1.432  31.308 -0.9684 -1.3035 -0.9365
   76CHL1   C12 8061   1.902   1.263  31.550 -0.2040  0.5796 -0.1863
   76CHL1  H12A 8062   1.947   1.337  31.620  1.4596 -0.0854 -0.5072
   76CHL1  H12B 8063   1.857   1.178  31.605  0.8523  1.0595  1.4792
   76CHL1   C11 8064   2.026   1.209  31.477 -0.7616 -0.0415  0.1849
   76CHL1  H11A 8065   2.095   1.289  31.443 -0.0815 -0.9364 -0.5845
   76CHL1  H11B 8066   2.086   1.150  31.549 -1.0438  0.8416  1.1711
   76CHL1    C9 8067   1.993   1.111  31.351 -0.0258 -0.1273 -0.2014
   76CHL1    H9 8068   1.944   1.022  31.397  0.5374 -0.0602  0.5500
   76CHL1   C10 8069   2.122   1.068  31.269  0.0196  0.5958 -0.7543
   76CHL1   C19 8070   2.211   1.189  31.238 -0.1590 -0.4280 -0.1600
   76CHL1  H19A 8071   2.302   1.160  31.181  0.2907  2.0335 -0.8201
   76CHL1  H19B 8072   2.154   1.271  31.189  1.2605  1.4141  1.1086
   76CHL1  H19C 8073   2.263   1.227  31.329 -0.8492 -0.3417  0.2019
   76CHL1    C1 8074   2.206   0.962  31.337  0.0257 -0.2164  0.5037
   76CHL1   H1A 8075   2.226   1.017  31.431  0.9114 -1.7301  1.2545
   76CHL1   H1B 8076   2.149   0.877  31.381 -1.7612  0.5926 -0.1746
   76CHL1    C2 8077   2.329   0.912  31.259  0.3609  0.6744  0.3370
   76CHL1   H2A 8078   2.370   0.825  31.314 -2.6382 -0.2776  1.2712
   76CHL1   H2B 8079   2.403   0.992  31.238 -1.1905  2.1437  0.2463
   76CHL1   C20 8080   1.644   1.493  31.566 -0.2888 -0.7187 -0.5138
   76CHL1   H20 8081   1.646   1.566  31.482 -0.4974  0.4756  0.4997
   76CHL1   C21 8082   1.753   1.511  31.669 -0.2332 -0.2799 -0.4746
   76CHL1  H21A 8083   1.737   1.594  31.742 -1.5755 -0.8895 -0.0376
   76CHL1  H21B 8084   1.854   1.530  31.626  0.2202  1.0955  1.0708
   76CHL1  H21C 8085   1.759   1.416  31.726  2.1453  0.3499  0.4388
   76CHL1   C22 8086   1.509   1.507  31.638 -0.2020  0.1011  0.0665
   76CHL1  H22A 8087   1.446   1.493  31.549  1.5392  1.0121 -1.3805
   76CHL1  H22B 8088   1.493   1.422  31.708  2.7558 -1.1858 -0.6509
   76CHL1   C23 8089   1.478   1.637  31.710 -0.2701  0.4175  0.5038
   76CHL1  H23A 8090   1.539   1.642  31.803  1.5832  0.8123 -0.6665
   76CHL1  H23B 8091   1.525   1.720  31.652 -2.1439  0.3340 -1.2372
   76CHL1   C24 8092   1.323   1.659  31.740 -0.7039  0.3506 -1.2885
   76CHL1  H24A 8093   1.258   1.651  31.650  0.1929  0.2810 -1.9466
   76CHL1  H24B 8094   1.306   1.571  31.807  1.3700  1.1075  0.3418
   76CHL1   C25 8095   1.286   1.785  31.817 -0.3489  0.0569  0.2651
   76CHL1   H25 8096   1.343   1.790  31.912  2.0710 -1.2304 -1.0302
   76CHL1   C26 8097   1.318   1.912  31.742  0.0061 -0.0680 -0.3794
   76CHL1  H26A 8098   1.266   1.896  31.645 -0.3411 -1.2412 -0.0039
   76CHL1  H26B 8099   1.277   2.001  31.794 -0.4518 -1.6009  2.0442
   76CHL1  H26C 8100   1.426   1.923  31.718  0.0129  1.3978  0.1954
   76CHL1   C27 8101   1.139   1.789  31.847  0.7235 -0.7261  0.6653
   76CHL1  H27A 8102   1.125   1.697  31.908  1.4570 -2.3198 -1.4583
   76CHL1  H27B 8103   1.107   1.866  31.920  2.2463 -0.4132  1.0499
   76CHL1  H27C 8104   1.078   1.802  31.755  2.3224  1.8399 -0.1651
   77CHL1    C3 8105   2.824   3.313  31.543  0.2062  0.7496 -0.2040
   77CHL1    H3 8106   2.886   3.236  31.596  0.0749 -0.8673 -2.2596
   77CHL1    O3 8107   2.901   3.387  31.449  0.0763  0.1622  0.0452
   77CHL1   H3' 8108   2.893   3.479  31.475 -0.7645  0.6309 -1.7506
   77CHL1    C4 8109   2.720   3.227  31.462  0.0271  0.3552  0.8217
   77CHL1   H4A 8110   2.659   3.298  31.402 -0.1602 -0.8701 -0.4938
   77CHL1   H4B 8111   2.774   3.153  31.400 -2.8068  0.1665 -1.6549
   77CHL1    C5 8112   2.624   3.152  31.551  0.1178 -0.3990 -0.7562
   77CHL1    C6 8113   2.606   3.018  31.549  0.9925 -1.3670 -0.4855
   77CHL1    H6 8114   2.659   2.942  31.490  0.5165 -1.0949 -1.2821
   77CHL1    C7 8115   2.490   2.952  31.622 -0.5566  0.3759 -0.0815
   77CHL1   H7A 8116   2.443   2.876  31.557 -0.1448  1.6375 -1.9376
   77CHL1   H7B 8117   2.528   2.880  31.698 -2.5942 -1.8591 -1.0486
   77CHL1    C8 8118   2.397   3.045  31.685 -0.0642  0.1955 -0.1990
   77CHL1    H8 8119   2.337   3.081  31.598  1.5939 -0.3029 -1.6039
   77CHL1   C14 8120   2.310   2.971  31.783  0.1787 -0.5462 -0.0450
   77CHL1   H14 8121   2.383   2.925  31.854 -3.4499 -2.3520  2.8376
   77CHL1   C15 8122   2.223   2.863  31.719 -0.2358  0.0632  0.3868
   77CHL1  H15A 8123   2.188   2.894  31.618 -3.2161  0.2512  1.3917
   77CHL1  H15B 8124   2.281   2.770  31.705 -0.7943 -0.3254  0.6441
   77CHL1   C16 8125   2.102   2.852  31.811 -1.0851  0.2709 -0.0235
   77CHL1  H16A 8126   2.009   2.874  31.756 -1.8971 -1.8864  0.3904
   77CHL1  H16B 8127   2.095   2.747  31.846  0.3568  0.4232  0.8289
   77CHL1   C17 8128   2.125   2.959  31.926 -0.0329  0.4975 -0.0684
   77CHL1   H17 8129   2.200   2.906  31.990  0.1927 -0.9662 -1.4801
   77CHL1   C13 8130   2.217   3.058  31.863  0.0616 -0.2120  0.5226
   77CHL1   C18 8131   2.135   3.146  31.771  0.4146 -0.9415 -0.1024
   77CHL1  H18A 8132   2.088   3.230  31.826 -0.4185 -0.6258 -1.2710
   77CHL1  H18B 8133   2.187   3.193  31.685 -1.7090  0.2167 -0.8228
   77CHL1  H18C 8134   2.055   3.087  31.722  0.2314 -1.6265  1.0037
   77CHL1   C12 8135   2.306   3.141  31.951  0.4100  0.5487 -0.1691
   77CHL1  H12A 8136   2.241   3.203  32.015  0.4369  2.8748 -2.2459
   77CHL1  H12B 8137   2.361   3.071  32.018 -0.2484  0.5352  0.3558
   77CHL1   C11 8138   2.398   3.234  31.871 -0.9085  0.0774 -0.1625
   77CHL1  H11A 8139   2.341   3.317  31.823 -0.7664  0.4122  0.2405
   77CHL1  H11B 8140   2.468   3.281  31.943 -2.7800  3.4749 -0.3466
   77CHL1    C9 8141   2.476   3.159  31.756  0.5629  0.2428 -0.0937
   77CHL1    H9 8142   2.561   3.116  31.813  2.8300  2.7328 -1.3953
   77CHL1   C10 8143   2.545   3.244  31.647 -0.5242  0.3674  0.6065
   77CHL1   C19 8144   2.452   3.327  31.555  0.8357 -0.4357  0.5525
   77CHL1  H19A 8145   2.508   3.400  31.493  3.1734 -2.2149  0.4509
   77CHL1  H19B 8146   2.382   3.263  31.497  0.0308 -0.6245  1.6971
   77CHL1  H19C 8147   2.393   3.392  31.623  0.6473 -3.5718  3.6937
   77CHL1    C1 8148   2.639   3.340  31.722  0.4366  0.0569  1.1292
   77CHL1   H1A 8149   2.577   3.406  31.787  0.3487  1.5379 -0.3717
   77CHL1   H1B 8150   2.701   3.276  31.788 -0.2212  0.2425  1.9514
   77CHL1    C2 8151   2.751   3.404  31.637  0.1742  0.1039 -0.4019
   77CHL1   H2A 8152   2.835   3.452  31.689  0.1721  1.7632 -1.8321
   77CHL1   H2B 8153   2.705   3.475  31.564 -0.4324 -1.6500 -1.8300
   77CHL1   C20 8154   2.007   3.002  32.015 -0.0875  0.7587 -0.1364
   77CHL1   H20 8155   2.060   3.081  32.071  2.8634 -0.8570 -0.4179
   77CHL1   C21 8156   1.975   2.876  32.112  0.5943 -0.4035 -0.6768
   77CHL1  H21A 8157   1.915   2.903  32.202  0.7988 -0.8500 -0.4046
   77CHL1  H21B 8158   2.068   2.832  32.154  0.2256 -0.2808  0.2934
   77CHL1  H21C 8159   1.925   2.800  32.049  0.2971  0.7491 -1.8887
   77CHL1   C22 8160   1.878   3.038  31.944  0.6171  0.2764  0.2467
   77CHL1  H22A 8161   1.890   3.128  31.880 -0.7690 -1.1590 -2.1803
   77CHL1  H22B 8162   1.842   2.957  31.877 -1.0230  2.0252 -1.1321
   77CHL1   C23 8163   1.763   3.052  32.041 -0.6920 -0.3133  0.4141
   77CHL1  H23A 8164   1.725   2.956  32.083  0.0901 -0.5363  0.6346
   77CHL1  H23B 8165   1.791   3.119  32.125  0.8302 -0.8086  0.3305
   77CHL1   C24 8166   1.641   3.112  31.966 -0.1304  0.0070 -0.2219
   77CHL1  H24A 8167   1.656   3.209  31.914 -1.6617 -0.9011 -2.5362
   77CHL1  H24B 8168   1.609   3.034  31.894 -2.9075 -0.4660  1.3509
   77CHL1   C25 8169   1.513   3.128  32.051 -0.2153 -0.5693 -0.0640
   77CHL1   H25 8170   1.429   3.158  31.986  0.0258 -1.6750 -0.9223
   77CHL1   C26 8171   1.463   2.993  32.114 -0.9889 -0.1620  0.2939
   77CHL1  H26A 8172   1.365   3.016  32.160 -2.4784 -0.8749 -2.3305
   77CHL1  H26B 8173   1.446   2.916  32.036  0.3783  0.3530 -0.5653
   77CHL1  H26C 8174   1.538   2.957  32.188 -1.0323  1.2600  1.0587
   77CHL1   C27 8175   1.528   3.233  32.162 -0.6479 -0.0492 -0.0150
   77CHL1  H27A 8176   1.427   3.249  32.206 -1.2199  2.7783 -2.0564
   77CHL1  H27B 8177   1.599   3.192  32.237 -0.9414  0.6883  0.6829
   77CHL1  H27C 8178   1.563   3.331  32.123  1.7383 -0.6570  0.4658
   78CHL1    C3 8179   2.902   2.121  31.117  0.2253 -0.7477  0.4560
   78CHL1    H3 8180   2.890   2.170  31.018 -0.4667 -0.6465  0.5817
   78CHL1    O3 8181   3.031   2.053  31.103 -0.0804  0.0480 -0.8202
   78CHL1   H3' 8182   3.018   2.004  31.022 -0.2583 -0.5314 -0.4440
   78CHL1    C4 8183   2.908   2.227  31.228 -0.2223 -0.0406  0.2398
   78CHL1   H4A 8184   2.956   2.182  31.318  0.4343  0.5091  0.1764
   78CHL1   H4B 8185   2.981   2.307  31.205 -1.4018  1.2844  0.8790
   78CHL1    C5 8186   2.765   2.292  31.256 -0.1799 -0.4844  0.3009
   78CHL1    C6 8187   2.750   2.427  31.251 -0.5847 -0.4527  0.0195
   78CHL1    H6 8188   2.846   2.480  31.241 -0.3706 -0.6818  0.7595
   78CHL1    C7 8189   2.625   2.497  31.280 -0.5347 -0.3717 -0.0856
   78CHL1   H7A 8190   2.652   2.578  31.351  1.1184 -0.6402 -0.3796
   78CHL1   H7B 8191   2.589   2.537  31.183  0.2530  0.1270 -0.1807
   78CHL1    C8 8192   2.518   2.397  31.336  0.1077  0.8250  0.7074
   78CHL1    H8 8193   2.539   2.368  31.441 -1.7655 -1.1539  0.6173
   78CHL1   C14 8194   2.387   2.473  31.338  0.4757  0.1607  0.1045
   78CHL1   H14 8195   2.371   2.506  31.233  2.0920 -2.2067 -0.9843
   78CHL1   C15 8196   2.373   2.588  31.438  0.0920 -0.4381  0.5059
   78CHL1  H15A 8197   2.417   2.556  31.534  0.8414 -0.5056  0.1474
   78CHL1  H15B 8198   2.398   2.688  31.394 -0.6384 -0.6965 -0.5379
   78CHL1   C16 8199   2.216   2.607  31.461 -0.3602  0.0565 -0.3000
   78CHL1  H16A 8200   2.198   2.609  31.571 -1.8977  1.8926 -0.5189
   78CHL1  H16B 8201   2.186   2.705  31.417  1.8028  2.4378  3.0043
   78CHL1   C17 8202   2.152   2.481  31.386 -0.3260 -1.4089  0.7102
   78CHL1   H17 8203   2.141   2.527  31.285  1.4642  0.0559  1.1133
   78CHL1   C13 8204   2.275   2.381  31.374 -0.1235  0.0838 -0.4203
   78CHL1   C18 8205   2.285   2.312  31.515  0.8717 -0.0086 -0.0578
   78CHL1  H18A 8206   2.374   2.245  31.517  0.5043 -0.5086 -0.3914
   78CHL1  H18B 8207   2.299   2.383  31.599 -0.4765 -0.6589  0.7267
   78CHL1  H18C 8208   2.194   2.250  31.525 -0.3265  1.6102 -0.4303
   78CHL1   C12 8209   2.250   2.261  31.272  0.2374  0.0950  0.3984
   78CHL1  H12A 8210   2.172   2.191  31.307  0.7231 -0.1387  1.0449
   78CHL1  H12B 8211   2.229   2.298  31.170 -1.7176  2.0004  1.4048
   78CHL1   C11 8212   2.384   2.185  31.270  0.8432 -0.3688  0.3396
   78CHL1  H11A 8213   2.384   2.118  31.359  0.1312 -0.1285  0.5348
   78CHL1  H11B 8214   2.378   2.114  31.185  1.6017  1.7384 -1.5597
   78CHL1    C9 8215   2.516   2.265  31.253  0.0563  0.4318 -0.3365
   78CHL1    H9 8216   2.506   2.313  31.153  0.4576  0.4099 -0.3876
   78CHL1   C10 8217   2.643   2.191  31.264 -0.9275 -0.5389  1.1425
   78CHL1   C19 8218   2.674   2.124  31.402 -0.4997  0.5126  0.2972
   78CHL1  H19A 8219   2.623   2.025  31.402 -0.8383  0.6820  0.8019
   78CHL1  H19B 8220   2.782   2.110  31.422 -0.3201  2.9003  1.3816
   78CHL1  H19C 8221   2.620   2.179  31.483 -1.8594 -0.9808  0.4469
   78CHL1    C1 8222   2.657   2.086  31.152  0.6801 -0.1986  0.8615
   78CHL1   H1A 8223   2.586   2.005  31.180 -3.2039  2.5390 -0.1518
   78CHL1   H1B 8224   2.622   2.134  31.058  0.6423  0.3187  1.1385
   78CHL1    C2 8225   2.792   2.016  31.143 -0.0417  0.0309  0.1725
   78CHL1   H2A 8226   2.788   1.943  31.059 -1.9113  0.8995 -0.5547
   78CHL1   H2B 8227   2.810   1.959  31.237 -2.2916  0.4592  0.9376
   78CHL1   C20 8228   2.022   2.439  31.450  0.4038 -0.9571  0.2318
   78CHL1   H20 8229   2.033   2.391  31.549 -1.9634  0.2997  1.1825
   78CHL1   C21 8230   1.961   2.323  31.363 -0.2610 -0.3311 -0.1310
   78CHL1  H21A 8231   1.854   2.354  31.353 -0.0271  0.6170  0.1762
   78CHL1  H21B 8232   1.974   2.224  31.411  0.1195 -1.6354 -2.7814
   78CHL1  H21C 8233   2.008   2.316  31.263  0.3652 -0.2964  0.1536
   78CHL1   C22 8234   1.912   2.550  31.474  0.8342 -0.5692 -0.9013
   78CHL1  H22A 8235   1.959   2.649  31.488 -0.5281  0.1548 -1.3495
   78CHL1  H22B 8236   1.841   2.550  31.389  1.2855  2.4706 -1.3867
   78CHL1   C23 8237   1.836   2.521  31.606 -0.3722 -0.3981 -0.1539
   78CHL1  H23A 8238   1.777   2.427  31.606 -2.4190  0.8195 -1.0749
   78CHL1  H23B 8239   1.918   2.520  31.681 -0.0557 -1.6392 -0.5056
   78CHL1   C24 8240   1.741   2.638  31.637  0.0189  0.1522 -0.1449
   78CHL1  H24A 8241   1.800   2.731  31.652 -0.0934  0.3373 -0.8406
   78CHL1  H24B 8242   1.672   2.653  31.552  0.5380  0.0367 -0.5959
   78CHL1   C25 8243   1.667   2.599  31.763  0.1408  0.1551 -0.2984
   78CHL1   H25 8244   1.727   2.555  31.845 -1.2219 -0.0161  0.6393
   78CHL1   C26 8245   1.590   2.721  31.817  0.7830  0.2470 -0.0981
   78CHL1  H26A 8246   1.513   2.749  31.742 -0.8022 -0.7546  1.0799
   78CHL1  H26B 8247   1.545   2.712  31.918  1.6127  1.7023  0.4307
   78CHL1  H26C 8248   1.656   2.810  31.813  1.8378 -0.4750  0.8438
   78CHL1   C27 8249   1.566   2.491  31.728 -0.3771 -0.0613 -0.1758
   78CHL1  H27A 8250   1.630   2.400  31.715  0.4554  0.5107 -0.1712
   78CHL1  H27B 8251   1.493   2.471  31.809 -1.1004 -1.4159 -1.1149
   78CHL1  H27C 8252   1.526   2.498  31.624  1.2013 -2.9101 -1.1158
   79CHL1    C3 8253   3.371   0.471  31.856 -0.0921 -0.2906  0.9142
   79CHL1    H3 8254   3.474   0.449  31.820 -1.0844 -0.2087 -2.2383
   79CHL1    O3 8255   3.346   0.608  31.844 -0.0656 -0.5293  0.2286
   79CHL1   H3' 8256   3.382   0.643  31.762  1.9578 -0.7129  0.9764
   79CHL1    C4 8257   3.275   0.397  31.765  0.1870 -0.0131  0.7131
   79CHL1   H4A 8258   3.173   0.441  31.764 -0.6513 -1.6400  3.3513
   79CHL1   H4B 8259   3.312   0.410  31.661 -0.7907 -1.5339  0.1397
   79CHL1    C5 8260   3.274   0.248  31.777 -0.0724  1.1414 -0.0094
   79CHL1    C6 8261   3.307   0.164  31.673 -0.1269 -0.2876 -0.1436
   79CHL1    H6 8262   3.318   0.209  31.573  1.4986 -2.4271 -0.9962
   79CHL1    C7 8263   3.289   0.014  31.674 -0.3856 -0.1045 -0.4281
   79CHL1   H7A 8264   3.212  -0.025  31.604 -1.4263  2.4550 -0.8122
   79CHL1   H7B 8265   3.385  -0.035  31.646 -0.8900 -1.3605 -0.0238
   79CHL1    C8 8266   3.234  -0.041  31.808 -0.3938 -1.0207 -0.3127
   79CHL1    H8 8267   3.123  -0.047  31.804 -0.5265  1.1491 -0.6456
   79CHL1   C14 8268   3.284  -0.181  31.818 -0.9937  0.7167  0.4697
   79CHL1   H14 8269   3.395  -0.180  31.821 -0.9817  0.7410  0.0829
   79CHL1   C15 8270   3.261  -0.276  31.703  0.1722  0.0571 -0.0088
   79CHL1  H15A 8271   3.159  -0.253  31.665  0.5369  1.2893 -0.2856
   79CHL1  H15B 8272   3.342  -0.278  31.627  0.3693  0.6472  0.1774
   79CHL1   C16 8273   3.257  -0.411  31.775 -0.5873  0.3042  0.8768
   79CHL1  H16A 8274   3.161  -0.459  31.746 -0.1800 -0.4282  0.6947
   79CHL1  H16B 8275   3.330  -0.473  31.719 -2.2689  0.0990 -1.2224
   79CHL1   C17 8276   3.281  -0.394  31.928  0.5055 -0.4360 -0.2866
   79CHL1   H17 8277   3.389  -0.403  31.950  0.3139  1.2535  1.5869
   79CHL1   C13 8278   3.247  -0.252  31.951  0.3075  0.3441 -0.1575
   79CHL1   C18 8279   3.088  -0.247  31.966  0.1560 -0.0151 -0.0792
   79CHL1  H18A 8280   3.060  -0.295  32.063  4.0896  2.1137  2.3911
   79CHL1  H18B 8281   3.054  -0.142  31.971  2.5746  0.8682 -0.8459
   79CHL1  H18C 8282   3.031  -0.297  31.886  1.0864  0.7850 -1.2729
   79CHL1   C12 8283   3.306  -0.174  32.073  0.1960 -0.0482 -0.4150
   79CHL1  H12A 8284   3.259  -0.209  32.168  1.8677 -4.4736 -1.0042
   79CHL1  H12B 8285   3.415  -0.190  32.084  0.3705  0.2458 -1.6057
   79CHL1   C11 8286   3.266  -0.021  32.064  0.0603 -0.3893 -0.5578
   79CHL1  H11A 8287   3.162  -0.007  32.102  0.0838 -2.3641  0.3176
   79CHL1  H11B 8288   3.328   0.020  32.147 -0.5801 -0.3722 -0.0784
   79CHL1    C9 8289   3.291   0.046  31.925 -0.2798 -0.3571 -0.4539
   79CHL1    H9 8290   3.400   0.032  31.910 -0.5523 -1.2877 -1.8881
   79CHL1   C10 8291   3.256   0.191  31.920 -1.2323 -0.8869 -0.5600
   79CHL1   C19 8292   3.118   0.215  31.974  0.3647  0.1141  0.2533
   79CHL1  H19A 8293   3.108   0.194  32.082  1.7118  0.6288  0.4905
   79CHL1  H19B 8294   3.096   0.324  31.971 -1.9666 -0.3219 -1.6245
   79CHL1  H19C 8295   3.045   0.158  31.912  1.4163 -0.8051 -0.1939
   79CHL1    C1 8296   3.357   0.276  32.013 -0.2640  1.2804 -0.1160
   79CHL1   H1A 8297   3.341   0.238  32.116  1.2324 -1.6069 -0.8325
   79CHL1   H1B 8298   3.459   0.253  31.975 -1.2310 -0.9118 -1.5870
   79CHL1    C2 8299   3.337   0.432  32.006  0.2191 -0.1904  0.1308
   79CHL1   H2A 8300   3.407   0.490  32.071  1.0363  0.4695 -1.3088
   79CHL1   H2B 8301   3.230   0.462  32.019  0.1224 -0.4504 -0.0656
   79CHL1   C20 8302   3.213  -0.500  32.014 -0.0090 -0.3367 -0.2444
   79CHL1   H20 8303   3.103  -0.496  31.998 -0.3805  0.4990  2.1697
   79CHL1   C21 8304   3.235  -0.481  32.165  0.1625  0.1710 -0.6137
   79CHL1  H21A 8305   3.341  -0.456  32.187  0.0359  0.4166 -0.2753
   79CHL1  H21B 8306   3.202  -0.565  32.230  0.5526  0.3975 -0.1160
   79CHL1  H21C 8307   3.184  -0.394  32.211 -0.8948 -0.9234  0.3381
   79CHL1   C22 8308   3.249  -0.647  31.971  0.1441 -0.6494  0.3681
   79CHL1  H22A 8309   3.256  -0.656  31.860  0.0840  1.9178  0.0954
   79CHL1  H22B 8310   3.352  -0.671  32.005  0.5543  1.4669  0.7675
   79CHL1   C23 8311   3.159  -0.756  32.026  0.4684 -0.1743 -0.1565
   79CHL1  H23A 8312   3.113  -0.719  32.120  3.4523 -0.9157  1.7031
   79CHL1  H23B 8313   3.072  -0.776  31.960  0.9791  0.4389 -1.0432
   79CHL1   C24 8314   3.223  -0.887  32.047 -1.0395  0.9130 -0.0226
   79CHL1  H24A 8315   3.272  -0.895  31.948  2.4619  0.4171  1.5969
   79CHL1  H24B 8316   3.308  -0.870  32.117  0.7205 -2.8261 -1.0018
   79CHL1   C25 8317   3.143  -1.020  32.087 -0.8975 -0.7174  0.3295
   79CHL1   H25 8318   3.079  -1.028  31.996 -0.7088  1.5162 -0.0613
   79CHL1   C26 8319   3.246  -1.129  32.088 -0.2792  0.4237 -0.3922
   79CHL1  H26A 8320   3.314  -1.120  32.001  0.5071 -0.3721  0.1295
   79CHL1  H26B 8321   3.309  -1.117  32.178  0.4361  0.8421 -0.9367
   79CHL1  H26C 8322   3.190  -1.225  32.097  1.3051 -0.4492  0.6088
   79CHL1   C27 8323   3.053  -0.988  32.212 -0.4272 -0.3945 -0.9831
   79CHL1  H27A 8324   2.974  -0.912  32.193 -0.5198 -0.3628 -0.4793
   79CHL1  H27B 8325   2.992  -1.080  32.227 -0.3689 -0.3193 -0.2440
   79CHL1  H27C 8326   3.127  -0.979  32.294 -0.1764  1.1708 -1.3561
   80CHL1    C3 8327   3.413   2.644  23.249 -0.2456 -0.7247  0.2670
   80CHL1    H3 8328   3.306   2.620  23.270 -1.0540  0.8644 -1.7190
   80CHL1    O3 8329   3.443   2.617  23.114  0.0271 -0.4667  0.5572
   80CHL1   H3' 8330   3.538   2.602  23.118  0.3382  1.4571  1.2779
   80CHL1    C4 8331   3.430   2.795  23.271 -0.7582 -0.1407 -0.2029
   80CHL1   H4A 8332   3.521   2.831  23.219 -0.1156 -3.0282 -1.3137
   80CHL1   H4B 8333   3.346   2.833  23.210 -1.0315 -0.6030 -0.1190
   80CHL1    C5 8334   3.412   2.815  23.421  0.7264  0.1220  1.2937
   80CHL1    C6 8335   3.325   2.898  23.468  0.8318  0.1852  0.2049
   80CHL1    H6 8336   3.257   2.953  23.402  0.4458  1.7546  1.8195
   80CHL1    C7 8337   3.313   2.943  23.612 -0.0045  0.2058  0.9764
   80CHL1   H7A 8338   3.289   3.051  23.621  0.2986  0.3751 -0.1392
   80CHL1   H7B 8339   3.221   2.899  23.656  0.2790 -3.0603 -1.3444
   80CHL1    C8 8340   3.432   2.896  23.696 -0.2219 -0.5889 -0.1458
   80CHL1    H8 8341   3.514   2.970  23.679 -1.0425  1.0598  2.4150
   80CHL1   C14 8342   3.395   2.907  23.840 -0.5636 -0.6539  0.2364
   80CHL1   H14 8343   3.314   2.832  23.847 -2.6436  1.5285  0.7810
   80CHL1   C15 8344   3.344   3.040  23.887 -0.4903 -0.1890  0.6872
   80CHL1  H15A 8345   3.417   3.118  23.856 -1.9869  1.2055  0.5243
   80CHL1  H15B 8346   3.244   3.068  23.847 -0.5506  0.2962  1.1661
   80CHL1   C16 8347   3.365   3.030  24.042 -0.4105 -0.2363 -0.3267
   80CHL1  H16A 8348   3.432   3.113  24.072  0.9839 -0.2476 -3.1133
   80CHL1  H16B 8349   3.275   3.044  24.105  1.3677  2.4997  1.7994
   80CHL1   C17 8350   3.440   2.901  24.068  0.2684  0.0485  0.7017
   80CHL1   H17 8351   3.358   2.826  24.079 -0.5742  0.7398 -0.5782
   80CHL1   C13 8352   3.513   2.870  23.940 -0.2928 -0.0170 -0.7856
   80CHL1   C18 8353   3.643   2.960  23.932 -0.1356  0.1872  0.0522
   80CHL1  H18A 8354   3.622   3.069  23.927  1.2621  0.4125 -2.6182
   80CHL1  H18B 8355   3.716   2.934  24.011  1.4313  1.9998 -0.6986
   80CHL1  H18C 8356   3.692   2.946  23.833 -0.9854  2.4817 -0.7764
   80CHL1   C12 8357   3.551   2.721  23.916  0.1751 -0.3075  0.6055
   80CHL1  H12A 8358   3.637   2.692  23.979  0.3762 -0.2182  0.3744
   80CHL1  H12B 8359   3.467   2.656  23.949  0.7697 -2.7867 -2.2795
   80CHL1   C11 8360   3.583   2.703  23.767 -0.3836  0.6580 -0.0246
   80CHL1  H11A 8361   3.676   2.763  23.752  1.6531 -2.1801  0.4220
   80CHL1  H11B 8362   3.603   2.595  23.749  0.3811  0.9377 -0.8978
   80CHL1    C9 8363   3.481   2.754  23.663  0.8026  0.1841  0.2787
   80CHL1    H9 8364   3.389   2.692  23.666  2.2279 -2.0228  1.4477
   80CHL1   C10 8365   3.514   2.740  23.512  0.5428 -0.8974 -0.0440
   80CHL1   C19 8366   3.668   2.784  23.497  0.0855  0.2272  0.5426
   80CHL1  H19A 8367   3.699   2.809  23.393 -0.4424  0.3690  0.4138
   80CHL1  H19B 8368   3.679   2.881  23.551  0.2212  0.6386 -0.2074
   80CHL1  H19C 8369   3.741   2.716  23.545  2.1053  1.3413 -0.7976
   80CHL1    C1 8370   3.484   2.587  23.474  0.4887 -0.7401  0.4152
   80CHL1   H1A 8371   3.566   2.540  23.533  1.7632 -0.2420 -0.9271
   80CHL1   H1B 8372   3.383   2.549  23.504 -1.1085  2.7439 -0.0610
   80CHL1    C2 8373   3.505   2.554  23.326 -0.0289  0.4204  0.1196
   80CHL1   H2A 8374   3.469   2.450  23.308  1.0661  0.1845 -0.8126
   80CHL1   H2B 8375   3.613   2.561  23.302  0.8153 -3.5630  1.9365
   80CHL1   C20 8376   3.515   2.906  24.205  0.3258 -0.5783  0.1401
   80CHL1   H20 8377   3.596   2.982  24.202 -0.1296 -0.0091  1.4247
   80CHL1   C21 8378   3.584   2.775  24.239  0.0121  1.0916  0.5455
   80CHL1  H21A 8379   3.674   2.755  24.178  0.7788  1.2564  1.6000
   80CHL1  H21B 8380   3.514   2.693  24.210  1.3888  0.5396 -1.4026
   80CHL1  H21C 8381   3.613   2.744  24.342 -0.1116 -2.0346 -0.2568
   80CHL1   C22 8382   3.422   2.951  24.323 -0.0482  0.0749  0.3957
   80CHL1  H22A 8383   3.488   2.954  24.413  0.1115  1.2530  0.2542
   80CHL1  H22B 8384   3.382   3.053  24.306 -2.2035 -0.8875 -0.6670
   80CHL1   C23 8385   3.314   2.847  24.352  0.6364 -0.7183  0.3334
   80CHL1  H23A 8386   3.256   2.842  24.258  2.1896  0.4347 -0.7486
   80CHL1  H23B 8387   3.363   2.748  24.359  0.9210 -0.5149  1.5549
   80CHL1   C24 8388   3.229   2.880  24.482  0.5606 -0.1822 -0.0939
   80CHL1  H24A 8389   3.286   2.869  24.577 -1.5461 -0.4071  1.2049
   80CHL1  H24B 8390   3.198   2.985  24.462  2.1288  0.3436  0.1318
   80CHL1   C25 8391   3.110   2.783  24.502  0.2789  0.0132  0.5194
   80CHL1   H25 8392   3.038   2.799  24.418 -1.1242 -0.6668  1.5524
   80CHL1   C26 8393   3.153   2.637  24.501 -0.4367  0.2249 -0.1469
   80CHL1  H26A 8394   3.238   2.617  24.570  0.7320 -1.1271 -1.8786
   80CHL1  H26B 8395   3.061   2.587  24.536  0.8305 -2.0311  0.1772
   80CHL1  H26C 8396   3.173   2.591  24.402  0.3291 -1.7959  0.8994
   80CHL1   C27 8397   3.046   2.819  24.640  0.2575  0.0457  0.2579
   80CHL1  H27A 8398   3.100   2.770  24.723  0.1149 -1.3703 -0.4531
   80CHL1  H27B 8399   3.040   2.929  24.653 -0.3763  0.1941 -1.1492
   80CHL1  H27C 8400   2.952   2.759  24.637  0.4112 -0.1553 -1.3258
   81CHL1    C3 8401   0.786   0.099  30.678  0.0145 -0.5911 -0.3177
   81CHL1    H3 8402   0.775  -0.009  30.651  2.8383 -1.6939  2.3089
   81CHL1    O3 8403   0.745   0.184  30.571  0.1246 -0.2431 -0.0755
   81CHL1   H3' 8404   0.659   0.153  30.544 -0.8225  0.0536  2.3027
   81CHL1    C4 8405   0.702   0.127  30.809 -0.1788  0.0150 -0.0464
   81CHL1   H4A 8406   0.679   0.235  30.823 -0.3998 -0.0936  0.4440
   81CHL1   H4B 8407   0.602   0.081  30.793  0.7501 -1.1912 -2.9232
   81CHL1    C5 8408   0.761   0.059  30.933  0.9340 -0.3443 -1.1756
   81CHL1    C6 8409   0.685  -0.028  30.997  0.2369  0.1392 -0.2332
   81CHL1    H6 8410   0.582  -0.051  30.967  0.1010 -0.6123  0.7710
   81CHL1    C7 8411   0.720  -0.094  31.126 -0.2462 -0.5023 -0.1091
   81CHL1   H7A 8412   0.640  -0.081  31.202  0.3376 -0.5970  0.5322
   81CHL1   H7B 8413   0.755  -0.199  31.117 -0.3835 -0.6029  0.5109
   81CHL1    C8 8414   0.843  -0.018  31.184  0.2138 -0.3422 -0.7025
   81CHL1    H8 8415   0.818   0.076  31.237 -0.1630 -0.7204 -0.1916
   81CHL1   C14 8416   0.896  -0.100  31.308  0.2863 -0.2154  0.8231
   81CHL1   H14 8417   0.922  -0.201  31.268  0.4767 -0.4574  1.5359
   81CHL1   C15 8418   0.803  -0.135  31.423 -0.1246 -0.3298 -0.2804
   81CHL1  H15A 8419   0.743  -0.045  31.450  0.4428 -0.6141  2.1613
   81CHL1  H15B 8420   0.730  -0.214  31.395  1.1592 -1.7100  0.1447
   81CHL1   C16 8421   0.897  -0.178  31.536 -0.1867 -0.3596  0.0140
   81CHL1  H16A 8422   0.880  -0.109  31.622  1.3153 -0.4081  0.3707
   81CHL1  H16B 8423   0.878  -0.285  31.559  1.2575 -0.4302  1.0014
   81CHL1   C17 8424   1.042  -0.154  31.482 -0.1739 -0.6534 -0.0317
   81CHL1   H17 8425   1.081  -0.242  31.426  1.4339 -0.1653  0.2626
   81CHL1   C13 8426   1.025  -0.045  31.375 -0.0046  0.3295  0.5586
   81CHL1   C18 8427   0.996   0.096  31.444 -0.3963 -0.5107  0.8172
   81CHL1  H18A 8428   1.088   0.145  31.480 -0.4946  2.8409 -2.7877
   81CHL1  H18B 8429   0.943   0.167  31.376  0.8846  0.2692  0.6074
   81CHL1  H18C 8430   0.926   0.088  31.530 -1.3405  0.5129  0.1743
   81CHL1   C12 8431   1.130  -0.051  31.263  0.6310  0.4177 -0.3593
   81CHL1  H12A 8432   1.229  -0.024  31.306  1.0439 -1.8899  0.2478
   81CHL1  H12B 8433   1.142  -0.154  31.225  0.5782 -0.1078  0.9844
   81CHL1   C11 8434   1.094   0.047  31.148  0.5417  0.6567 -0.3463
   81CHL1  H11A 8435   1.085   0.151  31.184 -1.1793  0.6484 -0.6374
   81CHL1  H11B 8436   1.182   0.045  31.081  0.6767 -4.6879 -0.4253
   81CHL1    C9 8437   0.961   0.006  31.086 -0.5790 -0.0345  0.4269
   81CHL1    H9 8438   0.982  -0.095  31.044  1.1596  1.3877 -2.4344
   81CHL1   C10 8439   0.916   0.093  30.963  0.0926 -0.4654 -0.0733
   81CHL1   C19 8440   0.937   0.247  30.996  0.8828 -0.5564  0.3553
   81CHL1  H19A 8441   1.043   0.279  31.000  0.5638  0.5489  0.3082
   81CHL1  H19B 8442   0.889   0.313  30.920  1.3108 -0.6074  0.0346
   81CHL1  H19C 8443   0.899   0.265  31.099  1.2269 -1.0730  0.5774
   81CHL1    C1 8444   0.997   0.053  30.832 -0.2612 -0.0797  0.0625
   81CHL1   H1A 8445   1.104   0.082  30.842 -0.6288  1.9409 -1.2330
   81CHL1   H1B 8446   0.981  -0.057  30.828 -1.7692  0.1242 -0.2466
   81CHL1    C2 8447   0.938   0.118  30.706 -0.1549 -0.4289  0.3901
   81CHL1   H2A 8448   0.983   0.065  30.620 -0.1777  1.6526 -0.9711
   81CHL1   H2B 8449   0.954   0.228  30.711 -0.8349 -0.3050 -0.1010
   81CHL1   C20 8450   1.144  -0.123  31.586  0.5277  0.4844  0.3781
   81CHL1   H20 8451   1.144  -0.017  31.617  0.1551  0.6638 -0.2172
   81CHL1   C21 8452   1.286  -0.140  31.525  0.6925 -0.0593  0.2448
   81CHL1  H21A 8453   1.317  -0.041  31.486  1.4600 -0.3121  0.1923
   81CHL1  H21B 8454   1.277  -0.215  31.443 -0.0685  2.8503 -2.5191
   81CHL1  H21C 8455   1.350  -0.180  31.606  1.3056 -3.4354 -1.7242
   81CHL1   C22 8456   1.121  -0.195  31.721  0.0486  0.0410  0.3050
   81CHL1  H22A 8457   1.172  -0.148  31.808  0.8744  0.6617 -0.4866
   81CHL1  H22B 8458   1.019  -0.163  31.748  0.3136  0.8146  0.4135
   81CHL1   C23 8459   1.132  -0.344  31.714 -0.8943  0.4415  0.4539
   81CHL1  H23A 8460   1.043  -0.378  31.658 -1.4576  2.2235  0.2080
   81CHL1  H23B 8461   1.230  -0.371  31.668 -1.3626 -1.3866  0.4741
   81CHL1   C24 8462   1.143  -0.414  31.851  0.0731 -0.8350  0.2378
   81CHL1  H24A 8463   1.237  -0.388  31.904 -0.1829  0.0494  0.2656
   81CHL1  H24B 8464   1.060  -0.374  31.912  0.4051  0.8121 -0.3376
   81CHL1   C25 8465   1.112  -0.564  31.849 -0.1392 -0.0733  0.0869
   81CHL1   H25 8466   1.022  -0.581  31.785  0.1002 -0.7025 -0.0820
   81CHL1   C26 8467   1.224  -0.660  31.796  0.2382 -0.2172 -0.5685
   81CHL1  H26A 8468   1.326  -0.631  31.830  0.6486 -0.5659 -1.4813
   81CHL1  H26B 8469   1.200  -0.764  31.826 -0.1737  0.1993  0.6228
   81CHL1  H26C 8470   1.230  -0.646  31.686  1.4248  0.1346 -0.4763
   81CHL1   C27 8471   1.073  -0.605  31.989 -0.1660  0.1394  0.7634
   81CHL1  H27A 8472   0.974  -0.565  32.019 -0.0199  0.2875  1.0555
   81CHL1  H27B 8473   1.061  -0.715  31.997 -1.2499 -0.1962 -3.3240
   81CHL1  H27C 8474   1.152  -0.565  32.056 -0.2627  1.8749 -0.1157
   82CHL1    C3 8475   2.824   0.518  25.473 -0.4711  0.3483  0.3760
   82CHL1    H3 8476   2.884   0.606  25.503 -0.2177  0.9826 -1.7614
   82CHL1    O3 8477   2.762   0.466  25.589  0.3111 -0.1112 -0.2315
   82CHL1   H3' 8478   2.696   0.533  25.608 -0.6603 -0.2392 -2.7816
   82CHL1    C4 8479   2.723   0.544  25.366 -0.0730 -0.0720  0.3936
   82CHL1   H4A 8480   2.665   0.454  25.337  0.5914 -0.9362  1.6877
   82CHL1   H4B 8481   2.652   0.621  25.404  0.9494  1.5790 -0.8647
   82CHL1    C5 8482   2.794   0.606  25.252  0.1546  0.4555 -0.1816
   82CHL1    C6 8483   2.753   0.725  25.213 -0.0324  0.5756 -0.4214
   82CHL1    H6 8484   2.668   0.771  25.264  0.9339  1.1982  0.6938
   82CHL1    C7 8485   2.803   0.803  25.099 -0.3415  0.3085  0.0513
   82CHL1   H7A 8486   2.714   0.835  25.041 -1.6464 -3.6421 -0.4540
   82CHL1   H7B 8487   2.870   0.881  25.141 -0.0389 -0.5263  1.1828
   82CHL1    C8 8488   2.898   0.712  25.008  0.6683 -0.4270  0.0501
   82CHL1    H8 8489   2.827   0.647  24.951 -1.4273  0.3349  1.6420
   82CHL1   C14 8490   2.982   0.800  24.918  0.2632  0.2347 -0.0789
   82CHL1   H14 8491   3.045   0.867  24.981 -0.0174  1.3699 -0.9689
   82CHL1   C15 8492   2.911   0.908  24.824  0.6752 -0.4279 -0.1571
   82CHL1  H15A 8493   2.821   0.863  24.776 -0.0959  1.8517 -0.9863
   82CHL1  H15B 8494   2.892   0.997  24.888  1.0177 -1.4734  1.4447
   82CHL1   C16 8495   3.019   0.932  24.714 -0.3010  0.6758 -0.7515
   82CHL1  H16A 8496   2.975   0.911  24.614 -0.0917 -0.0560 -0.6935
   82CHL1  H16B 8497   3.055   1.037  24.709  0.4521  0.4314 -0.6272
   82CHL1   C17 8498   3.140   0.845  24.758 -0.1354  0.3606  0.2936
   82CHL1   H17 8499   3.199   0.892  24.840  3.3484 -0.3305 -1.6226
   82CHL1   C13 8500   3.087   0.724  24.832 -0.0077  0.5507 -0.1871
   82CHL1   C18 8501   3.030   0.619  24.738 -0.3332  0.0755 -0.3083
   82CHL1  H18A 8502   3.119   0.569  24.696  0.8510  2.0538 -0.2807
   82CHL1  H18B 8503   2.970   0.551  24.802 -0.3205  0.3222 -0.0346
   82CHL1  H18C 8504   2.967   0.671  24.662 -0.1092 -0.6179 -0.9871
   82CHL1   C12 8505   3.190   0.657  24.933  0.1919 -0.0058 -0.0803
   82CHL1  H12A 8506   3.276   0.621  24.874  0.5471  1.7580 -0.7069
   82CHL1  H12B 8507   3.233   0.733  25.002  2.2245 -0.0651 -1.2060
   82CHL1   C11 8508   3.118   0.559  25.022  1.7710  0.1082 -0.1398
   82CHL1  H11A 8509   3.071   0.477  24.962 -1.6701  2.5049 -1.0111
   82CHL1  H11B 8510   3.192   0.518  25.094  0.5179 -0.6398  0.7544
   82CHL1    C9 8511   2.991   0.623  25.096  0.7209  0.3397  0.4906
   82CHL1    H9 8512   3.047   0.700  25.153  1.1399  0.1395  0.3583
   82CHL1   C10 8513   2.919   0.535  25.193  0.6904  0.1916  0.5306
   82CHL1   C19 8514   2.863   0.415  25.102  0.9963  0.4869  0.0290
   82CHL1  H19A 8515   2.770   0.369  25.142  0.6632  1.0093 -0.1367
   82CHL1  H19B 8516   2.835   0.452  25.001  3.5269  0.5789 -0.7115
   82CHL1  H19C 8517   2.936   0.334  25.083  0.3241  0.0960 -0.9839
   82CHL1    C1 8518   3.007   0.484  25.306 -0.0282  0.8238  0.3426
   82CHL1   H1A 8519   3.087   0.412  25.279 -1.3925  0.1047 -2.0300
   82CHL1   H1B 8520   3.055   0.574  25.351 -2.4191  1.7362  1.2603
   82CHL1    C2 8521   2.923   0.414  25.421  0.4889 -0.4963  0.6509
   82CHL1   H2A 8522   2.998   0.380  25.495  0.7398  0.4088  0.8251
   82CHL1   H2B 8523   2.860   0.331  25.382 -1.4347  0.4027  1.6824
   82CHL1   C20 8524   3.247   0.818  24.656 -0.3611  0.8648  0.3961
   82CHL1   H20 8525   3.297   0.722  24.683  1.6168  1.5845 -0.4891
   82CHL1   C21 8526   3.358   0.925  24.671  1.1055 -0.6876  0.0807
   82CHL1  H21A 8527   3.316   1.027  24.655 -0.3183 -1.0834  1.0515
   82CHL1  H21B 8528   3.445   0.908  24.604  0.0278 -0.9408 -1.2907
   82CHL1  H21C 8529   3.386   0.911  24.778 -3.1527 -1.7948  1.2445
   82CHL1   C22 8530   3.204   0.803  24.508 -0.3258  0.5175 -0.3574
   82CHL1  H22A 8531   3.116   0.734  24.507 -1.0440  1.3610  0.8665
   82CHL1  H22B 8532   3.153   0.900  24.487 -0.2280  0.5523 -0.4351
   82CHL1   C23 8533   3.304   0.754  24.396  0.4850 -0.2919  0.3209
   82CHL1  H23A 8534   3.261   0.756  24.294  0.5269  0.6785  0.3065
   82CHL1  H23B 8535   3.377   0.838  24.397  0.2452 -0.0446 -1.3592
   82CHL1   C24 8536   3.363   0.618  24.410 -0.7441 -0.5213  0.8854
   82CHL1  H24A 8537   3.445   0.596  24.339 -2.6430 -0.7878 -1.3647
   82CHL1  H24B 8538   3.417   0.609  24.507  2.0614 -3.3479 -0.7438
   82CHL1   C25 8539   3.262   0.499  24.406 -0.3735  0.6902  0.7196
   82CHL1   H25 8540   3.164   0.532  24.446 -1.3772 -0.0721 -0.9748
   82CHL1   C26 8541   3.234   0.464  24.261 -0.2010 -0.2977 -0.0970
   82CHL1  H26A 8542   3.324   0.426  24.208 -0.8637  0.1882 -1.6189
   82CHL1  H26B 8543   3.166   0.376  24.272  0.3812 -0.5170  2.4570
   82CHL1  H26C 8544   3.186   0.551  24.213  2.8139  1.3888 -0.2972
   82CHL1   C27 8545   3.327   0.375  24.468 -0.6281  0.1861 -0.1236
   82CHL1  H27A 8546   3.349   0.398  24.574 -0.2705  1.5244 -0.4661
   82CHL1  H27B 8547   3.260   0.286  24.467  1.2230 -1.2664  0.6781
   82CHL1  H27C 8548   3.422   0.351  24.416 -0.7605  0.4761 -0.5058
   83CHL1    C3 8549   2.457   1.086  31.775 -0.6675  0.0188 -0.2328
   83CHL1    H3 8550   2.364   1.029  31.752 -0.6810 -0.1945  0.3424
   83CHL1    O3 8551   2.569   1.046  31.698 -0.0856  0.0733 -0.0351
   83CHL1   H3' 8552   2.589   0.960  31.737 -0.9880 -0.3444 -0.4493
   83CHL1    C4 8553   2.437   1.236  31.734  0.3670 -0.2846  0.1451
   83CHL1   H4A 8554   2.527   1.300  31.745  0.0850 -0.1419  1.7688
   83CHL1   H4B 8555   2.426   1.247  31.624 -0.7803  3.5241  0.4910
   83CHL1    C5 8556   2.330   1.304  31.812 -0.0703  0.4190 -0.8628
   83CHL1    C6 8557   2.236   1.367  31.752  0.0779  0.2084  0.4511
   83CHL1    H6 8558   2.242   1.373  31.642  0.8818  2.3200  0.5590
   83CHL1    C7 8559   2.120   1.432  31.825 -0.1728 -0.7568 -0.3908
   83CHL1   H7A 8560   2.090   1.519  31.762  1.0096  0.8202  1.1327
   83CHL1   H7B 8561   2.032   1.366  31.839 -0.9240  0.5036  1.1698
   83CHL1    C8 8562   2.158   1.473  31.970 -0.7492  0.2800 -0.4140
   83CHL1    H8 8563   2.230   1.558  31.970 -0.7100  0.4913  4.0788
   83CHL1   C14 8564   2.042   1.522  32.050  0.6864  0.6765 -0.2063
   83CHL1   H14 8565   1.976   1.433  32.064  1.3017  0.2932  0.2865
   83CHL1   C15 8566   1.957   1.628  31.990 -0.1358  0.0694  0.1525
   83CHL1  H15A 8567   2.035   1.687  31.938 -0.8582  0.6587 -0.2841
   83CHL1  H15B 8568   1.879   1.588  31.922  0.7301  0.0569 -0.8449
   83CHL1   C16 8569   1.881   1.693  32.111 -0.2860 -0.2522  0.2974
   83CHL1  H16A 8570   1.896   1.803  32.106  1.2515 -0.1691  3.7558
   83CHL1  H16B 8571   1.772   1.672  32.102 -0.0615 -1.4153  0.1330
   83CHL1   C17 8572   1.938   1.616  32.238  0.4962 -0.3448  0.1547
   83CHL1   H17 8573   1.881   1.521  32.245 -1.2633  0.6938  0.6885
   83CHL1   C13 8574   2.078   1.566  32.192 -1.0691 -0.0217  0.2150
   83CHL1   C18 8575   2.185   1.675  32.193 -0.6778  0.6215  0.1665
   83CHL1  H18A 8576   2.143   1.763  32.140 -1.1530 -0.1876 -0.8495
   83CHL1  H18B 8577   2.196   1.709  32.298  0.3091 -1.3063  0.7246
   83CHL1  H18C 8578   2.283   1.638  32.157 -0.1844  0.0800  1.9765
   83CHL1   C12 8579   2.138   1.448  32.273 -0.4121  1.0035 -0.4994
   83CHL1  H12A 8580   2.157   1.485  32.376  0.8288 -0.2410 -0.2547
   83CHL1  H12B 8581   2.067   1.365  32.293  0.1509  0.7347  0.4427
   83CHL1   C11 8582   2.255   1.377  32.196  0.3920  0.1749 -0.2375
   83CHL1  H11A 8583   2.350   1.429  32.220  1.0989 -0.7564 -0.9202
   83CHL1  H11B 8584   2.268   1.274  32.234  0.4298  0.3625  0.2642
   83CHL1    C9 8585   2.229   1.353  32.050 -0.2535  0.2322  0.9169
   83CHL1    H9 8586   2.146   1.279  32.048  0.1508 -0.2195 -0.6754
   83CHL1   C10 8587   2.350   1.297  31.966 -0.1864 -0.1429 -0.1884
   83CHL1   C19 8588   2.487   1.372  32.011 -0.0289  0.8214  0.0398
   83CHL1  H19A 8589   2.464   1.481  32.004 -3.7940  0.0970 -0.9049
   83CHL1  H19B 8590   2.516   1.349  32.116  1.7981  1.2901 -0.3264
   83CHL1  H19C 8591   2.575   1.336  31.955 -0.6889 -2.8001  1.0974
   83CHL1    C1 8592   2.372   1.153  32.012  0.1668  0.8560 -0.4037
   83CHL1   H1A 8593   2.401   1.151  32.120 -0.8876 -0.3742 -0.1068
   83CHL1   H1B 8594   2.269   1.111  32.004  1.4310 -2.5613 -0.2490
   83CHL1    C2 8595   2.475   1.074  31.932  0.6234  0.3094  0.4535
   83CHL1   H2A 8596   2.465   0.964  31.946 -0.4869  0.5621  1.9405
   83CHL1   H2B 8597   2.577   1.112  31.951  0.3497  0.4239  1.7719
   83CHL1   C20 8598   1.920   1.693  32.372  0.0955 -0.2482  0.7180
   83CHL1   H20 8599   1.994   1.660  32.448 -0.1929  0.6268  1.4129
   83CHL1   C21 8600   1.774   1.680  32.413  0.4104 -0.0067  0.1061
   83CHL1  H21A 8601   1.733   1.578  32.397 -0.5223  0.0896  1.7061
   83CHL1  H21B 8602   1.726   1.759  32.351  1.6509 -0.3203 -1.3255
   83CHL1  H21C 8603   1.745   1.707  32.516 -0.4857 -0.8104  0.0699
   83CHL1   C22 8604   1.950   1.850  32.371  0.5375  0.1132  0.5319
   83CHL1  H22A 8605   2.056   1.874  32.348  0.3446 -0.1595 -0.7356
   83CHL1  H22B 8606   1.894   1.896  32.287 -0.2317 -1.5810  0.0788
   83CHL1   C23 8607   1.917   1.942  32.496  0.8248  0.0552  0.0570
   83CHL1  H23A 8608   1.807   1.935  32.489  0.6938  0.8654  1.0018
   83CHL1  H23B 8609   1.951   1.903  32.594 -0.0849  0.0864  0.3882
   83CHL1   C24 8610   1.960   2.089  32.482 -0.7552  0.0186 -0.2661
   83CHL1  H24A 8611   2.064   2.080  32.443 -1.7190 -3.2307 -2.5280
   83CHL1  H24B 8612   1.899   2.136  32.402 -0.9329  0.0771 -0.0952
   83CHL1   C25 8613   1.944   2.169  32.614 -0.0239 -0.1348 -0.0664
   83CHL1   H25 8614   1.977   2.098  32.693  1.0797  1.6997  1.1920
   83CHL1   C26 8615   2.031   2.293  32.634 -0.8988 -0.9078  0.9748
   83CHL1  H26A 8616   2.008   2.368  32.556  3.7492 -0.1728  0.0157
   83CHL1  H26B 8617   2.003   2.326  32.736 -1.4281 -0.8233  0.8003
   83CHL1  H26C 8618   2.139   2.266  32.623 -1.0290 -0.7768 -1.1169
   83CHL1   C27 8619   1.794   2.190  32.639 -0.5006  0.4881  0.6442
   83CHL1  H27A 8620   1.790   2.248  32.733  1.7649  0.5595  0.7553
   83CHL1  H27B 8621   1.770   2.250  32.549  0.4727 -0.8143 -0.5284
   83CHL1  H27C 8622   1.731   2.098  32.637  1.5719 -1.0113 -1.1782
   84CHL1    C3 8623   2.249   2.725  23.340 -0.3032 -0.5805 -0.0330
   84CHL1    H3 8624   2.316   2.813  23.331 -3.3014  1.8872  0.0844
   84CHL1    O3 8625   2.237   2.648  23.223 -0.2829 -0.1260  0.3093
   84CHL1   H3' 8626   2.168   2.586  23.249 -0.5205  0.3349  0.7782
   84CHL1    C4 8627   2.302   2.637  23.455 -0.0911 -0.4360  0.3366
   84CHL1   H4A 8628   2.228   2.557  23.475 -1.1247  0.5594  0.6401
   84CHL1   H4B 8629   2.405   2.602  23.433  0.5919  1.4526  0.3366
   84CHL1    C5 8630   2.297   2.719  23.584 -0.0183 -0.7473 -0.7553
   84CHL1    C6 8631   2.403   2.738  23.655 -0.8135  0.0496  0.1985
   84CHL1    H6 8632   2.498   2.701  23.613 -0.5391  3.2899 -2.4689
   84CHL1    C7 8633   2.401   2.813  23.787  0.3368  0.1760 -0.2862
   84CHL1   H7A 8634   2.467   2.763  23.861 -2.1904 -0.9629  1.3339
   84CHL1   H7B 8635   2.429   2.920  23.777 -1.8811  0.6832 -1.8639
   84CHL1    C8 8636   2.260   2.820  23.846 -0.1031 -0.0467  0.4513
   84CHL1    H8 8637   2.238   2.718  23.884 -0.1516  0.9247  3.2900
   84CHL1   C14 8638   2.265   2.912  23.972 -0.8422 -0.0848  0.1553
   84CHL1   H14 8639   2.289   3.012  23.930  0.8307 -0.7647 -0.6424
   84CHL1   C15 8640   2.376   2.874  24.077  0.4225 -0.3275 -0.3367
   84CHL1  H15A 8641   2.388   2.763  24.078  0.9295 -0.2734 -0.3027
   84CHL1  H15B 8642   2.475   2.920  24.055  0.8415  0.1485  2.2214
   84CHL1   C16 8643   2.315   2.939  24.201 -0.2683  0.2377 -0.8188
   84CHL1  H16A 8644   2.278   2.871  24.281  1.1733 -0.1345 -0.4425
   84CHL1  H16B 8645   2.383   3.011  24.251  0.1878 -0.5212 -0.3312
   84CHL1   C17 8646   2.184   3.014  24.159 -0.6838 -0.6576 -0.3056
   84CHL1   H17 8647   2.207   3.114  24.116  2.3735 -0.7032  1.0142
   84CHL1   C13 8648   2.136   2.929  24.043  0.0018 -0.1905  0.3493
   84CHL1   C18 8649   2.078   2.789  24.088 -0.3749 -0.1379 -0.4520
   84CHL1  H18A 8650   2.140   2.749  24.172 -2.0647 -2.1293 -0.0793
   84CHL1  H18B 8651   1.982   2.808  24.140  0.3215  2.6117  0.0131
   84CHL1  H18C 8652   2.076   2.725  23.998  0.7250  0.5157 -0.9644
   84CHL1   C12 8653   2.036   2.983  23.938  0.2110 -0.2957  0.1078
   84CHL1  H12A 8654   1.936   3.003  23.983  0.8041  2.3899  0.4063
   84CHL1  H12B 8655   2.071   3.084  23.907  1.1425 -0.3246  1.0154
   84CHL1   C11 8656   2.016   2.902  23.808 -0.1878  0.2432 -0.2345
   84CHL1  H11A 8657   1.952   2.816  23.834 -0.7238  0.7591  0.1824
   84CHL1  H11B 8658   1.957   2.961  23.734  2.0075  2.2704 -0.5114
   84CHL1    C9 8659   2.158   2.874  23.744  0.1034 -0.3948  0.1065
   84CHL1    H9 8660   2.194   2.976  23.720  3.0257 -1.9178 -2.6968
   84CHL1   C10 8661   2.161   2.782  23.621  0.5637  0.4570  0.9059
   84CHL1   C19 8662   2.062   2.659  23.654 -0.0277 -0.2505  0.1519
   84CHL1  H19A 8663   1.957   2.688  23.631  0.9587  1.6582 -2.5040
   84CHL1  H19B 8664   2.079   2.575  23.583 -1.8147  1.1970 -2.1370
   84CHL1  H19C 8665   2.079   2.616  23.755  0.2023  1.8314  1.0451
   84CHL1    C1 8666   2.110   2.863  23.502  0.0294 -0.2355 -0.1508
   84CHL1   H1A 8667   2.005   2.893  23.520 -0.8431 -1.2641 -2.9945
   84CHL1   H1B 8668   2.171   2.956  23.492 -0.3604  0.1056  0.5929
   84CHL1    C2 8669   2.109   2.788  23.371  0.2138  0.6563 -0.0942
   84CHL1   H2A 8670   2.088   2.863  23.292 -1.6887  0.2220 -0.0521
   84CHL1   H2B 8671   2.031   2.709  23.371  0.4327  0.3702  2.1456
   84CHL1   C20 8672   2.094   3.029  24.289 -0.4973 -0.3546  0.1728
   84CHL1   H20 8673   2.084   2.929  24.335  1.1328 -0.9295 -0.6439
   84CHL1   C21 8674   1.962   3.087  24.238 -0.3677 -0.2588  0.0166
   84CHL1  H21A 8675   1.881   3.113  24.310 -0.3842 -0.2052 -0.0199
   84CHL1  H21B 8676   1.910   3.012  24.175  1.5039 -0.3760 -1.4432
   84CHL1  H21C 8677   1.971   3.173  24.168  0.1843 -1.0252 -0.8721
   84CHL1   C22 8678   2.168   3.110  24.404 -0.1781  0.0671 -0.0468
   84CHL1  H22A 8679   2.247   3.053  24.457 -0.1005  0.2530  0.0415
   84CHL1  H22B 8680   2.210   3.206  24.366  0.8542  0.6485  2.3739
   84CHL1   C23 8681   2.068   3.144  24.515  0.1136 -0.0400 -0.2971
   84CHL1  H23A 8682   1.984   3.201  24.471 -0.5553 -1.4375 -0.8778
   84CHL1  H23B 8683   2.029   3.051  24.559  2.9357 -0.3417  1.8801
   84CHL1   C24 8684   2.133   3.223  24.634  0.4864  0.1209  0.1053
   84CHL1  H24A 8685   2.237   3.185  24.642  0.1075 -0.9123  0.1753
   84CHL1  H24B 8686   2.130   3.332  24.611 -1.6074 -0.1350 -1.1640
   84CHL1   C25 8687   2.073   3.196  24.774 -0.3007 -0.4651  0.2500
   84CHL1   H25 8688   2.097   3.278  24.845 -2.0900 -0.2905  0.7058
   84CHL1   C26 8689   1.923   3.203  24.767  0.0152 -0.0873 -0.4583
   84CHL1  H26A 8690   1.895   3.298  24.716 -1.0976 -1.1299 -1.8885
   84CHL1  H26B 8691   1.873   3.131  24.699  0.2279  0.3871 -1.1312
   84CHL1  H26C 8692   1.867   3.187  24.861 -3.5441  1.4014 -2.1215
   84CHL1   C27 8693   2.119   3.059  24.821 -0.4900  0.6638  0.0051
   84CHL1  H27A 8694   2.089   2.970  24.763 -0.7649 -0.2089  1.4377
   84CHL1  H27B 8695   2.224   3.060  24.857 -0.8138  1.6262  1.0177
   84CHL1  H27C 8696   2.057   3.041  24.912 -1.0120 -0.3357 -0.5340
   85CHL1    C3 8697   0.412   3.259  29.879 -0.9240 -0.6236 -0.1945
   85CHL1    H3 8698   0.449   3.202  29.967 -0.1562 -1.1353 -0.8347
   85CHL1    O3 8699   0.270   3.288  29.880 -0.5311  0.3629  0.2471
   85CHL1   H3' 8700   0.240   3.302  29.970 -1.1089  2.3863 -0.2208
   85CHL1    C4 8701   0.490   3.397  29.874 -0.2297  0.0492 -0.0274
   85CHL1   H4A 8702   0.444   3.452  29.789 -0.4752 -0.8087 -0.4564
   85CHL1   H4B 8703   0.467   3.447  29.971  1.8352 -0.3322  0.6935
   85CHL1    C5 8704   0.640   3.381  29.863 -0.0927 -0.1793  0.3467
   85CHL1    C6 8705   0.720   3.440  29.953  0.7089  0.0409 -0.3868
   85CHL1    H6 8706   0.674   3.490  30.040  0.3096  1.9490 -1.6427
   85CHL1    C7 8707   0.866   3.440  29.939 -0.7753  0.3874 -0.4809
   85CHL1   H7A 8708   0.915   3.532  29.977 -1.2019 -0.3288  1.9937
   85CHL1   H7B 8709   0.906   3.356  29.999  1.1247  2.1702  0.9253
   85CHL1    C8 8710   0.916   3.403  29.796 -0.4362  0.6211  0.3506
   85CHL1    H8 8711   0.893   3.493  29.735 -1.2970 -1.0458 -1.9308
   85CHL1   C14 8712   1.064   3.358  29.803  0.1884 -1.4984 -0.4750
   85CHL1   H14 8713   1.068   3.280  29.881 -1.9731  1.0069  2.3649
   85CHL1   C15 8714   1.163   3.463  29.857  0.6290 -0.6153 -0.0312
   85CHL1  H15A 8715   1.140   3.567  29.827  1.1492 -0.8219 -1.1801
   85CHL1  H15B 8716   1.149   3.463  29.968 -1.6486  2.6327 -0.1623
   85CHL1   C16 8717   1.296   3.419  29.809 -0.3540  0.0176 -0.2749
   85CHL1  H16A 8718   1.359   3.484  29.745  3.6614 -3.0826  0.1785
   85CHL1  H16B 8719   1.358   3.411  29.901 -2.1382  2.0840  1.2168
   85CHL1   C17 8720   1.278   3.296  29.733  0.2363 -0.4963  0.0284
   85CHL1   H17 8721   1.273   3.211  29.803  1.8140  0.4160  1.3143
   85CHL1   C13 8722   1.131   3.305  29.682  0.4086  0.3323  0.1971
   85CHL1   C18 8723   1.128   3.400  29.558 -0.1449  0.2551 -0.1861
   85CHL1  H18A 8724   1.163   3.344  29.469 -0.3107 -0.0277 -0.0745
   85CHL1  H18B 8725   1.027   3.442  29.538  0.0501  1.3122  0.8702
   85CHL1  H18C 8726   1.201   3.482  29.576 -1.3874  1.2990  0.2389
   85CHL1   C12 8727   1.058   3.172  29.630 -0.5476 -0.0919 -0.0638
   85CHL1  H12A 8728   1.094   3.140  29.530  1.2155  0.1363  0.4644
   85CHL1  H12B 8729   1.086   3.101  29.711  0.5850  2.5370  2.0325
   85CHL1   C11 8730   0.909   3.205  29.614  0.0092 -0.6032  1.0932
   85CHL1  H11A 8731   0.888   3.268  29.526 -3.0115 -0.3681  1.8921
   85CHL1  H11B 8732   0.856   3.108  29.598 -4.1879  1.6370  0.0351
   85CHL1    C9 8733   0.842   3.276  29.740  0.1594 -0.0727  0.4613
   85CHL1    H9 8734   0.870   3.202  29.818  2.7164  1.6888  1.3425
   85CHL1   C10 8735   0.693   3.299  29.735  0.2348 -0.9181  0.2024
   85CHL1   C19 8736   0.656   3.384  29.604 -0.0896  0.6254 -0.4315
   85CHL1  H19A 8737   0.668   3.306  29.525 -0.1290 -0.3720  0.5141
   85CHL1  H19B 8738   0.550   3.417  29.611 -0.3821 -0.1284 -1.1592
   85CHL1  H19C 8739   0.726   3.468  29.585  1.3325 -0.4005  0.0879
   85CHL1    C1 8740   0.616   3.164  29.747  0.0739  0.0121  0.2585
   85CHL1   H1A 8741   0.639   3.110  29.653  0.1155 -0.2198  0.4012
   85CHL1   H1B 8742   0.660   3.101  29.827  1.2689  1.2417  0.6042
   85CHL1    C2 8743   0.463   3.180  29.756  0.3574  0.1164  0.7123
   85CHL1   H2A 8744   0.409   3.084  29.761  1.3001 -0.6178 -1.5292
   85CHL1   H2B 8745   0.424   3.229  29.663 -1.1733  2.5388  2.5112
   85CHL1   C20 8746   1.399   3.265  29.641 -0.1966 -0.4616 -0.9267
   85CHL1   H20 8747   1.418   3.356  29.580 -0.4152  0.1830 -0.0429
   85CHL1   C21 8748   1.377   3.153  29.540  0.5315 -0.7379  0.3516
   85CHL1  H21A 8749   1.328   3.065  29.586  0.6608 -1.8955 -1.6201
   85CHL1  H21B 8750   1.472   3.128  29.489  0.9540  0.6560  0.4091
   85CHL1  H21C 8751   1.309   3.195  29.464 -2.6982 -1.3123  2.7070
   85CHL1   C22 8752   1.530   3.245  29.720 -0.1093  0.1718  0.8342
   85CHL1  H22A 8753   1.611   3.259  29.645 -1.2594  4.1135  0.0808
   85CHL1  H22B 8754   1.536   3.331  29.789 -0.8839 -0.9578  2.3647
   85CHL1   C23 8755   1.533   3.120  29.797 -0.3795  0.5792  0.7211
   85CHL1  H23A 8756   1.439   3.100  29.851  0.2404 -2.0189  0.9669
   85CHL1  H23B 8757   1.566   3.034  29.734 -1.0765  0.5623  0.3791
   85CHL1   C24 8758   1.644   3.126  29.906  0.1327  0.3710 -0.0364
   85CHL1  H24A 8759   1.741   3.138  29.853  0.0195 -0.0523 -0.3433
   85CHL1  H24B 8760   1.625   3.209  29.978 -1.5127  1.0229 -1.1745
   85CHL1   C25 8761   1.675   2.999  29.998 -0.2388 -0.1396  0.2846
   85CHL1   H25 8762   1.579   2.983  30.052 -0.4965 -0.6467 -0.3102
   85CHL1   C26 8763   1.698   2.870  29.914 -0.0318 -0.3641 -0.1924
   85CHL1  H26A 8764   1.603   2.845  29.863 -1.4096  2.5453  0.7277
   85CHL1  H26B 8765   1.763   2.889  29.826  0.6397 -0.2193  0.3225
   85CHL1  H26C 8766   1.728   2.788  29.983 -2.6862  0.6795  2.4212
   85CHL1   C27 8767   1.805   3.019  30.084 -0.1999  0.3361 -0.1259
   85CHL1  H27A 8768   1.817   2.921  30.135  1.8408  0.4456 -0.3113
   85CHL1  H27B 8769   1.895   3.027  30.020  0.0907 -3.1869 -0.3438
   85CHL1  H27C 8770   1.795   3.099  30.160 -1.2091  1.6617 -1.5947
   86CHL1    C3 8771   2.264   3.109  25.660 -0.2826 -0.2541 -0.2482
   86CHL1    H3 8772   2.324   3.069  25.575  3.3903  1.1809  1.4426
   86CHL1    O3 8773   2.354   3.193  25.734 -0.4792  0.4050  0.1922
   86CHL1   H3' 8774   2.375   3.264  25.673  0.1266 -0.1018 -0.1943
   86CHL1    C4 8775   2.135   3.185  25.616  0.4702 -0.1929 -0.5557
   86CHL1   H4A 8776   2.072   3.220  25.700  0.6366 -0.6115 -0.2568
   86CHL1   H4B 8777   2.174   3.279  25.569 -2.7930  1.3162 -0.5447
   86CHL1    C5 8778   2.048   3.106  25.523 -0.4801  0.6744 -0.5510
   86CHL1    C6 8779   2.020   3.158  25.402  0.2826 -0.9103 -1.2219
   86CHL1    H6 8780   2.055   3.259  25.375 -0.7205  0.2036  1.3825
   86CHL1    C7 8781   1.934   3.089  25.296 -0.6678 -0.6947 -0.5523
   86CHL1   H7A 8782   1.854   3.156  25.258 -0.7704  0.5579  1.6934
   86CHL1   H7B 8783   1.992   3.055  25.208  1.8113 -0.0115  0.7248
   86CHL1    C8 8784   1.861   2.968  25.355  0.2525 -0.4834 -0.3118
   86CHL1    H8 8785   1.774   3.004  25.414  1.7077 -1.6617  2.7292
   86CHL1   C14 8786   1.815   2.880  25.238 -0.7300 -0.6325 -0.2735
   86CHL1   H14 8787   1.914   2.849  25.199 -0.6464 -0.7286  0.0137
   86CHL1   C15 8788   1.729   2.939  25.128  0.3629  0.4934  0.5201
   86CHL1  H15A 8789   1.633   2.982  25.162  0.2399  1.0774 -0.5500
   86CHL1  H15B 8790   1.788   3.015  25.073  3.4562 -1.3848  0.9822
   86CHL1   C16 8791   1.699   2.813  25.044 -0.1257  0.1205  0.7527
   86CHL1  H16A 8792   1.597   2.807  25.001  0.0666  0.5550  0.2314
   86CHL1  H16B 8793   1.770   2.797  24.961 -0.0506  2.7774  0.2300
   86CHL1   C17 8794   1.705   2.692  25.149 -0.0950  0.0975 -0.7476
   86CHL1   H17 8795   1.793   2.635  25.112  0.8786  0.4997  0.8903
   86CHL1   C13 8796   1.744   2.749  25.287  0.3726 -0.5191  0.4907
   86CHL1   C18 8797   1.620   2.786  25.371 -0.0890  0.1061  0.1009
   86CHL1  H18A 8798   1.544   2.841  25.310  1.2872  1.4313 -0.4906
   86CHL1  H18B 8799   1.586   2.685  25.399  4.0369 -0.5026  4.0882
   86CHL1  H18C 8800   1.646   2.842  25.463  2.4176 -2.4803  1.1161
   86CHL1   C12 8801   1.842   2.670  25.369  0.2003 -0.0809 -0.0284
   86CHL1  H12A 8802   1.792   2.585  25.421  0.0313 -0.5151 -0.8839
   86CHL1  H12B 8803   1.938   2.637  25.324 -0.1301  0.8006 -1.4513
   86CHL1   C11 8804   1.886   2.752  25.497 -0.3999  0.3274 -0.3638
   86CHL1  H11A 8805   1.799   2.767  25.565  0.7847 -1.4105  1.6689
   86CHL1  H11B 8806   1.956   2.681  25.547 -0.6289 -1.5663 -2.5646
   86CHL1    C9 8807   1.954   2.887  25.458 -0.3541 -0.1899  1.0119
   86CHL1    H9 8808   2.042   2.853  25.401 -0.9770 -0.6077  0.2887
   86CHL1   C10 8809   2.003   2.970  25.578  0.4275  0.0818 -1.0328
   86CHL1   C19 8810   1.889   2.996  25.681 -0.2980  0.4477  0.5455
   86CHL1  H19A 8811   1.863   2.896  25.722  1.3972 -0.0696  0.4008
   86CHL1  H19B 8812   1.931   3.036  25.776  0.9353  0.3190  0.0639
   86CHL1  H19C 8813   1.799   3.053  25.649 -0.9530 -0.7806  0.1454
   86CHL1    C1 8814   2.122   2.898  25.642  0.1823  0.0773  0.4549
   86CHL1   H1A 8815   2.088   2.808  25.697  1.5765 -0.4675  0.4602
   86CHL1   H1B 8816   2.189   2.856  25.564 -0.8201 -0.2283 -0.2662
   86CHL1    C2 8817   2.217   2.984  25.730 -0.0613 -0.3566 -0.2285
   86CHL1   H2A 8818   2.300   2.926  25.777 -1.4348 -0.1905  2.5418
   86CHL1   H2B 8819   2.152   3.014  25.814 -1.9633  1.6067 -2.2519
   86CHL1   C20 8820   1.598   2.591  25.134  0.8819 -0.0345  0.6554
   86CHL1   H20 8821   1.599   2.534  25.229 -0.1408  0.1167  0.7760
   86CHL1   C21 8822   1.633   2.489  25.015 -0.3723 -0.5383 -0.5377
   86CHL1  H21A 8823   1.725   2.445  25.059  0.3510  2.8565  1.7750
   86CHL1  H21B 8824   1.648   2.545  24.920  0.2660  1.3864  0.6446
   86CHL1  H21C 8825   1.555   2.412  24.998 -0.8789  0.3051 -2.2347
   86CHL1   C22 8826   1.446   2.632  25.129 -0.2928 -0.3120 -0.0355
   86CHL1  H22A 8827   1.422   2.736  25.161  0.1797 -0.5839  1.2844
   86CHL1  H22B 8828   1.410   2.640  25.024  0.0089  1.0386 -0.0538
   86CHL1   C23 8829   1.357   2.530  25.206  0.1429  0.2045 -0.2769
   86CHL1  H23A 8830   1.386   2.429  25.169  0.5114  1.7044 -4.6531
   86CHL1  H23B 8831   1.388   2.528  25.313  0.1013 -0.0162 -0.2681
   86CHL1   C24 8832   1.204   2.546  25.182  0.1893 -0.4269 -0.3924
   86CHL1  H24A 8833   1.174   2.616  25.262 -1.9373 -0.2231 -1.3021
   86CHL1  H24B 8834   1.183   2.607  25.092 -1.5386 -0.8922 -0.3460
   86CHL1   C25 8835   1.113   2.424  25.186  0.4716  0.5040 -0.3887
   86CHL1   H25 8836   1.133   2.361  25.097 -2.3089 -1.0164 -0.0678
   86CHL1   C26 8837   1.149   2.343  25.313  0.8113 -0.4992 -0.6341
   86CHL1  H26A 8838   1.179   2.414  25.394  2.1248  0.2328 -1.7108
   86CHL1  H26B 8839   1.074   2.274  25.356  1.5197  1.1837  3.8548
   86CHL1  H26C 8840   1.237   2.277  25.295 -1.3492 -3.4156 -1.2159
   86CHL1   C27 8841   0.958   2.457  25.190 -0.0151  0.0903 -0.3255
   86CHL1  H27A 8842   0.908   2.359  25.203 -0.0447  0.2940  1.2018
   86CHL1  H27B 8843   0.938   2.513  25.284  1.4557 -0.5147  0.3752
   86CHL1  H27C 8844   0.916   2.521  25.109  0.1611  2.6448  1.4582
   87CHL1    C3 8845   0.736   1.445  23.169 -0.2319  0.0745 -0.2067
   87CHL1    H3 8846   0.633   1.428  23.208 -0.1861  1.1517  0.4109
   87CHL1    O3 8847   0.733   1.432  23.027 -0.2371 -0.1588  0.1757
   87CHL1   H3' 8848   0.820   1.460  22.998 -0.1543  1.8317  2.0992
   87CHL1    C4 8849   0.784   1.585  23.201 -0.0256  0.3161 -0.5192
   87CHL1   H4A 8850   0.883   1.607  23.154  0.1223  1.8320  0.4350
   87CHL1   H4B 8851   0.709   1.642  23.141  0.4743 -0.3706 -1.8463
   87CHL1    C5 8852   0.780   1.615  23.348 -0.4666  0.4184 -0.1171
   87CHL1    C6 8853   0.709   1.716  23.405  0.4896 -0.3556 -0.0056
   87CHL1    H6 8854   0.643   1.782  23.347  2.2549  1.0108 -0.5351
   87CHL1    C7 8855   0.726   1.750  23.550  0.2478  0.0285 -0.1053
   87CHL1   H7A 8856   0.739   1.860  23.550  2.1745 -0.1683 -1.0170
   87CHL1   H7B 8857   0.631   1.725  23.604 -1.2549  2.1110 -1.6434
   87CHL1    C8 8858   0.845   1.683  23.629 -0.3385 -0.6156  0.3622
   87CHL1    H8 8859   0.933   1.741  23.592 -2.7910  1.6042 -2.4906
   87CHL1   C14 8860   0.831   1.697  23.775  1.1257  0.0247 -0.0434
   87CHL1   H14 8861   0.741   1.634  23.794 -0.7728  2.6432  0.1599
   87CHL1   C15 8862   0.806   1.836  23.831 -0.2987  0.0843 -0.1121
   87CHL1  H15A 8863   0.861   1.917  23.780  1.2234 -1.8606 -1.7102
   87CHL1  H15B 8864   0.703   1.875  23.815  0.9460  2.4299 -3.1957
   87CHL1   C16 8865   0.846   1.829  23.981 -0.2752 -0.9484 -0.3223
   87CHL1  H16A 8866   0.931   1.901  23.988  0.5153 -1.9129  0.1576
   87CHL1  H16B 8867   0.762   1.837  24.054  1.5608 -0.4612  1.8451
   87CHL1   C17 8868   0.910   1.685  23.993  0.4681  0.7854 -0.3068
   87CHL1   H17 8869   0.825   1.624  24.029  0.8718  0.5735  0.2988
   87CHL1   C13 8870   0.943   1.639  23.852  0.2140 -0.3986 -0.0510
   87CHL1   C18 8871   1.080   1.693  23.813  0.2232 -0.2913  0.2874
   87CHL1  H18A 8872   1.163   1.651  23.873 -0.3221 -0.8369  0.6672
   87CHL1  H18B 8873   1.107   1.668  23.708 -1.6597 -2.2403  0.1962
   87CHL1  H18C 8874   1.083   1.801  23.840 -0.1074 -0.6271  1.7345
   87CHL1   C12 8875   0.935   1.483  23.825 -0.2512 -0.2841  0.0740
   87CHL1  H12A 8876   1.012   1.439  23.892  0.2063  1.1024  0.5059
   87CHL1  H12B 8877   0.832   1.457  23.858  0.0449  0.5706  1.8219
   87CHL1   C11 8878   0.952   1.445  23.680  0.1040  0.0477 -0.0265
   87CHL1  H11A 8879   1.052   1.478  23.646 -0.3410  0.8231 -0.5973
   87CHL1  H11B 8880   0.934   1.337  23.661  0.5852 -0.3336  1.5447
   87CHL1    C9 8881   0.856   1.532  23.587 -0.6045  0.2578  0.3105
   87CHL1    H9 8882   0.756   1.488  23.606 -1.5772  1.3855 -1.8096
   87CHL1   C10 8883   0.880   1.519  23.428  0.6807  0.2071  0.1126
   87CHL1   C19 8884   1.024   1.552  23.394  0.7812  0.3490  0.4848
   87CHL1  H19A 8885   1.085   1.471  23.439 -0.2588 -1.3276 -0.9960
   87CHL1  H19B 8886   1.048   1.540  23.286 -1.4024 -1.7294  0.1548
   87CHL1  H19C 8887   1.056   1.651  23.433 -0.9323  0.9239  0.5022
   87CHL1    C1 8888   0.848   1.376  23.383  0.1498  0.6771 -0.1673
   87CHL1   H1A 8889   0.922   1.308  23.431 -0.8456 -0.6446 -0.4252
   87CHL1   H1B 8890   0.754   1.338  23.428  0.4218 -1.1238 -1.0238
   87CHL1    C2 8891   0.839   1.354  23.229 -0.9707  0.7232 -0.0478
   87CHL1   H2A 8892   0.809   1.248  23.214  0.3645  0.1893  0.8751
   87CHL1   H2B 8893   0.943   1.366  23.194 -1.3865  0.3650 -1.4606
   87CHL1   C20 8894   1.020   1.659  24.096  0.4140  0.1248  0.0469
   87CHL1   H20 8895   1.075   1.569  24.060 -1.2634 -1.5168  1.3737
   87CHL1   C21 8896   0.949   1.614  24.226 -0.9529 -0.3220  0.1758
   87CHL1  H21A 8897   0.878   1.532  24.203  0.2846 -1.5575  0.6131
   87CHL1  H21B 8898   0.886   1.692  24.273 -0.2298  1.1557 -1.1885
   87CHL1  H21C 8899   1.021   1.569  24.298 -1.9963 -1.7602  0.3514
   87CHL1   C22 8900   1.118   1.768  24.138  0.5734  0.0753 -0.5029
   87CHL1  H22A 8901   1.142   1.833  24.051 -0.3692  2.0542  0.6548
   87CHL1  H22B 8902   1.071   1.836  24.212  1.6297  0.2315  0.0540
   87CHL1   C23 8903   1.252   1.701  24.198  0.2229 -0.1625  0.2727
   87CHL1  H23A 8904   1.221   1.630  24.277 -0.1829  2.4802  2.6279
   87CHL1  H23B 8905   1.309   1.640  24.125 -1.7579 -1.1428 -0.5277
   87CHL1   C24 8906   1.353   1.799  24.267  0.4787  0.5385  0.0525
   87CHL1  H24A 8907   1.305   1.847  24.355  1.6313  0.6490  0.6412
   87CHL1  H24B 8908   1.442   1.740  24.300 -0.1835 -0.2518  0.4640
   87CHL1   C25 8909   1.389   1.906  24.166 -0.4894  0.0601  0.1823
   87CHL1   H25 8910   1.293   1.949  24.128 -0.1189 -1.3446 -2.6478
   87CHL1   C26 8911   1.475   2.014  24.241  0.2595  0.7363  0.1766
   87CHL1  H26A 8912   1.502   2.102  24.178  1.4931 -0.2723 -0.7631
   87CHL1  H26B 8913   1.425   2.061  24.328 -0.7213 -2.5227  1.5244
   87CHL1  H26C 8914   1.569   1.964  24.273  0.0885 -0.5629 -1.2516
   87CHL1   C27 8915   1.485   1.846  24.055 -0.5181  0.0751  0.6656
   87CHL1  H27A 8916   1.443   1.780  23.977  1.6001 -1.5814  0.8199
   87CHL1  H27B 8917   1.528   1.933  24.002  0.3938 -1.7081 -1.7247
   87CHL1  H27C 8918   1.574   1.792  24.096 -1.3589 -3.0373 -1.2393
   88CHL1    C3 8919   0.162   2.981  29.424 -0.4266  0.1323  0.3510
   88CHL1    H3 8920   0.192   3.086  29.449  0.5724  0.5762 -2.3760
   88CHL1    O3 8921   0.025   2.968  29.464  0.9860 -0.2670 -0.2616
   88CHL1   H3' 8922   0.006   2.875  29.448 -0.5250  0.1104 -0.8313
   88CHL1    C4 8923   0.182   2.958  29.280  0.1970  0.8109  0.0911
   88CHL1   H4A 8924   0.138   2.858  29.260  1.6262  0.6112 -2.3512
   88CHL1   H4B 8925   0.111   3.032  29.236 -1.5259 -0.8096  0.0461
   88CHL1    C5 8926   0.325   2.977  29.230 -0.2464  0.2248 -0.3011
   88CHL1    C6 8927   0.361   3.055  29.129 -0.3847  0.4620  0.4043
   88CHL1    H6 8928   0.288   3.113  29.072 -2.1525 -2.6718 -0.7619
   88CHL1    C7 8929   0.508   3.063  29.086  0.7886  1.2211  0.5525
   88CHL1   H7A 8930   0.525   3.075  28.977  2.3356 -1.4839  0.3921
   88CHL1   H7B 8931   0.553   3.157  29.125  2.0682 -0.1141  2.4668
   88CHL1    C8 8932   0.607   2.949  29.144  0.6298 -0.9412 -1.2145
   88CHL1    H8 8933   0.577   2.853  29.096 -3.5616  0.9021 -2.7883
   88CHL1   C14 8934   0.760   2.991  29.128  0.0418  0.1791 -0.7135
   88CHL1   H14 8935   0.772   3.089  29.178  0.3931  0.8662 -2.0761
   88CHL1   C15 8936   0.809   3.007  28.988  0.1293 -0.7275  0.4678
   88CHL1  H15A 8937   0.775   2.927  28.919 -0.3953 -3.3442  3.5347
   88CHL1  H15B 8938   0.774   3.101  28.940  0.5910 -0.8819 -0.1793
   88CHL1   C16 8939   0.961   3.004  28.994 -0.0815 -0.1917 -0.0813
   88CHL1  H16A 8940   0.998   2.931  28.919 -1.0591 -1.0788  0.2651
   88CHL1  H16B 8941   1.014   3.097  28.967  0.8832 -1.1180 -1.5820
   88CHL1   C17 8942   0.995   2.961  29.134  0.6182 -0.0242 -0.7669
   88CHL1   H17 8943   1.011   3.049  29.200  2.3118  0.8100 -2.1921
   88CHL1   C13 8944   0.856   2.892  29.180  0.0422  0.0516 -0.3836
   88CHL1   C18 8945   0.841   2.751  29.118  0.7657 -0.0955 -0.2702
   88CHL1  H18A 8946   0.766   2.735  29.038  1.5306 -1.5366 -0.7369
   88CHL1  H18B 8947   0.936   2.714  29.073  0.5689 -1.7803  0.5956
   88CHL1  H18C 8948   0.815   2.672  29.192  0.3147 -0.0580 -0.3839
   88CHL1   C12 8949   0.833   2.880  29.333  0.4204 -0.1213  0.7510
   88CHL1  H12A 8950   0.898   2.801  29.375  2.0483  0.0494 -1.3313
   88CHL1  H12B 8951   0.859   2.978  29.379 -0.4243  0.4224  0.1108
   88CHL1   C11 8952   0.680   2.847  29.365  0.3701 -0.0862  0.1677
   88CHL1  H11A 8953   0.657   2.740  29.343  0.4144 -0.1162  0.2670
   88CHL1  H11B 8954   0.673   2.864  29.474  0.6473  1.7631 -0.0776
   88CHL1    C9 8955   0.573   2.929  29.294  0.5473  0.1827  1.0955
   88CHL1    H9 8956   0.575   3.037  29.322  0.5727  0.4623  0.0781
   88CHL1   C10 8957   0.419   2.887  29.308  0.1829  0.3061 -0.3125
   88CHL1   C19 8958   0.394   2.742  29.266  0.5979 -0.4328  0.0897
   88CHL1  H19A 8959   0.289   2.712  29.287  1.0820 -1.0254  1.8556
   88CHL1  H19B 8960   0.431   2.713  29.166 -1.2544  1.7175 -1.3422
   88CHL1  H19C 8961   0.451   2.675  29.334  0.8804 -1.0894 -0.7809
   88CHL1    C1 8962   0.393   2.903  29.456 -0.7294  0.2013 -0.0933
   88CHL1   H1A 8963   0.441   2.822  29.514 -1.7942 -0.6936 -0.4363
   88CHL1   H1B 8964   0.424   3.005  29.489  1.5284 -0.4548 -0.0464
   88CHL1    C2 8965   0.249   2.886  29.501  0.4251 -0.0228  0.8031
   88CHL1   H2A 8966   0.239   2.912  29.608  0.1679  1.5081  0.4359
   88CHL1   H2B 8967   0.211   2.782  29.489 -1.5508  0.6409  0.9568
   88CHL1   C20 8968   1.113   2.864  29.156 -0.3188 -0.1364 -0.0789
   88CHL1   H20 8969   1.083   2.764  29.192 -0.0057  0.3009  1.4805
   88CHL1   C21 8970   1.186   2.936  29.273 -0.0420  0.7227  0.1742
   88CHL1  H21A 8971   1.264   2.866  29.310 -1.6609 -1.1737  0.1859
   88CHL1  H21B 8972   1.120   2.940  29.362 -2.5821 -0.2802 -1.5357
   88CHL1  H21C 8973   1.226   3.037  29.251 -0.9290  1.0212 -0.1295
   88CHL1   C22 8974   1.213   2.852  29.042  0.1427  0.1142 -0.6863
   88CHL1  H22A 8975   1.165   2.822  28.946 -1.3543  0.7242 -0.1478
   88CHL1  H22B 8976   1.256   2.952  29.021  0.3086  0.0312 -0.7425
   88CHL1   C23 8977   1.320   2.744  29.058  0.3574  0.6244 -0.2110
   88CHL1  H23A 8978   1.392   2.789  29.130 -2.0491  1.9292  1.5506
   88CHL1  H23B 8979   1.278   2.650  29.098 -1.4222  0.3798 -2.4705
   88CHL1   C24 8980   1.397   2.717  28.922  0.7417 -0.0328  0.0092
   88CHL1  H24A 8981   1.341   2.647  28.856  0.6466  0.0094  0.0455
   88CHL1  H24B 8982   1.415   2.816  28.875  0.2392  0.5292  0.9738
   88CHL1   C25 8983   1.531   2.652  28.959  0.2446 -0.3281 -0.5351
   88CHL1   H25 8984   1.585   2.720  29.029 -0.1045 -1.8510  1.2977
   88CHL1   C26 8985   1.508   2.513  29.028 -0.3597 -0.6304  0.9162
   88CHL1  H26A 8986   1.601   2.454  29.034 -0.6262 -1.0867  0.6184
   88CHL1  H26B 8987   1.441   2.522  29.116 -1.9781  2.0701 -0.4486
   88CHL1  H26C 8988   1.445   2.461  28.953 -2.4624 -1.3544  3.0429
   88CHL1   C27 8989   1.618   2.619  28.839 -0.0001 -0.4958 -1.0769
   88CHL1  H27A 8990   1.709   2.566  28.872 -0.4985  0.7392  2.7288
   88CHL1  H27B 8991   1.571   2.556  28.760 -2.2266  2.1036 -2.0095
   88CHL1  H27C 8992   1.642   2.714  28.786  2.9165 -1.2270 -1.2362
   89CHL1    C3 8993   2.375   3.184  23.284 -0.5015 -0.2830 -0.1260
   89CHL1    H3 8994   2.300   3.108  23.315 -0.7482  0.2286  0.5648
   89CHL1    O3 8995   2.387   3.197  23.141  0.5310  0.2288  0.3140
   89CHL1   H3' 8996   2.470   3.242  23.125  1.3495 -1.1057  0.6525
   89CHL1    C4 8997   2.326   3.321  23.337  0.4115 -0.4025 -0.2920
   89CHL1   H4A 8998   2.393   3.393  23.284 -0.8745  0.7146 -0.4498
   89CHL1   H4B 8999   2.222   3.327  23.300  0.4201 -1.2692 -0.4832
   89CHL1    C5 9000   2.324   3.325  23.490  0.3298  0.1045  0.5489
   89CHL1    C6 9001   2.216   3.360  23.560  1.0139 -0.1348  0.6973
   89CHL1    H6 9002   2.125   3.384  23.503  0.6256 -0.3343  1.2260
   89CHL1    C7 9003   2.207   3.368  23.706 -0.7467 -0.5226 -0.2892
   89CHL1   H7A 9004   2.151   3.458  23.741 -0.8772 -0.9072  0.5038
   89CHL1   H7B 9005   2.153   3.274  23.731 -3.3623  0.8560 -0.3370
   89CHL1    C8 9006   2.346   3.363  23.772  0.0712  0.4988  0.0409
   89CHL1    H8 9007   2.379   3.468  23.765 -0.4561  0.8211  1.8860
   89CHL1   C14 9008   2.340   3.340  23.924  0.6192  0.8418  0.4850
   89CHL1   H14 9009   2.299   3.238  23.936 -0.5508  1.4352  1.8366
   89CHL1   C15 9010   2.232   3.420  23.999 -0.0720  0.3271  0.3574
   89CHL1  H15A 9011   2.220   3.520  23.952 -2.8241 -0.5763 -1.0700
   89CHL1  H15B 9012   2.132   3.371  23.994  1.0298 -1.9050 -1.1545
   89CHL1   C16 9013   2.291   3.432  24.143 -0.3824  0.0428  0.1467
   89CHL1  H16A 9014   2.322   3.538  24.148 -0.3547  0.1691 -1.9202
   89CHL1  H16B 9015   2.221   3.405  24.225  0.5793 -0.5198  0.7963
   89CHL1   C17 9016   2.425   3.349  24.147  1.0474  0.1094  0.1382
   89CHL1   H17 9017   2.395   3.245  24.172 -2.0988  1.4664  2.7435
   89CHL1   C13 9018   2.471   3.354  23.999 -0.3196 -0.0753 -0.0637
   89CHL1   C18 9019   2.543   3.489  23.967  0.5821  0.0267 -0.6113
   89CHL1  H18A 9020   2.479   3.579  23.984  1.0290  0.1342  0.6351
   89CHL1  H18B 9021   2.632   3.497  24.032 -0.2607 -1.0035  0.7223
   89CHL1  H18C 9022   2.567   3.491  23.859 -1.7060 -0.2896 -1.1774
   89CHL1   C12 9023   2.552   3.237  23.950 -0.3199  0.0468  0.0231
   89CHL1  H12A 9024   2.653   3.220  23.993  0.1723  0.7418 -0.8132
   89CHL1  H12B 9025   2.499   3.142  23.972 -0.8815  0.3947  0.1983
   89CHL1   C11 9026   2.565   3.233  23.793  0.2748  0.0175  0.4672
   89CHL1  H11A 9027   2.655   3.293  23.766  1.8105 -1.9980  0.8926
   89CHL1  H11B 9028   2.596   3.128  23.777 -1.8930 -0.9694  2.2210
   89CHL1    C9 9029   2.435   3.254  23.713  0.6564 -0.0384 -0.1275
   89CHL1    H9 9030   2.379   3.158  23.706  0.1749  0.1139  1.2239
   89CHL1   C10 9031   2.458   3.273  23.561 -0.2924 -0.0073  0.6569
   89CHL1   C19 9032   2.568   3.386  23.534 -0.1317 -0.1635 -0.3968
   89CHL1  H19A 9033   2.557   3.475  23.599  0.6700 -0.1303 -0.2988
   89CHL1  H19B 9034   2.671   3.353  23.557  0.0044  0.4222 -0.1459
   89CHL1  H19C 9035   2.562   3.438  23.436  2.4222 -0.0256 -0.5342
   89CHL1    C1 9036   2.516   3.138  23.495  0.4111 -0.2702  0.3018
   89CHL1   H1A 9037   2.619   3.117  23.529 -0.1417 -0.2521  2.1271
   89CHL1   H1B 9038   2.448   3.057  23.529  0.2332  0.0510  0.7270
   89CHL1    C2 9039   2.511   3.135  23.336  0.5404 -0.1558  0.2312
   89CHL1   H2A 9040   2.534   3.032  23.301  2.0611 -0.3632  1.7020
   89CHL1   H2B 9041   2.586   3.207  23.296 -0.2467  0.7965  0.4179
   89CHL1   C20 9042   2.529   3.391  24.259 -0.0459 -0.5917  0.2553
   89CHL1   H20 9043   2.553   3.499  24.245 -0.4640 -0.6600 -1.1245
   89CHL1   C21 9044   2.659   3.308  24.263 -0.0487 -0.7279  0.1232
   89CHL1  H21A 9045   2.715   3.350  24.349 -0.5625  2.6568 -1.0399
   89CHL1  H21B 9046   2.712   3.319  24.167 -2.3004 -2.1609 -1.3847
   89CHL1  H21C 9047   2.642   3.198  24.260  0.3351 -0.8266  1.0584
   89CHL1   C22 9048   2.477   3.378  24.413  0.0998  0.2831 -0.5417
   89CHL1  H22A 9049   2.369   3.403  24.416  0.4300  1.7108  1.5523
   89CHL1  H22B 9050   2.482   3.267  24.426 -1.0130  0.0114 -2.1934
   89CHL1   C23 9051   2.556   3.455  24.524  0.1753 -0.2266  0.6523
   89CHL1  H23A 9052   2.637   3.389  24.561  0.9569 -0.0838 -0.7012
   89CHL1  H23B 9053   2.594   3.547  24.473 -1.2795 -0.2048 -0.4616
   89CHL1   C24 9054   2.478   3.502  24.648 -0.0179  0.5746 -0.1801
   89CHL1  H24A 9055   2.439   3.417  24.708  0.0853 -0.2914 -1.2987
   89CHL1  H24B 9056   2.553   3.552  24.711 -0.7546  0.3407  0.9104
   89CHL1   C25 9057   2.348   3.586  24.633  0.4512 -0.0644 -0.7755
   89CHL1   H25 9058   2.272   3.524  24.582  0.7132 -0.2621 -0.9318
   89CHL1   C26 9059   2.285   3.615  24.777  0.0279 -0.2018 -0.4939
   89CHL1  H26A 9060   2.344   3.693  24.831  0.2302 -0.7420  0.0795
   89CHL1  H26B 9061   2.185   3.656  24.754 -0.2893 -0.9898 -0.5231
   89CHL1  H26C 9062   2.268   3.524  24.838  0.7124 -0.4905 -0.7198
   89CHL1   C27 9063   2.379   3.716  24.557 -0.4495  0.3621  0.0787
   89CHL1  H27A 9064   2.474   3.767  24.582  0.0266 -0.7674  0.6159
   89CHL1  H27B 9065   2.385   3.685  24.450  1.3647 -0.6396  0.4271
   89CHL1  H27C 9066   2.301   3.792  24.577 -0.6098  0.2167  0.0131
   90CHL1    C3 9067   2.289   0.471  30.895  0.0984  0.0316 -0.6802
   90CHL1    H3 9068   2.333   0.568  30.926 -1.1672  0.6902 -0.8761
   90CHL1    O3 9069   2.391   0.411  30.819 -0.5286  0.0420  0.3751
   90CHL1   H3' 9070   2.390   0.316  30.833 -1.3304  0.1060  0.8243
   90CHL1    C4 9071   2.254   0.381  31.015 -0.1077  0.3957  0.5950
   90CHL1   H4A 9072   2.221   0.282  30.977 -1.6544  1.8646 -2.2325
   90CHL1   H4B 9073   2.343   0.372  31.081  0.2501 -1.4098 -0.0620
   90CHL1    C5 9074   2.147   0.453  31.098  0.1608 -0.4758 -0.2800
   90CHL1    C6 9075   2.169   0.491  31.229  0.3996 -0.5003  0.3443
   90CHL1    H6 9076   2.274   0.488  31.264  0.3249 -0.8917  0.5355
   90CHL1    C7 9077   2.071   0.558  31.319 -0.5673 -0.2706 -0.4461
   90CHL1   H7A 9078   2.066   0.516  31.422 -0.7570 -1.8777 -1.0862
   90CHL1   H7B 9079   2.102   0.664  31.331 -0.4306 -0.4676  1.1574
   90CHL1    C8 9080   1.931   0.549  31.268  0.2860 -0.3965 -0.0747
   90CHL1    H8 9081   1.889   0.447  31.284 -2.3697  0.1359 -2.8587
   90CHL1   C14 9082   1.842   0.657  31.333  0.3063 -0.2162  0.9458
   90CHL1   H14 9083   1.884   0.755  31.303 -0.1977  1.1338  4.2133
   90CHL1   C15 9084   1.838   0.646  31.485  0.6850  0.0943 -0.1815
   90CHL1  H15A 9085   1.826   0.542  31.522  0.7265 -0.5848 -1.9848
   90CHL1  H15B 9086   1.940   0.679  31.514  0.6938  0.2846 -0.4231
   90CHL1   C16 9087   1.715   0.737  31.528 -0.2060  0.5812  0.1462
   90CHL1  H16A 9088   1.660   0.687  31.610  1.1019 -1.6944 -0.2559
   90CHL1  H16B 9089   1.751   0.839  31.552 -0.3309  1.2194 -2.1067
   90CHL1   C17 9090   1.642   0.761  31.397  0.8235 -0.0976 -0.4064
   90CHL1   H17 9091   1.685   0.857  31.361  1.9652 -0.7455 -0.7980
   90CHL1   C13 9092   1.697   0.654  31.294 -0.1513  0.1053  0.1729
   90CHL1   C18 9093   1.629   0.518  31.322 -0.2834  0.3196  0.3111
   90CHL1  H18A 9094   1.523   0.536  31.296  0.2799  0.0649 -2.4870
   90CHL1  H18B 9095   1.668   0.434  31.261 -2.5565 -0.3936 -0.2554
   90CHL1  H18C 9096   1.626   0.489  31.429  1.5050  1.6488  0.7738
   90CHL1   C12 9097   1.692   0.697  31.144  0.3876  0.6375  0.0749
   90CHL1  H12A 9098   1.590   0.675  31.106  0.8575 -1.9115  0.1212
   90CHL1  H12B 9099   1.726   0.799  31.117  0.5135  0.8551  1.0021
   90CHL1   C11 9100   1.774   0.585  31.072  0.1117 -0.1251 -0.2393
   90CHL1  H11A 9101   1.720   0.488  31.075  0.2161 -0.2507 -1.5834
   90CHL1  H11B 9102   1.782   0.613  30.965  1.6906 -2.9038 -0.9512
   90CHL1    C9 9103   1.924   0.576  31.117  0.1127 -0.2671 -0.2854
   90CHL1    H9 9104   1.972   0.674  31.095 -1.1832  0.5707  0.5046
   90CHL1   C10 9105   2.014   0.478  31.025 -0.2268 -0.3599 -0.0898
   90CHL1   C19 9106   1.952   0.339  31.024 -0.3478 -0.0263 -0.0803
   90CHL1  H19A 9107   1.866   0.330  30.955  0.8505  0.0657 -1.6519
   90CHL1  H19B 9108   2.022   0.257  30.995  0.3795  0.0425  1.3797
   90CHL1  H19C 9109   1.923   0.304  31.125  0.7122 -2.1769 -0.4745
   90CHL1    C1 9110   2.038   0.541  30.888  0.1975 -0.6638  0.5888
   90CHL1   H1A 9111   1.940   0.529  30.837  0.0727 -0.2077  0.7187
   90CHL1   H1B 9112   2.067   0.648  30.899  1.6164 -1.1988  2.6208
   90CHL1    C2 9113   2.162   0.489  30.809  0.4769  0.7494  0.7489
   90CHL1   H2A 9114   2.176   0.563  30.727 -1.1497  2.6540  2.0934
   90CHL1   H2B 9115   2.135   0.392  30.762  0.1293  0.9106  0.6117
   90CHL1   C20 9116   1.491   0.779  31.421 -0.2290  0.4355  0.7825
   90CHL1   H20 9117   1.450   0.691  31.475 -0.2198 -0.1160 -0.0938
   90CHL1   C21 9118   1.416   0.795  31.288  0.2750  1.2856 -0.7716
   90CHL1  H21A 9119   1.480   0.863  31.227  2.9363  0.5230  1.0203
   90CHL1  H21B 9120   1.316   0.834  31.318 -0.1420 -1.7877  2.5559
   90CHL1  H21C 9121   1.412   0.696  31.237  0.0984  0.1708  1.2925
   90CHL1   C22 9122   1.474   0.901  31.512  0.2029 -0.2455 -0.2079
   90CHL1  H22A 9123   1.523   0.873  31.607  2.0121  0.8064 -0.7916
   90CHL1  H22B 9124   1.526   0.992  31.475  0.5690 -0.2988  0.1733
   90CHL1   C23 9125   1.337   0.910  31.577  0.5361  0.4193  0.1997
   90CHL1  H23A 9126   1.271   0.931  31.490 -0.4102  1.0668  1.0571
   90CHL1  H23B 9127   1.309   0.810  31.617  0.3105  0.8507  1.1244
   90CHL1   C24 9128   1.313   1.019  31.683 -0.8301  0.2271 -0.0185
   90CHL1  H24A 9129   1.348   0.972  31.778  0.2502 -1.4033 -1.1575
   90CHL1  H24B 9130   1.373   1.110  31.663 -0.6723  0.6495  2.1082
   90CHL1   C25 9131   1.165   1.059  31.708  0.0944 -0.6493 -0.5692
   90CHL1   H25 9132   1.114   1.104  31.621 -0.1700 -0.4068 -0.2910
   90CHL1   C26 9133   1.087   0.939  31.750 -0.1519  0.0162 -0.0978
   90CHL1  H26A 9134   1.136   0.897  31.841 -2.2855 -1.3337  0.4986
   90CHL1  H26B 9135   0.977   0.945  31.765 -0.6656 -1.8339 -2.5524
   90CHL1  H26C 9136   1.098   0.860  31.673  0.4699  0.9893 -1.0422
   90CHL1   C27 9137   1.160   1.173  31.818  0.1574 -0.2695  0.2399
   90CHL1  H27A 9138   1.176   1.269  31.764  0.7378  1.5958  3.5039
   90CHL1  H27B 9139   1.062   1.168  31.871  0.6189  1.1648  1.2879
   90CHL1  H27C 9140   1.246   1.154  31.885  0.0908  2.8413  1.3570
   91CHL1    C3 9141   1.377   0.333  33.313 -0.1278 -0.0626  0.0720
   91CHL1    H3 9142   1.416   0.249  33.251 -1.6876  0.3037 -1.5027
   91CHL1    O3 9143   1.376   0.299  33.454 -0.7048  0.3716 -0.6474
   91CHL1   H3' 9144   1.336   0.212  33.455  1.4154 -0.7218 -2.0610
   91CHL1    C4 9145   1.481   0.449  33.301  0.2853 -0.1910  0.6248
   91CHL1   H4A 9146   1.451   0.530  33.370 -1.2731  0.9746 -1.3016
   91CHL1   H4B 9147   1.583   0.415  33.328  0.1012 -5.0112 -3.3555
   91CHL1    C5 9148   1.468   0.514  33.161 -0.3314 -0.1754 -0.0185
   91CHL1    C6 9149   1.584   0.519  33.084 -0.3229 -0.7357  0.0519
   91CHL1    H6 9150   1.685   0.491  33.118 -0.2336 -0.3379  0.1247
   91CHL1    C7 9151   1.592   0.575  32.945 -0.6827 -0.0623  0.6961
   91CHL1   H7A 9152   1.681   0.637  32.925  0.6584 -2.1010 -0.0211
   91CHL1   H7B 9153   1.593   0.499  32.863  0.9338 -0.0174  0.6516
   91CHL1    C8 9154   1.465   0.662  32.915  0.4327 -0.7406  0.3184
   91CHL1    H8 9155   1.471   0.757  32.973 -2.8459 -0.1033 -0.1358
   91CHL1   C14 9156   1.468   0.710  32.769 -0.2739  0.0159  0.3466
   91CHL1   H14 9157   1.472   0.625  32.697 -2.3339  1.4508 -1.6036
   91CHL1   C15 9158   1.585   0.802  32.735 -0.6934 -0.3468 -0.6063
   91CHL1  H15A 9159   1.590   0.884  32.810 -0.7205 -0.8137 -0.0925
   91CHL1  H15B 9160   1.682   0.747  32.741 -1.0409 -0.9039 -0.0884
   91CHL1   C16 9161   1.538   0.863  32.605  0.9494 -0.1087 -0.0255
   91CHL1  H16A 9162   1.560   0.972  32.603  1.4193 -0.2085 -0.6996
   91CHL1  H16B 9163   1.612   0.828  32.530  1.6775 -2.3293  1.6305
   91CHL1   C17 9164   1.391   0.826  32.577  0.2507  0.1690 -0.0631
   91CHL1   H17 9165   1.389   0.737  32.511  1.5451 -0.3845  0.5930
   91CHL1   C13 9166   1.346   0.786  32.720  0.7660  0.8842  0.1898
   91CHL1   C18 9167   1.330   0.920  32.806 -0.4641 -0.1887  0.2116
   91CHL1  H18A 9168   1.314   0.901  32.914  2.1710  0.8900  0.8686
   91CHL1  H18B 9169   1.422   0.983  32.806  1.3190 -2.6033 -1.6531
   91CHL1  H18C 9170   1.251   0.992  32.774  0.4895  0.7003 -0.1929
   91CHL1   C12 9171   1.214   0.698  32.745 -0.8877  1.0222 -0.2697
   91CHL1  H12A 9172   1.132   0.766  32.715 -1.5536  0.6805  0.7376
   91CHL1  H12B 9173   1.227   0.604  32.687  0.5406 -0.1461  1.8121
   91CHL1   C11 9174   1.208   0.661  32.896 -0.5636  0.3220 -0.3339
   91CHL1  H11A 9175   1.190   0.749  32.961  2.5566 -0.2348  1.4887
   91CHL1  H11B 9176   1.123   0.592  32.916 -1.5684  0.8360 -2.5351
   91CHL1    C9 9177   1.333   0.586  32.952 -0.6671 -0.3312 -0.7673
   91CHL1    H9 9178   1.340   0.490  32.896 -1.8512 -0.8301 -0.0990
   91CHL1   C10 9179   1.327   0.553  33.109 -0.3924  0.4198  0.4396
   91CHL1   C19 9180   1.290   0.677  33.191 -0.5610 -0.6554 -0.3883
   91CHL1  H19A 9181   1.185   0.696  33.164 -1.1390 -1.1691  1.3471
   91CHL1  H19B 9182   1.293   0.675  33.302  3.3949  1.3370 -0.2830
   91CHL1  H19C 9183   1.355   0.763  33.166 -0.4814 -1.5094 -3.4234
   91CHL1    C1 9184   1.232   0.432  33.123 -0.0092 -0.5718  0.6025
   91CHL1   H1A 9185   1.127   0.460  33.097  0.2317 -1.4485 -1.4777
   91CHL1   H1B 9186   1.257   0.360  33.042  3.3473  0.9714  0.0974
   91CHL1    C2 9187   1.237   0.367  33.269 -0.2713 -0.3540  0.2553
   91CHL1   H2A 9188   1.171   0.277  33.261 -1.0938 -0.0422  2.5857
   91CHL1   H2B 9189   1.188   0.434  33.343 -2.8439 -1.3786 -0.3898
   91CHL1   C20 9190   1.312   0.938  32.499 -0.0976 -0.0198  0.2084
   91CHL1   H20 9191   1.308   1.026  32.566 -2.2842 -1.8473  2.6395
   91CHL1   C21 9192   1.165   0.896  32.480  0.1128  0.1034  0.4380
   91CHL1  H21A 9193   1.124   0.945  32.389 -0.1454 -1.8821 -0.5672
   91CHL1  H21B 9194   1.099   0.929  32.562 -0.6561 -1.3558  0.4446
   91CHL1  H21C 9195   1.158   0.787  32.456 -0.9980  0.3327 -0.3647
   91CHL1   C22 9196   1.390   0.968  32.369 -0.1758  0.2577  0.0842
   91CHL1  H22A 9197   1.337   1.047  32.312 -0.3247 -0.1194 -0.2978
   91CHL1  H22B 9198   1.495   1.003  32.385  0.6439  0.6578 -4.7783
   91CHL1   C23 9199   1.379   0.854  32.264  0.2131 -1.4411  0.1477
   91CHL1  H23A 9200   1.419   0.763  32.313 -1.9279 -0.9576  3.1236
   91CHL1  H23B 9201   1.271   0.843  32.242 -0.2011  0.3106  1.1054
   91CHL1   C24 9202   1.451   0.879  32.136 -0.4799 -0.0272 -0.1187
   91CHL1  H24A 9203   1.424   0.967  32.073 -0.5837 -1.0775 -1.5935
   91CHL1  H24B 9204   1.553   0.897  32.176  0.9275  1.0377 -3.7417
   91CHL1   C25 9205   1.452   0.753  32.053  0.7370  1.0572 -0.7240
   91CHL1   H25 9206   1.467   0.663  32.116  0.7124 -0.4042 -2.7206
   91CHL1   C26 9207   1.310   0.719  31.999  0.2705 -0.5054  0.3483
   91CHL1  H26A 9208   1.232   0.713  32.078 -0.1938  1.9581  0.1662
   91CHL1  H26B 9209   1.287   0.778  31.908  1.1659 -0.1183  0.3624
   91CHL1  H26C 9210   1.312   0.615  31.959 -0.1360  0.3825 -2.2116
   91CHL1   C27 9211   1.551   0.751  31.940 -0.0446 -0.2439  0.2977
   91CHL1  H27A 9212   1.525   0.815  31.853  2.7992  1.4904  0.5818
   91CHL1  H27B 9213   1.656   0.780  31.963 -0.0194 -0.3535  0.3210
   91CHL1  H27C 9214   1.553   0.651  31.891  1.0895 -0.4557  0.7375
   92CHL1    C3 9215   3.202   1.189  41.505  0.3194 -0.0148  0.7561
   92CHL1    H3 9216   3.310   1.194  41.478 -0.1032  1.5532 -0.7981
   92CHL1    O3 9217   3.178   1.094  41.605 -0.2726 -0.5848 -0.1249
   92CHL1   H3' 9218   3.082   1.083  41.607 -0.6589  1.8982 -1.4890
   92CHL1    C4 9219   3.161   1.326  41.562 -0.8286 -0.5051 -0.6014
   92CHL1   H4A 9220   3.052   1.333  41.584 -1.3888  3.3394 -3.4432
   92CHL1   H4B 9221   3.220   1.344  41.654  0.2129  0.0761 -1.3624
   92CHL1    C5 9222   3.177   1.434  41.457 -0.4768 -0.4365 -0.0812
   92CHL1    C6 9223   3.241   1.548  41.490  0.0943 -0.0685 -0.0622
   92CHL1    H6 9224   3.283   1.550  41.592  0.5559 -2.9224 -0.1078
   92CHL1    C7 9225   3.248   1.678  41.415  0.1975 -0.6525 -0.3201
   92CHL1   H7A 9226   3.213   1.761  41.480 -2.1984 -0.4142 -1.8254
   92CHL1   H7B 9227   3.355   1.695  41.388  0.2541  0.0374  0.3054
   92CHL1    C8 9228   3.173   1.669  41.283  0.0818  0.1021  0.5025
   92CHL1    H8 9229   3.068   1.696  41.309 -0.2542 -1.1849  0.5413
   92CHL1   C14 9230   3.241   1.766  41.184 -0.7763 -0.6761  0.2943
   92CHL1   H14 9231   3.342   1.729  41.155 -0.6664  0.5170 -0.9393
   92CHL1   C15 9232   3.253   1.908  41.225  0.2079 -0.3301 -1.2044
   92CHL1  H15A 9233   3.158   1.942  41.271  1.1275  2.3075 -1.0409
   92CHL1  H15B 9234   3.338   1.929  41.294  1.5211 -0.7048 -2.6468
   92CHL1   C16 9235   3.289   1.988  41.089  0.1549  1.0173 -0.0697
   92CHL1  H16A 9236   3.219   2.075  41.089 -1.4085 -0.1625 -2.0393
   92CHL1  H16B 9237   3.394   2.022  41.084  0.1024  1.2038  0.0805
   92CHL1   C17 9238   3.256   1.885  40.972 -0.3853 -0.2551 -0.5343
   92CHL1   H17 9239   3.344   1.822  40.949 -0.7761 -1.2298  0.4937
   92CHL1   C13 9240   3.169   1.777  41.043 -0.3939  0.2245 -0.3570
   92CHL1   C18 9241   3.026   1.824  41.044 -0.4925  0.1886  0.3991
   92CHL1  H18A 9242   3.014   1.928  41.078 -0.0245  0.1614  0.6519
   92CHL1  H18B 9243   2.981   1.803  40.944  1.1811 -3.5447  0.2319
   92CHL1  H18C 9244   2.959   1.761  41.105 -2.6034  0.3229 -1.6531
   92CHL1   C12 9245   3.169   1.636  40.988 -0.6524  0.5420  0.2617
   92CHL1  H12A 9246   3.121   1.623  40.889  1.4565  0.3298 -0.7666
   92CHL1  H12B 9247   3.273   1.606  40.963 -0.7576  0.1667  0.2703
   92CHL1   C11 9248   3.103   1.532  41.083 -0.1368 -0.0666 -0.1148
   92CHL1  H11A 9249   2.996   1.560  41.097  1.1196  3.6132  4.4755
   92CHL1  H11B 9250   3.112   1.437  41.026  2.2012  0.8970 -1.4968
   92CHL1    C9 9251   3.171   1.526  41.224  0.1257  0.6096  0.2704
   92CHL1    H9 9252   3.276   1.496  41.205 -0.7832 -1.8655 -1.3716
   92CHL1   C10 9253   3.105   1.412  41.322 -0.0582  0.0896  0.5886
   92CHL1   C19 9254   2.951   1.421  41.323 -0.0708  0.3254 -0.1264
   92CHL1  H19A 9255   2.899   1.392  41.229 -1.4218 -0.5442  0.8453
   92CHL1  H19B 9256   2.917   1.343  41.396  3.0928 -2.8369 -1.7316
   92CHL1  H19C 9257   2.910   1.517  41.362 -4.0660 -1.8057  1.5939
   92CHL1    C1 9258   3.134   1.265  41.272  0.0899 -0.0737  0.0689
   92CHL1   H1A 9259   3.065   1.239  41.189  0.5139 -2.8812  0.4903
   92CHL1   H1B 9260   3.238   1.250  41.237 -0.5504 -2.8883 -0.9485
   92CHL1    C2 9261   3.112   1.157  41.387  0.2506 -0.1579  0.2244
   92CHL1   H2A 9262   3.121   1.054  41.347 -1.9829 -0.4692  0.3903
   92CHL1   H2B 9263   3.012   1.172  41.434  1.3661  0.8147  2.4452
   92CHL1   C20 9264   3.206   1.962  40.852 -0.0166 -0.2390 -0.2579
   92CHL1   H20 9265   3.104   2.001  40.871 -0.0403 -1.0270  1.4082
   92CHL1   C21 9266   3.186   1.876  40.733  0.0322 -0.1636  0.3521
   92CHL1  H21A 9267   3.277   1.812  40.729 -0.5634 -1.1077  1.3841
   92CHL1  H21B 9268   3.185   1.955  40.654  1.1297  0.5487  1.0303
   92CHL1  H21C 9269   3.100   1.807  40.747  0.3374 -0.4073  1.0636
   92CHL1   C22 9270   3.283   2.091  40.813  0.0266  0.5069  0.6192
   92CHL1  H22A 9271   3.236   2.160  40.738  1.2725  0.4278 -0.2689
   92CHL1  H22B 9272   3.300   2.152  40.905 -0.0035  0.7496  0.4650
   92CHL1   C23 9273   3.424   2.058  40.767  0.2469 -0.7229  0.0853
   92CHL1  H23A 9274   3.462   1.985  40.842 -0.1467 -0.7188  0.2939
   92CHL1  H23B 9275   3.416   1.994  40.677  0.0967 -0.3358 -0.1784
   92CHL1   C24 9276   3.516   2.183  40.743  0.3953  0.4310  0.6990
   92CHL1  H24A 9277   3.459   2.240  40.667  0.7685  0.2015  0.2334
   92CHL1  H24B 9278   3.530   2.252  40.828  1.1780  1.1124  0.0325
   92CHL1   C25 9279   3.653   2.144  40.686  0.1548 -0.3340  0.2732
   92CHL1   H25 9280   3.639   2.070  40.604 -0.0976  0.5447 -0.4906
   92CHL1   C26 9281   3.735   2.262  40.639 -0.5069 -0.1613 -0.1897
   92CHL1  H26A 9282   3.682   2.320  40.560  1.2314  0.3727 -1.0282
   92CHL1  H26B 9283   3.737   2.330  40.727 -1.1397 -0.6411  0.2000
   92CHL1  H26C 9284   3.836   2.229  40.606 -1.1458 -0.2983 -2.1442
   92CHL1   C27 9285   3.728   2.064  40.796  0.3567  0.5697  0.4804
   92CHL1  H27A 9286   3.823   2.032  40.747 -0.4546  0.0890 -0.7983
   92CHL1  H27B 9287   3.758   2.120  40.887  1.9242 -0.0411  0.3884
   92CHL1  H27C 9288   3.677   1.971  40.827 -0.8459  0.5842 -1.3257
   93CHL1    C3 9289   0.076   0.816  27.299 -0.2254  0.2921 -0.3318
   93CHL1    H3 9290   0.128   0.822  27.397 -0.0540  0.7423 -0.4483
   93CHL1    O3 9291  -0.048   0.879  27.305 -0.7617  0.3052  0.5205
   93CHL1   H3' 9292  -0.107   0.817  27.349  0.7160 -0.5817  1.3114
   93CHL1    C4 9293   0.164   0.877  27.186  0.2306 -0.8754 -0.0904
   93CHL1   H4A 9294   0.105   0.882  27.092  1.5344  3.3859 -0.8959
   93CHL1   H4B 9295   0.164   0.979  27.230 -1.8376 -0.9926  0.2755
   93CHL1    C5 9296   0.293   0.811  27.164  1.0331  0.3515 -0.1110
   93CHL1    C6 9297   0.409   0.871  27.167  0.4511 -0.4167  0.0986
   93CHL1    H6 9298   0.411   0.978  27.191  2.2754 -0.2570 -0.6119
   93CHL1    C7 9299   0.541   0.804  27.143  0.4112 -0.1106 -0.3867
   93CHL1   H7A 9300   0.612   0.877  27.099  0.2921  1.5008  1.9025
   93CHL1   H7B 9301   0.579   0.784  27.246 -2.5254 -0.5249  0.7202
   93CHL1    C8 9302   0.529   0.667  27.072  0.2127  0.7079  0.7953
   93CHL1    H8 9303   0.506   0.679  26.963  0.8043 -0.8644  0.4809
   93CHL1   C14 9304   0.661   0.588  27.085 -0.2295  0.3505  0.3752
   93CHL1   H14 9305   0.693   0.570  27.190  0.7893 -0.6160 -0.0881
   93CHL1   C15 9306   0.785   0.662  27.027 -0.3051  0.0751  0.3982
   93CHL1  H15A 9307   0.764   0.695  26.923 -0.7502 -2.1370 -0.2624
   93CHL1  H15B 9308   0.829   0.737  27.096 -1.2721  0.3710  0.7070
   93CHL1   C16 9309   0.886   0.540  27.006 -0.1892  0.0878  0.4158
   93CHL1  H16A 9310   0.907   0.539  26.897  0.1988  0.6995  0.4825
   93CHL1  H16B 9311   0.981   0.535  27.062 -0.7427  1.6399  1.5578
   93CHL1   C17 9312   0.803   0.406  27.047  0.7389 -0.3860  0.4014
   93CHL1   H17 9313   0.814   0.401  27.158 -0.8071 -0.2415  0.5745
   93CHL1   C13 9314   0.656   0.447  27.026  0.0555 -0.3467  0.3391
   93CHL1   C18 9315   0.634   0.453  26.875  0.2568 -0.1015  0.3730
   93CHL1  H18A 9316   0.714   0.505  26.818  0.9742 -0.1598  1.3128
   93CHL1  H18B 9317   0.636   0.354  26.824  1.4969 -0.3988  0.9798
   93CHL1  H18C 9318   0.542   0.507  26.844  0.5437  0.1451 -0.0633
   93CHL1   C12 9319   0.544   0.368  27.091 -0.0167 -0.1457  0.9163
   93CHL1  H12A 9320   0.527   0.280  27.025 -0.1446  0.5726 -0.0259
   93CHL1  H12B 9321   0.561   0.326  27.192 -2.2845  1.7358  2.1720
   93CHL1   C11 9322   0.414   0.443  27.093  0.7272 -0.7439  0.6414
   93CHL1  H11A 9323   0.382   0.440  26.987  0.1592 -2.1186  0.8377
   93CHL1  H11B 9324   0.328   0.391  27.142  0.0084  0.1404  0.3506
   93CHL1    C9 9325   0.419   0.590  27.136  0.4384  0.2808  0.4071
   93CHL1    H9 9326   0.442   0.588  27.245  0.3235  0.9463  0.4519
   93CHL1   C10 9327   0.280   0.657  27.139  0.1071 -0.6033  0.9413
   93CHL1   C19 9328   0.219   0.647  26.995  0.5636  0.2713 -1.0714
   93CHL1  H19A 9329   0.136   0.720  26.983  1.0884  0.9066 -0.8988
   93CHL1  H19B 9330   0.294   0.657  26.914  1.1595  1.6508 -0.3841
   93CHL1  H19C 9331   0.174   0.545  26.988 -1.6295  1.2651 -2.7990
   93CHL1    C1 9332   0.182   0.597  27.246 -0.1985 -0.1039  0.1630
   93CHL1   H1A 9333   0.155   0.494  27.217  3.4151 -0.7016 -1.6203
   93CHL1   H1B 9334   0.243   0.610  27.338  1.0780  0.1999 -0.6958
   93CHL1    C2 9335   0.045   0.676  27.261 -0.9280  0.1598  0.1130
   93CHL1   H2A 9336  -0.014   0.629  27.343 -0.8031  1.4054  0.9400
   93CHL1   H2B 9337  -0.006   0.671  27.162  0.9620 -0.6849 -0.8862
   93CHL1   C20 9338   0.864   0.278  26.995 -0.4894  0.2150  0.2438
   93CHL1   H20 9339   0.867   0.290  26.884  0.1557 -2.2963 -0.0686
   93CHL1   C21 9340   0.773   0.157  27.006 -0.0826  0.7332  0.0228
   93CHL1  H21A 9341   0.681   0.170  26.945 -2.7857 -0.3514  3.4744
   93CHL1  H21B 9342   0.721   0.161  27.105 -1.2654  2.5600 -0.6109
   93CHL1  H21C 9343   0.821   0.058  26.993  2.4824  1.7986  0.7440
   93CHL1   C22 9344   1.003   0.258  27.054 -0.2147 -0.0578  0.3830
   93CHL1  H22A 9345   1.076   0.340  27.036  1.3346 -0.9146  2.3543
   93CHL1  H22B 9346   0.988   0.245  27.163  0.9613 -0.3095  0.5230
   93CHL1   C23 9347   1.069   0.132  26.998  0.0891 -0.4358 -0.3431
   93CHL1  H23A 9348   1.016   0.040  27.031  2.4131 -0.8486  2.7132
   93CHL1  H23B 9349   1.073   0.140  26.887 -0.5476  1.4261 -0.2661
   93CHL1   C24 9350   1.212   0.115  27.042 -0.4375 -0.7548  0.6572
   93CHL1  H24A 9351   1.252   0.021  26.997 -0.5551 -0.3369 -0.3246
   93CHL1  H24B 9352   1.265   0.205  27.004 -0.4899 -1.1365 -0.3480
   93CHL1   C25 9353   1.238   0.099  27.192 -0.0795 -0.4484  0.1822
   93CHL1   H25 9354   1.206   0.194  27.240 -0.1848  0.8708 -2.3240
   93CHL1   C26 9355   1.155  -0.017  27.248  0.0225  0.4259  0.0121
   93CHL1  H26A 9356   1.182  -0.012  27.356  1.5011  2.9143 -0.4049
   93CHL1  H26B 9357   1.047  -0.007  27.222 -0.2272  1.1891  1.2144
   93CHL1  H26C 9358   1.192  -0.115  27.213 -2.5103 -1.3307  1.8581
   93CHL1   C27 9359   1.380   0.069  27.225 -0.9352  0.0664  0.0268
   93CHL1  H27A 9360   1.401   0.078  27.334 -0.6714  1.0027 -0.0918
   93CHL1  H27B 9361   1.406  -0.033  27.190 -0.3808  0.6365 -1.2852
   93CHL1  H27C 9362   1.450   0.134  27.169  2.7692 -3.7318 -0.2634
   94CHL1    C3 9363   3.364   0.293  28.377 -0.1946 -0.0872  0.5268
   94CHL1    H3 9364   3.337   0.305  28.270 -0.4972  1.6184  0.7691
   94CHL1    O3 9365   3.272   0.373  28.452  0.1288  0.3629  0.4717
   94CHL1   H3' 9366   3.311   0.392  28.537 -0.0661  0.6338  0.5014
   94CHL1    C4 9367   3.360   0.143  28.419 -0.3323  0.5034  0.3104
   94CHL1   H4A 9368   3.389   0.138  28.526 -2.3381  3.5707  1.1223
   94CHL1   H4B 9369   3.252   0.115  28.420  0.1480 -1.4764  0.7103
   94CHL1    C5 9370   3.450   0.063  28.326  0.1944  0.4034  0.4920
   94CHL1    C6 9371   3.403  -0.046  28.259  0.4278 -0.1474 -0.7841
   94CHL1    H6 9372   3.304  -0.087  28.282 -0.1376  1.2846 -0.5387
   94CHL1    C7 9373   3.487  -0.110  28.162 -0.3728 -0.1208 -0.1089
   94CHL1   H7A 9374   3.463  -0.219  28.155  1.8394 -0.7068  0.6148
   94CHL1   H7B 9375   3.459  -0.073  28.061  3.0951  0.1962 -1.1054
   94CHL1    C8 9376   3.641  -0.102  28.178  0.0717  0.1015 -0.5300
   94CHL1    H8 9377   3.672  -0.160  28.267  2.4465  2.1903  0.1038
   94CHL1   C14 9378   3.721  -0.153  28.067 -0.3167  0.5181 -0.2424
   94CHL1   H14 9379   3.697  -0.083  27.983  0.3247  1.5867  0.4313
   94CHL1   C15 9380   3.686  -0.293  28.002  0.3058 -0.6824  0.3226
   94CHL1  H15A 9381   3.672  -0.365  28.086 -0.0926 -1.6639 -0.5559
   94CHL1  H15B 9382   3.599  -0.280  27.934 -0.2810  2.1112  1.4543
   94CHL1   C16 9383   3.810  -0.336  27.920 -1.2190 -0.4165 -0.6395
   94CHL1  H16A 9384   3.849  -0.429  27.967 -0.6707 -0.8180 -1.8651
   94CHL1  H16B 9385   3.790  -0.347  27.811 -0.2768  1.3022 -1.0237
   94CHL1   C17 9386   3.915  -0.220  27.944  0.2708 -0.6664  0.2174
   94CHL1   H17 9387   3.883  -0.137  27.877 -3.2196 -1.8860  0.1319
   94CHL1   C13 9388   3.873  -0.159  28.075  0.2691 -0.0160 -0.5078
   94CHL1   C18 9389   3.912  -0.253  28.193  0.2454 -0.0866  0.1664
   94CHL1  H18A 9390   3.873  -0.355  28.174 -0.9917  0.6823 -1.9430
   94CHL1  H18B 9391   4.022  -0.258  28.198  0.2000 -4.0899  0.2426
   94CHL1  H18C 9392   3.872  -0.219  28.291  0.4496  1.7062 -0.3219
   94CHL1   C12 9393   3.914  -0.011  28.107  0.0075 -0.0771 -0.2722
   94CHL1  H12A 9394   4.023  -0.016  28.126 -0.5436 -1.9094  3.4174
   94CHL1  H12B 9395   3.893   0.044  28.013 -0.8427 -2.8269 -1.8061
   94CHL1   C11 9396   3.838   0.065  28.230 -0.0174  0.5686  0.6507
   94CHL1  H11A 9397   3.874   0.008  28.318  0.5183  0.3355  0.2868
   94CHL1  H11B 9398   3.873   0.170  28.235  1.0024  0.3125 -0.5645
   94CHL1    C9 9399   3.685   0.045  28.215 -0.1888  0.2786 -0.2411
   94CHL1    H9 9400   3.649   0.100  28.125  0.1183  0.9320  0.0287
   94CHL1   C10 9401   3.596   0.119  28.324 -0.9154 -0.0672 -0.1516
   94CHL1   C19 9402   3.653   0.093  28.464 -0.0144  0.3005  0.3978
   94CHL1  H19A 9403   3.754   0.135  28.482 -0.1606  1.0263 -0.3690
   94CHL1  H19B 9404   3.592   0.132  28.548 -1.3565 -2.1157  0.6637
   94CHL1  H19C 9405   3.648  -0.017  28.478 -2.7517 -0.0485 -2.1786
   94CHL1    C1 9406   3.604   0.271  28.296 -0.5318 -0.3930 -0.8029
   94CHL1   H1A 9407   3.703   0.320  28.301 -0.4957 -0.5490  0.4272
   94CHL1   H1B 9408   3.554   0.290  28.198 -0.1531  1.0968 -0.7411
   94CHL1    C2 9409   3.504   0.347  28.383  0.1458 -1.0808 -0.0276
   94CHL1   H2A 9410   3.494   0.450  28.342  1.0508 -0.5076  1.1379
   94CHL1   H2B 9411   3.534   0.347  28.490  0.8707 -2.7495 -0.2021
   94CHL1   C20 9412   4.057  -0.244  27.922 -0.0392  0.7780  0.0423
   94CHL1   H20 9413   4.127  -0.180  27.981  3.1567 -2.2881 -0.0710
   94CHL1   C21 9414   4.096  -0.194  27.779 -0.2554  0.0988 -0.5311
   94CHL1  H21A 9415   4.043  -0.248  27.697 -0.4419  0.4647 -0.6521
   94CHL1  H21B 9416   4.202  -0.224  27.768 -0.1933 -0.3505  1.0253
   94CHL1  H21C 9417   4.101  -0.085  27.761  1.4449 -0.1233 -1.5520
   94CHL1   C22 9418   4.105  -0.391  27.949  0.4537  0.2295  0.6779
   94CHL1  H22A 9419   4.071  -0.413  28.052 -2.0489 -0.0966 -0.1390
   94CHL1  H22B 9420   4.066  -0.462  27.872  1.0441  1.5272 -0.8675
   94CHL1   C23 9421   4.256  -0.407  27.967  0.2996 -0.6327  0.4712
   94CHL1  H23A 9422   4.304  -0.318  27.922  0.5087 -0.6182  0.7219
   94CHL1  H23B 9423   4.276  -0.384  28.074  2.0143  0.5713 -0.0704
   94CHL1   C24 9424   4.308  -0.537  27.913  0.7063  0.1454 -0.0769
   94CHL1  H24A 9425   4.247  -0.619  27.956  2.9463 -2.2007 -1.0968
   94CHL1  H24B 9426   4.296  -0.537  27.803 -0.6416 -1.1956  0.0358
   94CHL1   C25 9427   4.462  -0.574  27.942  0.0840 -0.4815  0.0031
   94CHL1   H25 9428   4.474  -0.557  28.051  0.1665 -1.1176  0.1004
   94CHL1   C26 9429   4.506  -0.706  27.910 -0.3802  0.4220 -0.0538
   94CHL1  H26A 9430   4.614  -0.715  27.933 -0.4403 -0.1335  0.0330
   94CHL1  H26B 9431   4.453  -0.784  27.969  2.1380  0.2234  2.1236
   94CHL1  H26C 9432   4.488  -0.732  27.803 -1.3594  0.1059  0.1681
   94CHL1   C27 9433   4.554  -0.462  27.877 -0.6239  0.0230  0.2431
   94CHL1  H27A 9434   4.578  -0.490  27.773 -0.2753  1.1601  0.0016
   94CHL1  H27B 9435   4.509  -0.360  27.878 -2.2580 -0.6543 -0.2050
   94CHL1  H27C 9436   4.653  -0.455  27.926 -0.2413  0.1816 -0.5557
   95CHL1    C3 9437   0.253   0.205  31.352  0.3864  0.4120 -0.7634
   95CHL1    H3 9438   0.196   0.111  31.366 -0.1572  0.8362 -0.0559
   95CHL1    O3 9439   0.205   0.287  31.249 -0.4567  0.1572 -0.1520
   95CHL1   H3' 9440   0.260   0.364  31.238 -0.4044  0.0435 -0.7163
   95CHL1    C4 9441   0.246   0.286  31.488  0.2871 -0.4294  0.0050
   95CHL1   H4A 9442   0.315   0.372  31.480  2.3957 -1.8428  1.8796
   95CHL1   H4B 9443   0.148   0.327  31.520  0.2581 -1.9007  1.9744
   95CHL1    C5 9444   0.289   0.196  31.606  0.0548 -0.6166  0.3317
   95CHL1    C6 9445   0.202   0.180  31.704 -0.2826 -0.0538  0.0528
   95CHL1    H6 9446   0.123   0.255  31.712  1.1148  1.7025 -1.7106
   95CHL1    C7 9447   0.221   0.080  31.811 -0.2496 -0.2519  0.4829
   95CHL1   H7A 9448   0.198   0.129  31.908  1.2493 -1.0975  1.3069
   95CHL1   H7B 9449   0.144   0.001  31.797  0.0169 -0.6364  1.1409
   95CHL1    C8 9450   0.367   0.017  31.820 -0.3346 -0.8477 -0.1909
   95CHL1    H8 9451   0.440   0.095  31.850 -0.0704 -0.6653 -1.2586
   95CHL1   C14 9452   0.365  -0.104  31.916 -0.3709 -0.2484  0.1589
   95CHL1   H14 9453   0.297  -0.173  31.861  0.2971  0.4561 -1.6447
   95CHL1   C15 9454   0.306  -0.091  32.057  0.4272  0.2896  0.2526
   95CHL1  H15A 9455   0.343  -0.007  32.119 -1.3879  0.7128  0.8173
   95CHL1  H15B 9456   0.197  -0.075  32.044  0.8552  1.5269 -2.5497
   95CHL1   C16 9457   0.348  -0.218  32.125  0.6754  0.3797  0.1574
   95CHL1  H16A 9458   0.389  -0.198  32.226 -1.7076  1.0814  1.0637
   95CHL1  H16B 9459   0.267  -0.291  32.144 -0.2900  1.7692  1.6949
   95CHL1   C17 9460   0.463  -0.281  32.036  0.2993  0.4081  0.6183
   95CHL1   H17 9461   0.416  -0.366  31.981 -0.3224  2.3170 -1.9887
   95CHL1   C13 9462   0.500  -0.169  31.933  0.2190 -0.1428  0.1220
   95CHL1   C18 9463   0.609  -0.071  31.999  0.4099 -0.3200 -0.5306
   95CHL1  H18A 9464   0.610   0.017  31.930  1.7842  1.7238  1.9168
   95CHL1  H18B 9465   0.574  -0.034  32.097  2.0827 -1.4852  0.5516
   95CHL1  H18C 9466   0.709  -0.119  32.004 -0.3414 -2.0132 -1.2648
   95CHL1   C12 9467   0.547  -0.223  31.793 -0.0963  0.2602  0.5628
   95CHL1  H12A 9468   0.649  -0.266  31.796 -0.2364 -0.0456  0.9760
   95CHL1  H12B 9469   0.473  -0.299  31.760  1.2703 -0.2611 -1.5176
   95CHL1   C11 9470   0.548  -0.107  31.687 -0.2644 -0.0072  0.2409
   95CHL1  H11A 9471   0.624  -0.029  31.710  0.2935 -0.5690  0.3298
   95CHL1  H11B 9472   0.580  -0.152  31.591  1.0052  0.9670  0.1792
   95CHL1    C9 9473   0.417  -0.025  31.681 -0.2608 -0.3084  0.0793
   95CHL1    H9 9474   0.348  -0.107  31.650  0.2305 -0.6123 -0.2257
   95CHL1   C10 9475   0.415   0.101  31.583  0.2382  0.7451 -0.1809
   95CHL1   C19 9476   0.540   0.189  31.605  0.1046 -0.4809  0.1425
   95CHL1  H19A 9477   0.634   0.138  31.575  0.2680  0.4784 -1.0196
   95CHL1  H19B 9478   0.533   0.285  31.551 -2.0420  1.6125  3.7355
   95CHL1  H19C 9479   0.545   0.233  31.707  1.1485  0.1671 -0.1692
   95CHL1    C1 9480   0.415   0.037  31.445  0.5081  0.5108  0.0430
   95CHL1   H1A 9481   0.513  -0.013  31.431 -0.6035 -1.7777  0.1021
   95CHL1   H1B 9482   0.334  -0.038  31.430  1.3077 -0.4072  0.2217
   95CHL1    C2 9483   0.389   0.150  31.340  0.5569  0.0396  0.0458
   95CHL1   H2A 9484   0.405   0.114  31.236  0.3140  2.0625 -0.7555
   95CHL1   H2B 9485   0.457   0.235  31.363  0.6760  1.2751 -4.0118
   95CHL1   C20 9486   0.578  -0.353  32.112 -0.9434 -0.1382  0.3346
   95CHL1   H20 9487   0.634  -0.279  32.173 -1.9885  2.5031 -1.6884
   95CHL1   C21 9488   0.682  -0.418  32.016  0.0512 -0.3663 -0.7345
   95CHL1  H21A 9489   0.733  -0.340  31.955 -0.3088  0.1982 -0.3233
   95CHL1  H21B 9490   0.639  -0.499  31.953 -1.4067 -1.2639  1.2987
   95CHL1  H21C 9491   0.767  -0.461  32.073  0.4679  1.5382  0.1449
   95CHL1   C22 9492   0.522  -0.464  32.199 -0.1419 -0.1087 -0.6533
   95CHL1  H22A 9493   0.444  -0.411  32.259 -0.3821 -2.3104  1.0791
   95CHL1  H22B 9494   0.461  -0.533  32.137  0.5726 -0.3599 -1.0858
   95CHL1   C23 9495   0.610  -0.524  32.301  0.0645  0.4553 -0.0372
   95CHL1  H23A 9496   0.696  -0.457  32.324 -1.1119  1.8835  0.2857
   95CHL1  H23B 9497   0.555  -0.536  32.397 -0.6745 -1.1587 -0.6284
   95CHL1   C24 9498   0.672  -0.654  32.253  0.5307  0.2460  0.3750
   95CHL1  H24A 9499   0.588  -0.727  32.249  1.1497 -0.4891 -3.5285
   95CHL1  H24B 9500   0.707  -0.646  32.148  1.0587 -0.3983  0.4895
   95CHL1   C25 9501   0.791  -0.697  32.342  0.3009  0.1431  0.0087
   95CHL1   H25 9502   0.880  -0.631  32.338  0.5145 -0.1076  0.5210
   95CHL1   C26 9503   0.736  -0.692  32.491 -0.3853  0.1722  0.0174
   95CHL1  H26A 9504   0.728  -0.597  32.548 -0.5346  0.0098  0.2698
   95CHL1  H26B 9505   0.638  -0.742  32.497 -0.6948  0.4167 -2.1016
   95CHL1  H26C 9506   0.805  -0.760  32.545  0.0097  0.4156 -0.1704
   95CHL1   C27 9507   0.837  -0.831  32.302 -0.2703 -0.6598 -0.0356
   95CHL1  H27A 9508   0.779  -0.915  32.346 -0.8881 -0.6266 -0.7676
   95CHL1  H27B 9509   0.844  -0.850  32.193 -0.6839  1.3646 -0.4494
   95CHL1  H27C 9510   0.944  -0.843  32.329  0.7595  3.1381 -1.8065
   96CHL1    C3 9511   0.170   2.488  29.754  0.2872 -0.6610  0.1287
   96CHL1    H3 9512   0.147   2.462  29.649 -2.2798  0.8540  0.2301
   96CHL1    O3 9513   0.055   2.505  29.828  1.0167 -0.4287  0.4123
   96CHL1   H3' 9514   0.074   2.530  29.918  0.1353  0.0601  0.4791
   96CHL1    C4 9515   0.243   2.370  29.822 -0.1716 -0.6477  0.1981
   96CHL1   H4A 9516   0.268   2.393  29.927  1.9232  0.3263 -0.4576
   96CHL1   H4B 9517   0.173   2.283  29.819  0.2906 -1.0132 -1.5607
   96CHL1    C5 9518   0.373   2.349  29.757 -0.0115 -0.0990 -0.1120
   96CHL1    C6 9519   0.397   2.228  29.703 -0.1328  0.4857  0.2638
   96CHL1    H6 9520   0.324   2.146  29.708  0.4709 -0.1845 -1.2867
   96CHL1    C7 9521   0.528   2.192  29.631  0.1193  0.8996  0.0523
   96CHL1   H7A 9522   0.570   2.093  29.661 -0.8389  0.5669  0.3517
   96CHL1   H7B 9523   0.490   2.168  29.530 -2.0250  1.9084  0.5610
   96CHL1    C8 9524   0.636   2.304  29.641  0.5919 -0.1708  0.3840
   96CHL1    H8 9525   0.683   2.293  29.742  4.7093  1.1521 -1.1606
   96CHL1   C14 9526   0.742   2.284  29.528 -0.2308  0.2707  0.1197
   96CHL1   H14 9527   0.679   2.288  29.437 -2.1593  0.9863  1.4342
   96CHL1   C15 9528   0.805   2.144  29.509  0.2203  0.0982 -0.0222
   96CHL1  H15A 9529   0.860   2.098  29.595 -2.8248 -0.2372  1.8909
   96CHL1  H15B 9530   0.735   2.067  29.471 -0.6325  1.4872 -1.3405
   96CHL1   C16 9531   0.900   2.174  29.395 -0.1490  0.1811 -0.1724
   96CHL1  H16A 9532   0.990   2.112  29.409 -0.0515  0.0467 -1.3383
   96CHL1  H16B 9533   0.846   2.166  29.299 -1.8303  1.2478  0.6254
   96CHL1   C17 9534   0.934   2.332  29.407 -0.3267  0.5538 -0.2457
   96CHL1   H17 9535   0.878   2.371  29.319  0.0676  1.2825 -0.1803
   96CHL1   C13 9536   0.850   2.386  29.522 -0.4348  0.4070 -0.3391
   96CHL1   C18 9537   0.936   2.372  29.651 -0.2739  0.5096 -0.2742
   96CHL1  H18A 9538   1.014   2.449  29.668 -0.8653  1.4345 -1.5552
   96CHL1  H18B 9539   0.868   2.377  29.738 -0.2018  0.1576 -0.1938
   96CHL1  H18C 9540   0.983   2.271  29.655 -2.9421 -0.7885  2.6392
   96CHL1   C12 9541   0.787   2.526  29.514 -0.6205 -0.5561 -0.5902
   96CHL1  H12A 9542   0.875   2.593  29.524 -0.0284 -1.1744 -1.5829
   96CHL1  H12B 9543   0.742   2.536  29.413  1.4485 -0.9279 -1.5855
   96CHL1   C11 9544   0.685   2.556  29.632 -0.5131 -0.3745 -0.2378
   96CHL1  H11A 9545   0.749   2.551  29.723 -1.1398  1.0920  0.3228
   96CHL1  H11B 9546   0.645   2.659  29.624  0.1245  0.0387  1.4715
   96CHL1    C9 9547   0.577   2.449  29.634 -1.2868  0.2217 -0.7678
   96CHL1    H9 9548   0.539   2.460  29.531  0.0740  0.9542 -1.2231
   96CHL1   C10 9549   0.463   2.475  29.746 -0.2246  0.2806 -0.2072
   96CHL1   C19 9550   0.522   2.511  29.886 -0.2169 -0.3769  0.6033
   96CHL1  H19A 9551   0.430   2.536  29.944 -0.6937 -1.6432  0.4136
   96CHL1  H19B 9552   0.586   2.430  29.928  0.3750  0.2421  0.9107
   96CHL1  H19C 9553   0.581   2.604  29.876  1.3293 -1.4190 -0.2313
   96CHL1    C1 9554   0.383   2.599  29.698  0.0835  0.4607 -0.5803
   96CHL1   H1A 9555   0.445   2.687  29.726 -0.7221  1.3404 -1.4728
   96CHL1   H1B 9556   0.363   2.607  29.589  1.0632 -0.3906 -0.8415
   96CHL1    C2 9557   0.252   2.621  29.770 -0.1003 -0.1227 -0.1472
   96CHL1   H2A 9558   0.197   2.706  29.725  0.5685  0.1397 -0.4714
   96CHL1   H2B 9559   0.267   2.635  29.880  0.6781 -2.0456  0.0355
   96CHL1   C20 9560   1.079   2.374  29.394 -0.2004 -0.2023 -0.0743
   96CHL1   H20 9561   1.139   2.354  29.485  0.4050  0.1514 -0.3902
   96CHL1   C21 9562   1.093   2.529  29.375  0.5052  0.5951 -0.2978
   96CHL1  H21A 9563   1.073   2.582  29.471 -0.3851 -4.7292  2.8834
   96CHL1  H21B 9564   1.004   2.560  29.316  0.5331 -1.4099 -1.4532
   96CHL1  H21C 9565   1.186   2.568  29.330  1.3416  2.2936  2.6304
   96CHL1   C22 9566   1.165   2.309  29.284  0.5603  0.9322  0.1529
   96CHL1  H22A 9567   1.130   2.206  29.259 -0.9930  1.5654 -0.3925
   96CHL1  H22B 9568   1.136   2.367  29.193 -1.5354  2.1004  1.4820
   96CHL1   C23 9569   1.310   2.304  29.341  0.4649 -0.4024 -0.3623
   96CHL1  H23A 9570   1.334   2.407  29.377 -1.3404  0.6853 -2.0486
   96CHL1  H23B 9571   1.296   2.234  29.426  1.2089  0.4131  0.4581
   96CHL1   C24 9572   1.413   2.257  29.249 -0.4975  0.2076  0.2193
   96CHL1  H24A 9573   1.385   2.159  29.205  1.3469  0.5215 -1.8337
   96CHL1  H24B 9574   1.425   2.317  29.155 -2.1283 -1.3119 -1.0329
   96CHL1   C25 9575   1.544   2.218  29.315  0.2402  0.5451 -0.7507
   96CHL1   H25 9576   1.515   2.151  29.398 -0.7689  1.1496 -0.5962
   96CHL1   C26 9577   1.645   2.146  29.221 -0.7270  0.6713 -0.7938
   96CHL1  H26A 9578   1.597   2.073  29.152 -0.9126  0.7446 -0.7449
   96CHL1  H26B 9579   1.709   2.212  29.160  0.4256 -0.1659 -0.5170
   96CHL1  H26C 9580   1.724   2.099  29.283  2.1523  2.7423 -2.6245
   96CHL1   C27 9581   1.618   2.338  29.385  0.8096  0.5106  0.8766
   96CHL1  H27A 9582   1.661   2.394  29.300  0.6767 -1.6396 -0.6917
   96CHL1  H27B 9583   1.554   2.409  29.441  1.4980  1.3359  0.6360
   96CHL1  H27C 9584   1.704   2.302  29.446  0.5437  2.2090  2.3197
   97OSM      N 9585   1.448   1.346  38.554  0.2302 -0.4441 -0.2675
   97OSM    C15 9586   1.306   1.403  38.591 -0.1936 -0.3942 -0.6559
   97OSM   H15A 9587   1.305   1.432  38.695  3.9615 -2.5044  0.1896
   97OSM   H15B 9588   1.225   1.334  38.574  0.4253 -2.3000  3.1232
   97OSM   H15C 9589   1.294   1.493  38.531  2.1331 -0.3083 -1.1122
   97OSM    C14 9590   1.446   1.334  38.408 -0.1132 -0.3391 -0.1521
   97OSM   H14A 9591   1.452   1.428  38.356 -2.3746 -0.5713 -0.9183
   97OSM   H14B 9592   1.359   1.284  38.368  0.5405 -2.3811  0.8608
   97OSM   H14C 9593   1.528   1.270  38.377  1.5142  1.3416  0.4858
   97OSM    C13 9594   1.557   1.442  38.594  0.2420 -0.0800  0.0359
   97OSM   H13A 9595   1.658   1.406  38.580 -0.0810 -1.2460  0.6100
   97OSM   H13B 9596   1.544   1.443  38.701 -1.5773 -3.5092 -0.0518
   97OSM   H13C 9597   1.544   1.543  38.557 -1.3886 -0.7400 -1.2904
   97OSM    C12 9598   1.461   1.210  38.625 -0.8002 -0.0587 -0.5211
   97OSM   H12A 9599   1.365   1.161  38.631  0.5004 -2.7010  0.1161
   97OSM   H12B 9600   1.487   1.235  38.727  1.7636 -0.9304 -0.8907
   97OSM    C11 9601   1.572   1.115  38.576 -0.0431  0.1452  0.6004
   97OSM   H11A 9602   1.564   1.030  38.647 -0.1987  0.8036  1.3983
   97OSM   H11B 9603   1.672   1.162  38.590  0.5789 -0.8165 -0.5298
   97OSM      P 9604   1.450   0.956  38.422 -0.3012  0.0650  0.5625
   97OSM    O13 9605   1.361   0.942  38.542 -0.6612 -0.0606  0.2470
   97OSM    O14 9606   1.385   0.968  38.290 -0.0931 -0.3056  0.3010
   97OSM    O11 9607   1.532   0.829  38.428  0.0212  0.1380 -0.5003
   97OSM    O12 9608   1.559   1.074  38.438 -0.5117  0.0444 -0.2864
   97OSM    C1S 9609   1.664   0.804  38.382  0.2687 -0.5072  0.4696
   97OSM    H1S 9610   1.698   0.880  38.308  0.7218 -3.1836 -2.2614
   97OSM    H1T 9611   1.674   0.703  38.337 -0.4930  0.2105 -1.4049
   97OSM     NF 9612   1.899   0.814  38.460  0.1531 -0.0357 -0.2621
   97OSM    HNF 9613   1.938   0.728  38.491  0.7288  0.7793  1.3555
   97OSM    C2S 9614   1.766   0.827  38.504  0.0406  0.0570 -0.6033
   97OSM    H2S 9615   1.753   0.929  38.546 -0.9857 -1.3428  2.8725
   97OSM    C3S 9616   1.730   0.734  38.622  0.3737 -0.1597 -0.0034
   97OSM    H3S 9617   1.712   0.634  38.578 -2.1426  0.5725 -0.8258
   97OSM     O3 9618   1.606   0.766  38.687 -0.3834  0.3075  0.1872
   97OSM    HO3 9619   1.564   0.828  38.626 -0.3412 -1.8234 -2.1779
   97OSM    C4S 9620   1.837   0.724  38.725  0.1702 -0.0496  0.7553
   97OSM    H4S 9621   1.863   0.821  38.770  0.3481 -0.6486  2.0065
   97OSM    C5S 9622   1.895   0.611  38.767  1.0509  0.5876  0.2368
   97OSM    H5S 9623   1.865   0.524  38.708  1.2612  0.5684  0.1584
   97OSM    C6S 9624   2.016   0.583  38.860 -0.3588  0.3212 -0.1070
   97OSM    H6S 9625   2.105   0.552  38.800 -0.1437 -2.2713  1.4166
   97OSM    H6T 9626   1.994   0.503  38.933 -3.1475  0.4904 -0.6442
   97OSM    C7S 9627   2.061   0.709  38.938 -1.2182 -0.0748 -0.7420
   97OSM    H7S 9628   1.990   0.726  39.021  0.8997  1.7076  0.8301
   97OSM    H7T 9629   2.058   0.794  38.866  1.0548  0.0647 -0.7458
   97OSM    C8S 9630   2.210   0.685  38.987 -0.7444  0.7999  0.5819
   97OSM    H8S 9631   2.282   0.669  38.904 -0.5047  1.8856  0.5655
   97OSM    H8T 9632   2.208   0.592  39.047  0.2089 -0.8345 -1.7995
   97OSM    C9S 9633   2.279   0.791  39.076 -0.4164  0.1404 -0.4221
   97OSM    H9S 9634   2.229   0.818  39.171  3.4418  0.6987  1.6764
   97OSM    H9T 9635   2.300   0.886  39.022  1.1523  0.1722  0.1735
   97OSM   C10S 9636   2.413   0.734  39.112  0.4446 -0.4700 -0.2367
   97OSM   H10S 9637   2.475   0.718  39.021  1.5523 -0.1877  0.4392
   97OSM   H10T 9638   2.394   0.627  39.133  1.4657 -0.7769 -0.8013
   97OSM   C11S 9639   2.488   0.809  39.219 -0.2515 -0.1516 -0.2493
   97OSM   H11S 9640   2.449   0.784  39.320 -2.0537 -0.9048 -1.0777
   97OSM   H11T 9641   2.484   0.919  39.209  1.9896 -0.0323 -0.3064
   97OSM   C12S 9642   2.635   0.779  39.213  0.5815  0.4500  0.1450
   97OSM   H12S 9643   2.687   0.824  39.126  1.3830  1.3121  1.0432
   97OSM   H12T 9644   2.654   0.670  39.209 -0.0561  0.3270  0.3067
   97OSM   C13S 9645   2.716   0.833  39.333  0.1096 -1.1047 -0.2517
   97OSM   H13S 9646   2.691   0.757  39.410 -0.5862 -0.7829 -0.1585
   97OSM   H13T 9647   2.698   0.939  39.360  1.3447 -1.2683  1.4261
   97OSM   C14S 9648   2.870   0.819  39.302  0.0665 -0.4035 -0.0722
   97OSM   H14S 9649   2.915   0.888  39.229  2.5445  0.1028  1.7979
   97OSM   H14T 9650   2.880   0.723  39.247 -0.3446  1.0339 -2.8197
   97OSM   C15S 9651   2.960   0.814  39.423  0.3183 -0.0718 -0.1842
   97OSM   H15S 9652   2.946   0.718  39.476 -1.5212  0.1248 -0.2575
   97OSM   H15T 9653   2.925   0.888  39.497 -1.3531  0.0910 -1.0823
   97OSM   C16S 9654   3.106   0.842  39.380  0.1660 -0.7034  0.5187
   97OSM   H16S 9655   3.112   0.915  39.296  1.5851  0.0328  1.2230
   97OSM   H16T 9656   3.145   0.750  39.329  1.1177 -0.2729  0.4386
   97OSM   C17S 9657   3.201   0.891  39.489 -0.5185  0.2788 -0.5065
   97OSM   H17S 9658   3.168   0.994  39.514 -1.8215  0.0718 -1.2828
   97OSM   H17T 9659   3.303   0.906  39.448  1.1204 -0.7821  2.7528
   97OSM   C18S 9660   3.231   0.787  39.601 -0.2973  0.4088 -0.4794
   97OSM   H18S 9661   3.298   0.812  39.685  0.5542 -2.6116 -0.1637
   97OSM   H18T 9662   3.291   0.704  39.557  0.4382 -0.6409  2.3261
   97OSM   H18U 9663   3.137   0.739  39.636 -0.3784  0.3351 -0.7892
   97OSM    C1F 9664   1.973   0.909  38.395  0.2434  0.1445  0.2790
   97OSM     OF 9665   1.930   1.014  38.362 -0.1183 -0.2158 -0.5244
   97OSM    C2F 9666   2.115   0.880  38.380  0.0486 -0.2111  0.4612
   97OSM    H2F 9667   2.164   0.963  38.324  0.5899 -1.3272 -0.7849
   97OSM    H2G 9668   2.127   0.788  38.319 -1.1421 -0.6280  0.8322
   97OSM    C3F 9669   2.178   0.856  38.522 -0.5063 -0.1369 -0.0667
   97OSM    H3F 9670   2.126   0.786  38.590  0.8345  1.2859  2.5610
   97OSM    H3G 9671   2.174   0.954  38.574 -1.2403 -0.8548  1.2890
   97OSM    C4F 9672   2.325   0.819  38.514 -0.4718 -0.5493  0.5588
   97OSM    H4F 9673   2.373   0.890  38.443 -0.0863 -1.8796 -0.5516
   97OSM    H4G 9674   2.333   0.718  38.469 -0.2288 -1.0561  1.7198
   97OSM    C5F 9675   2.396   0.837  38.652 -0.6649 -0.2223  0.5362
   97OSM    H5F 9676   2.341   0.769  38.721 -2.2033 -0.3525 -0.7493
   97OSM    H5G 9677   2.384   0.941  38.690 -0.5496 -0.0231  0.0332
   97OSM    C6F 9678   2.539   0.788  38.642 -0.4831  0.3935 -0.4619
   97OSM    H6F 9679   2.576   0.825  38.544 -0.1809 -1.8961 -1.2699
   97OSM    H6G 9680   2.537   0.677  38.636 -0.0040  0.4232 -1.3705
   97OSM    C7F 9681   2.628   0.831  38.761 -0.0032  0.2992 -0.2753
   97OSM    H7F 9682   2.594   0.764  38.844  1.7307  1.1089  1.1407
   97OSM    H7G 9683   2.600   0.935  38.786 -0.0454  0.8464 -2.4214
   97OSM    C8F 9684   2.780   0.822  38.721  0.6298  0.6856 -0.2301
   97OSM    H8F 9685   2.796   0.900  38.643 -0.6686 -0.1584 -1.3875
   97OSM    H8G 9686   2.793   0.723  38.671 -1.0931  0.9249 -1.2364
   97OSM    C9F 9687   2.868   0.829  38.839 -0.1894  0.4605  0.1105
   97OSM    H9F 9688   2.843   0.909  38.911  1.8610  1.1352  0.1644
   97OSM   C10F 9689   2.971   0.745  38.875 -0.4012  0.2242  0.5721
   97OSM   H10F 9690   3.036   0.767  38.960 -0.7816  1.8522  0.4714
   97OSM   C11F 9691   3.017   0.628  38.789  0.1934 -0.6964 -0.4127
   97OSM   H11F 9692   2.927   0.574  38.753 -0.0783 -0.9336  0.5800
   97OSM   H11G 9693   3.077   0.555  38.847 -0.0395 -0.3939  0.2204
   97OSM   C12F 9694   3.099   0.668  38.670 -0.0113 -0.5533  0.1175
   97OSM   H12F 9695   3.187   0.729  38.699 -1.2071  1.2084  0.1693
   97OSM   H12G 9696   3.034   0.735  38.609  0.1420 -1.4786 -1.1155
   97OSM   C13F 9697   3.126   0.553  38.577 -0.1931 -0.5029  0.6187
   97OSM   H13F 9698   3.041   0.485  38.558  2.3487 -3.8727  0.2846
   97OSM   H13G 9699   3.197   0.488  38.632  2.5224  1.7190  0.0046
   97OSM   C14F 9700   3.179   0.596  38.436 -0.0085 -0.0801  0.6202
   97OSM   H14F 9701   3.278   0.645  38.447  0.4970 -0.7128 -0.7970
   97OSM   H14G 9702   3.105   0.670  38.397  0.4121 -0.0921 -0.2347
   97OSM   C15F 9703   3.192   0.467  38.341  0.3816 -0.8067  0.0780
   97OSM   H15F 9704   3.086   0.438  38.326 -0.1085  1.4651 -1.3719
   97OSM   H15G 9705   3.245   0.380  38.384  1.7293 -0.0539  0.0340
   97OSM   C16F 9706   3.248   0.513  38.207 -1.0466  0.4822 -0.3608
   97OSM   H16F 9707   3.357   0.534  38.213 -0.4564 -1.7974 -1.8817
   97OSM   H16G 9708   3.190   0.604  38.180 -1.7239 -0.6246 -2.9103
   97OSM   C17F 9709   3.241   0.410  38.092  0.7755 -0.1752  0.4442
   97OSM   H17F 9710   3.141   0.361  38.085  1.5885 -1.6743 -1.5724
   97OSM   H17G 9711   3.311   0.323  38.098  0.2830 -0.5017  1.7664
   97OSM   C18F 9712   3.268   0.466  37.952  0.3972  0.2349  0.2891
   97OSM   H18F 9713   3.207   0.553  37.920  0.4134  0.1389 -0.0147
   97OSM   H18G 9714   3.245   0.391  37.873 -3.7994 -0.1872  1.6378
   97OSM   H18H 9715   3.376   0.489  37.939  0.7634  0.7046  3.4033
   98OSM      N 9716   1.247   1.960  35.141 -0.2820  0.2463 -0.2024
   98OSM    C15 9717   1.235   1.820  35.079  0.5852  0.4832  0.1369
   98OSM   H15A 9718   1.278   1.823  34.980 -1.0959 -1.0450 -0.6873
   98OSM   H15B 9719   1.136   1.779  35.081  2.4210 -4.5753  0.0497
   98OSM   H15C 9720   1.295   1.747  35.131 -1.1379 -1.2234 -0.1537
   98OSM    C14 9721   1.189   1.950  35.279  0.9666  0.4580  0.0678
   98OSM   H14A 9722   1.081   1.949  35.286  0.8074 -1.3400 -1.5509
   98OSM   H14B 9723   1.219   2.031  35.343 -0.8176  0.6925  0.6725
   98OSM   H14C 9724   1.225   1.858  35.324  0.1206  0.1368  0.1199
   98OSM    C13 9725   1.393   1.992  35.153 -0.1644 -0.4913  0.0146
   98OSM   H13A 9726   1.439   1.907  35.201 -0.2006  1.2355  3.3931
   98OSM   H13B 9727   1.409   2.078  35.217  0.1669 -1.3793  1.1593
   98OSM   H13C 9728   1.442   2.006  35.058  1.7342  0.7906  1.1225
   98OSM    C12 9729   1.174   2.060  35.051  0.5862  0.4503 -0.7597
   98OSM   H12A 9730   1.158   2.157  35.095  2.3993  1.8904 -3.0355
   98OSM   H12B 9731   1.075   2.019  35.039  0.2896  1.3688 -1.5059
   98OSM    C11 9732   1.248   2.069  34.918  0.1814  0.3543  0.3913
   98OSM   H11A 9733   1.250   1.976  34.857  0.8954  0.5807  0.0578
   98OSM   H11B 9734   1.356   2.096  34.917  0.2968  0.0492 -2.1575
   98OSM      P 9735   1.063   2.145  34.746 -0.1481  0.2273  0.2180
   98OSM    O13 9736   0.997   2.016  34.778  0.4004 -0.4496 -0.1627
   98OSM    O14 9737   0.977   2.264  34.740 -0.4101 -0.0866 -0.3855
   98OSM    O11 9738   1.146   2.132  34.619 -0.1460 -0.9057 -0.8908
   98OSM    O12 9739   1.182   2.170  34.847  0.0148  0.1338 -0.0688
   98OSM    C1S 9740   1.251   2.219  34.589  0.3393  0.2712 -0.2151
   98OSM    H1S 9741   1.245   2.315  34.645 -1.1387 -1.7877  3.4865
   98OSM    H1T 9742   1.236   2.249  34.483 -2.1033  0.7337  0.2047
   98OSM     NF 9743   1.497   2.250  34.528  0.0978 -0.1820 -0.1774
   98OSM    HNF 9744   1.533   2.229  34.438  0.6788 -0.5804  0.1394
   98OSM    C2S 9745   1.400   2.160  34.594  0.0358 -0.6392  0.5669
   98OSM    H2S 9746   1.429   2.157  34.701  1.7181 -1.4222  0.1336
   98OSM    C3S 9747   1.404   2.010  34.546 -0.4821 -0.6259  0.5527
   98OSM    H3S 9748   1.393   2.017  34.436 -0.2316  0.8749  0.6021
   98OSM     O3 9749   1.304   1.926  34.601 -0.4720 -0.0315  0.7391
   98OSM    HO3 9750   1.234   1.989  34.622 -1.7536 -0.3238 -2.1014
   98OSM    C4S 9751   1.542   1.961  34.572 -0.0669  0.5681 -0.2981
   98OSM    H4S 9752   1.576   1.936  34.673 -2.3243  0.5260  0.5071
   98OSM    C5S 9753   1.643   1.950  34.481 -0.4580 -0.4206 -0.4656
   98OSM    H5S 9754   1.624   1.963  34.373  0.5208  1.0988 -0.4720
   98OSM    C6S 9755   1.791   1.913  34.515 -0.1248 -0.3573  0.3578
   98OSM    H6S 9756   1.824   1.825  34.455 -1.2887 -1.8941  1.8567
   98OSM    H6T 9757   1.804   1.883  34.621 -2.0658 -1.6232  0.2935
   98OSM    C7S 9758   1.892   2.031  34.485 -0.3861  0.0427 -0.9469
   98OSM    H7S 9759   1.868   2.114  34.554  1.0458  1.6571 -2.2998
   98OSM    H7T 9760   1.878   2.066  34.381  2.8362  1.6276 -0.9730
   98OSM    C8S 9761   2.045   1.986  34.483 -0.1450 -0.4381 -0.7469
   98OSM    H8S 9762   2.060   1.905  34.409  1.9580  1.3710 -2.4559
   98OSM    H8T 9763   2.068   1.950  34.585 -0.8057  1.6745  0.2053
   98OSM    C9S 9764   2.149   2.098  34.464  0.2320 -0.0344 -0.6000
   98OSM    H9S 9765   2.151   2.165  34.553  2.4039  2.9648 -2.6803
   98OSM    H9T 9766   2.127   2.152  34.369  1.4175  1.3351 -0.1284
   98OSM   C10S 9767   2.292   2.052  34.445 -0.5293 -0.3474 -0.2331
   98OSM   H10S 9768   2.310   1.994  34.352  2.6703 -1.5371  0.9519
   98OSM   H10T 9769   2.324   1.990  34.533  1.8125  0.3207 -0.5447
   98OSM   C11S 9770   2.386   2.175  34.451  0.2469 -0.4830  0.7292
   98OSM   H11S 9771   2.347   2.235  34.536  1.3083 -1.1029  1.6878
   98OSM   H11T 9772   2.376   2.238  34.361 -1.7094  0.0598  1.2821
   98OSM   C12S 9773   2.529   2.145  34.486 -0.1916  0.5019  0.2375
   98OSM   H12S 9774   2.594   2.178  34.402  0.0604 -1.6870 -0.4931
   98OSM   H12T 9775   2.545   2.035  34.483  0.7552  0.6356 -2.5610
   98OSM   C13S 9776   2.586   2.199  34.619  1.0191  0.4683 -0.2259
   98OSM   H13S 9777   2.690   2.165  34.635  0.2250 -0.4905  4.5605
   98OSM   H13T 9778   2.519   2.144  34.689 -1.1576 -1.1398 -3.3245
   98OSM   C14S 9779   2.601   2.348  34.613 -0.6665 -0.0154 -0.3118
   98OSM   H14S 9780   2.505   2.403  34.612  0.8594  2.8786 -2.3612
   98OSM   H14T 9781   2.658   2.376  34.522 -1.1096  0.7576 -0.3637
   98OSM   C15S 9782   2.680   2.405  34.734 -0.7563 -0.0840 -0.0849
   98OSM   H15S 9783   2.773   2.348  34.753  0.0650  1.7016  1.5793
   98OSM   H15T 9784   2.620   2.399  34.827 -1.9155  0.6148 -0.7683
   98OSM   C16S 9785   2.724   2.556  34.699 -0.0846  0.1701 -0.2132
   98OSM   H16S 9786   2.733   2.613  34.794  0.9860 -2.0529  1.0787
   98OSM   H16T 9787   2.653   2.598  34.624 -1.0040  1.1248  1.1475
   98OSM   C17S 9788   2.865   2.548  34.655 -0.7090  0.1167 -0.0927
   98OSM   H17S 9789   2.866   2.457  34.591 -2.9574 -0.3677  0.5031
   98OSM   H17T 9790   2.929   2.514  34.739  0.6793 -3.0512 -2.2087
   98OSM   C18S 9791   2.913   2.672  34.581  0.5241 -0.0819  0.0054
   98OSM   H18S 9792   3.020   2.669  34.551  0.1559 -1.4737 -1.2854
   98OSM   H18T 9793   2.903   2.754  34.656  0.7339  2.1883 -2.3401
   98OSM   H18U 9794   2.847   2.697  34.496  1.3438 -1.8384 -1.2135
   98OSM    C1F 9795   1.544   2.356  34.593 -0.5355 -0.4083 -0.4476
   98OSM     OF 9796   1.504   2.385  34.707  0.0449 -0.6313  0.1977
   98OSM    C2F 9797   1.632   2.451  34.513 -0.2432 -0.0261 -0.2732
   98OSM    H2F 9798   1.661   2.538  34.576 -1.5359  0.2549 -0.0420
   98OSM    H2G 9799   1.569   2.483  34.427 -1.3284  1.3892  1.0054
   98OSM    C3F 9800   1.771   2.391  34.461  0.0393  0.6334 -0.4372
   98OSM    H3F 9801   1.755   2.300  34.400  0.1271 -1.4579  2.4641
   98OSM    H3G 9802   1.825   2.349  34.548 -0.8298 -0.6982 -0.5100
   98OSM    C4F 9803   1.860   2.483  34.369  0.1567 -0.1597 -0.7417
   98OSM    H4F 9804   1.895   2.579  34.413  1.2645 -1.3611  1.1349
   98OSM    H4G 9805   1.802   2.510  34.278 -1.7729  0.3125  0.5620
   98OSM    C5F 9806   1.985   2.415  34.322 -0.4519  0.3909  1.0223
   98OSM    H5F 9807   1.964   2.315  34.279  0.4590 -0.4420  2.4461
   98OSM    H5G 9808   2.057   2.383  34.400 -1.6143 -1.8456  1.2528
   98OSM    C6F 9809   2.051   2.482  34.201 -0.4400 -0.5559 -0.0413
   98OSM    H6F 9810   1.974   2.506  34.124  0.3142  0.1525 -0.5981
   98OSM    H6G 9811   2.145   2.437  34.164  1.8371  4.0240 -0.5357
   98OSM    C7F 9812   2.108   2.623  34.248 -0.4512 -0.4591  0.4322
   98OSM    H7F 9813   2.194   2.605  34.314  1.7270  1.3026 -1.7513
   98OSM    H7G 9814   2.023   2.671  34.301  0.3544  1.2420  0.2379
   98OSM    C8F 9815   2.138   2.707  34.123 -0.5904 -0.4220 -0.2254
   98OSM    H8F 9816   2.054   2.732  34.055  1.1064 -0.1782 -2.3701
   98OSM    H8G 9817   2.221   2.655  34.070  0.3284 -1.8404  2.4528
   98OSM    C9F 9818   2.180   2.850  34.159 -0.6881 -0.9932 -0.8286
   98OSM    H9F 9819   2.098   2.920  34.177  0.8989  1.6978 -3.1764
   98OSM   C10F 9820   2.307   2.893  34.172  0.2226 -0.2858 -0.3821
   98OSM   H10F 9821   2.326   3.002  34.171  0.8551 -0.3928 -1.3391
   98OSM   C11F 9822   2.433   2.808  34.168  0.4493 -0.3243  0.0050
   98OSM   H11F 9823   2.515   2.877  34.139 -0.3618  1.6797  2.1714
   98OSM   H11G 9824   2.426   2.728  34.091 -0.3291 -1.3608  1.1161
   98OSM   C12F 9825   2.477   2.727  34.291 -0.4955  0.1185 -0.4359
   98OSM   H12F 9826   2.567   2.663  34.278  1.1877  2.5649 -1.6593
   98OSM   H12G 9827   2.403   2.655  34.332 -0.2226  0.3468  0.4893
   98OSM   C13F 9828   2.517   2.811  34.412  0.7684  0.6685 -0.2001
   98OSM   H13F 9829   2.511   2.919  34.385 -1.0714  0.5596 -0.3821
   98OSM   H13G 9830   2.618   2.783  34.448  1.6132  0.8413 -2.2842
   98OSM   C14F 9831   2.425   2.787  34.537 -0.3669 -0.2775  0.4731
   98OSM   H14F 9832   2.449   2.687  34.580  0.2441  0.7243  2.6048
   98OSM   H14G 9833   2.319   2.796  34.504 -0.2957  0.0637  0.3357
   98OSM   C15F 9834   2.452   2.897  34.644  1.0352 -0.0627 -0.0529
   98OSM   H15F 9835   2.380   2.905  34.728  2.4597 -1.4360  1.3941
   98OSM   H15G 9836   2.449   3.000  34.605  1.4285 -0.2794 -0.6724
   98OSM   C16F 9837   2.587   2.872  34.713 -0.1706  0.2745 -0.6574
   98OSM   H16F 9838   2.669   2.868  34.638  1.5180 -0.1370  1.1307
   98OSM   H16G 9839   2.580   2.767  34.750  2.1002 -0.2065 -1.4332
   98OSM   C17F 9840   2.628   2.965  34.836 -0.0563 -0.0114 -0.0215
   98OSM   H17F 9841   2.604   3.063  34.789 -1.2870 -0.4948 -0.4331
   98OSM   H17G 9842   2.736   2.945  34.852  0.2437 -0.1652 -1.9672
   98OSM   C18F 9843   2.543   2.946  34.963  0.1305  0.2809  0.2758
   98OSM   H18F 9844   2.566   3.034  35.026  2.8481  0.3124 -0.6605
   98OSM   H18G 9845   2.574   2.859  35.025 -1.0464  0.0436  0.5520
   98OSM   H18H 9846   2.434   2.938  34.941  0.3582 -1.2676 -0.4599
   99OSM      N 9847   0.878   2.281  37.713  0.2477 -0.1103  0.1659
   99OSM    C15 9848   0.858   2.147  37.766 -0.3536 -0.4469 -0.0170
   99OSM   H15A 9849   0.951   2.096  37.787 -0.7842 -1.6281 -0.8749
   99OSM   H15B 9850   0.801   2.086  37.698 -0.3625 -3.2408  2.2889
   99OSM   H15C 9851   0.792   2.154  37.851 -0.5212  0.1567 -0.1853
   99OSM    C14 9852   0.976   2.284  37.603 -0.0843 -0.1503  0.0812
   99OSM   H14A 9853   0.960   2.196  37.543 -2.7045 -0.5294  1.1981
   99OSM   H14B 9854   1.075   2.275  37.645  0.0549  0.8397 -0.0265
   99OSM   H14C 9855   0.975   2.383  37.561 -0.7907 -0.0715  0.2709
   99OSM    C13 9856   0.750   2.335  37.671  0.8667  0.3620  0.9770
   99OSM   H13A 9857   0.760   2.436  37.637 -0.9268  0.5534  0.8920
   99OSM   H13B 9858   0.685   2.342  37.757  2.5920  2.4349  2.1866
   99OSM   H13C 9859   0.700   2.280  37.593 -0.3771 -1.9895  3.2580
   99OSM    C12 9860   0.923   2.366  37.829 -0.5068  0.5629  0.1934
   99OSM   H12A 9861   1.017   2.330  37.866 -1.5853 -0.3885  2.1388
   99OSM   H12B 9862   0.851   2.351  37.908  0.3074 -0.0499  0.8242
   99OSM    C11 9863   0.940   2.521  37.800  0.6557  0.0035 -0.0874
   99OSM   H11A 9864   1.008   2.543  37.885  1.6255  0.5867 -0.9956
   99OSM   H11B 9865   0.845   2.578  37.798  0.9336  0.4365 -1.6597
   99OSM      P 9866   1.050   2.701  37.657  1.0536  0.1721 -0.0292
   99OSM    O13 9867   1.069   2.759  37.788  0.0305 -0.0784 -0.2939
   99OSM    O14 9868   1.154   2.715  37.555 -0.1546 -0.2193 -0.5941
   99OSM    O11 9869   0.920   2.761  37.590 -0.0180 -0.3582 -0.0326
   99OSM    O12 9870   1.014   2.554  37.687  0.7554 -0.2016 -0.1582
   99OSM    C1S 9871   0.885   2.714  37.458  0.7025  0.2610 -0.1897
   99OSM    H1S 9872   0.902   2.606  37.438 -0.2044  0.1750 -0.5405
   99OSM    H1T 9873   0.943   2.768  37.379 -0.2815 -1.3137 -2.0848
   99OSM     NF 9874   0.708   2.692  37.292  0.4004 -0.0707 -0.2630
   99OSM    HNF 9875   0.691   2.769  37.231 -1.5502  2.1608  2.7620
   99OSM    C2S 9876   0.737   2.749  37.425 -0.8076  0.2055  0.0924
   99OSM    H2S 9877   0.692   2.688  37.506  1.4588  0.1674  1.4046
   99OSM    C3S 9878   0.694   2.900  37.440  0.2401  0.7280  0.8464
   99OSM    H3S 9879   0.732   2.960  37.355  2.2402  0.5178  1.5357
   99OSM     O3 9880   0.748   2.972  37.550  0.2525 -0.4035 -0.6408
   99OSM    HO3 9881   0.811   2.918  37.599  0.2628 -0.2957 -0.5334
   99OSM    C4S 9882   0.547   2.912  37.425 -0.2765 -0.0784  0.7643
   99OSM    H4S 9883   0.503   2.931  37.326 -1.5622  0.8149  1.4715
   99OSM    C5S 9884   0.461   2.892  37.528 -0.9492 -0.3500 -0.0905
   99OSM    H5S 9885   0.505   2.879  37.628 -1.0555 -0.9284 -0.1183
   99OSM    C6S 9886   0.313   2.916  37.532 -0.2029  0.3123  0.5479
   99OSM    H6S 9887   0.280   2.972  37.622 -1.1839  0.9378 -0.1770
   99OSM    H6T 9888   0.262   2.818  37.525  0.4567  0.0892 -1.7343
   99OSM    C7S 9889   0.243   3.012  37.429 -0.1324 -0.0038  1.3247
   99OSM    H7S 9890   0.260   2.985  37.322 -0.2603  0.0634  1.2881
   99OSM    H7T 9891   0.299   3.107  37.443 -1.5794  1.8512 -3.5191
   99OSM    C8S 9892   0.100   3.039  37.447 -0.1332  0.4463 -0.6299
   99OSM    H8S 9893   0.034   2.949  37.448  0.8896 -0.3119 -0.0825
   99OSM    H8T 9894   0.058   3.096  37.361 -3.8100  1.8160  1.8237
   99OSM    C9S 9895   0.071   3.111  37.576  0.4584 -0.3386  0.1609
   99OSM    H9S 9896   0.144   3.194  37.586  0.1411  0.1446 -1.3147
   99OSM    H9T 9897   0.080   3.025  37.646 -2.5511 -1.3596 -0.5575
   99OSM   C10S 9898  -0.078   3.168  37.602  0.4493 -1.1415  0.1591
   99OSM   H10S 9899  -0.148   3.083  37.595 -0.5043 -0.4166  0.6416
   99OSM   H10T 9900  -0.098   3.247  37.526 -1.3283 -0.7112  1.0246
   99OSM   C11S 9901  -0.093   3.248  37.736 -0.0686  0.8619 -0.1804
   99OSM   H11S 9902  -0.024   3.335  37.742 -1.2338  1.9332 -1.5751
   99OSM   H11T 9903  -0.059   3.187  37.822  0.4907  0.9659 -0.3216
   99OSM   C12S 9904  -0.241   3.277  37.761 -0.6238 -0.2644  0.2336
   99OSM   H12S 9905  -0.308   3.193  37.734 -1.6798  0.8565 -0.7335
   99OSM   H12T 9906  -0.261   3.282  37.870 -1.2154  3.0333  0.0687
   99OSM   C13S 9907  -0.309   3.403  37.696 -1.3480  0.0650 -0.0788
   99OSM   H13S 9908  -0.271   3.436  37.597 -2.7248 -0.3074 -0.7559
   99OSM   H13T 9909  -0.294   3.486  37.768  0.9943  0.0916 -0.5231
   99OSM   C14S 9910  -0.467   3.405  37.680 -0.0173  0.7235 -0.5302
   99OSM   H14S 9911  -0.504   3.506  37.651 -3.4665 -0.3971 -0.5164
   99OSM   H14T 9912  -0.501   3.388  37.785 -0.7911 -0.4867 -0.9575
   99OSM   C15S 9913  -0.519   3.289  37.595 -1.0025 -0.1243  0.2032
   99OSM   H15S 9914  -0.476   3.193  37.632  1.2451  0.7581  0.0692
   99OSM   H15T 9915  -0.503   3.319  37.490 -1.5216  1.6105  0.5807
   99OSM   C16S 9916  -0.675   3.276  37.609 -0.8567 -0.3043  0.7591
   99OSM   H16S 9917  -0.709   3.187  37.552  1.3105  0.4389 -1.9140
   99OSM   H16T 9918  -0.703   3.356  37.536  2.8218 -1.6175 -2.4069
   99OSM   C17S 9919  -0.736   3.282  37.745 -0.0413  0.2354 -0.2955
   99OSM   H17S 9920  -0.727   3.383  37.788  2.7884  0.0277 -0.2058
   99OSM   H17T 9921  -0.670   3.222  37.811 -0.9508  0.0638  0.4890
   99OSM   C18S 9922  -0.886   3.247  37.751 -0.4034  0.7494  0.0826
   99OSM   H18S 9923  -0.960   3.314  37.702  1.2699  0.3548 -3.3131
   99OSM   H18T 9924  -0.910   3.245  37.860 -0.0939  1.3978  0.1671
   99OSM   H18U 9925  -0.896   3.140  37.723 -0.4082  0.2630  1.8266
   99OSM    C1F 9926   0.722   2.562  37.261  0.1183 -0.3039 -0.1360
   99OSM     OF 9927   0.752   2.477  37.346  0.1060  0.5869 -0.0090
   99OSM    C2F 9928   0.690   2.530  37.113 -0.5372  0.1842  0.1432
   99OSM    H2F 9929   0.719   2.423  37.105  1.0129  0.4177  2.0569
   99OSM    H2G 9930   0.748   2.587  37.037 -0.7532 -0.5069 -0.5555
   99OSM    C3F 9931   0.541   2.540  37.097 -0.4388 -0.8814  0.6237
   99OSM    H3F 9932   0.504   2.645  37.106  1.7664 -0.1552  1.9944
   99OSM    H3G 9933   0.521   2.498  36.996  0.7683 -1.7586  0.7290
   99OSM    C4F 9934   0.458   2.444  37.180 -0.2636  0.1925 -0.5309
   99OSM    H4F 9935   0.480   2.465  37.287  0.8779  3.2390 -1.2447
   99OSM    H4G 9936   0.500   2.341  37.174 -2.5576 -0.8003 -0.7015
   99OSM    C5F 9937   0.304   2.465  37.154 -0.2680 -0.1960  0.2962
   99OSM    H5F 9938   0.234   2.394  37.202 -2.8198  1.5566 -0.6595
   99OSM    H5G 9939   0.296   2.453  37.044  2.1582 -1.0836  0.1587
   99OSM    C6F 9940   0.252   2.602  37.198  0.7162 -0.1897  0.9986
   99OSM    H6F 9941   0.279   2.687  37.132 -1.5412 -1.9254 -2.4519
   99OSM    H6G 9942   0.289   2.620  37.302  1.1284  0.4750  0.7468
   99OSM    C7F 9943   0.097   2.606  37.189 -0.0230 -0.3529  0.0309
   99OSM    H7F 9944   0.070   2.534  37.269  0.7668 -0.7654 -0.0681
   99OSM    H7G 9945   0.069   2.560  37.092 -0.2794  0.0904 -0.1087
   99OSM    C8F 9946   0.019   2.738  37.223  0.8661 -0.4453 -0.0218
   99OSM    H8F 9947   0.012   2.813  37.142  0.5952 -0.9685 -0.4871
   99OSM    H8G 9948   0.077   2.784  37.306  0.7370 -1.0744  0.4267
   99OSM    C9F 9949  -0.123   2.706  37.275 -0.3047 -0.0323  0.4985
   99OSM    H9F 9950  -0.196   2.718  37.194  1.2911  1.3179 -0.8056
   99OSM   C10F 9951  -0.155   2.687  37.405 -0.4077 -0.3002 -0.5680
   99OSM   H10F 9952  -0.257   2.664  37.439 -0.1708 -0.6419 -0.0626
   99OSM   C11F 9953  -0.053   2.696  37.515 -0.0897  0.2499 -0.1506
   99OSM   H11F 9954   0.044   2.740  37.485  0.2732 -0.8389 -0.6403
   99OSM   H11G 9955  -0.041   2.590  37.548 -0.4288  1.0434  2.8283
   99OSM   C12F 9956  -0.096   2.773  37.644  0.2015  0.9826 -0.5002
   99OSM   H12F 9957  -0.192   2.722  37.667 -1.2070  1.4929 -4.4871
   99OSM   H12G 9958  -0.130   2.876  37.618 -3.0116 -0.2513 -1.6969
   99OSM   C13F 9959   0.009   2.769  37.754 -0.2702  0.3306 -0.2106
   99OSM   H13F 9960   0.030   2.873  37.788  2.9996 -0.0668 -0.7421
   99OSM   H13G 9961   0.105   2.726  37.721 -0.2098 -0.5616  1.0495
   99OSM   C14F 9962  -0.038   2.679  37.876 -0.2629  0.3975 -0.2351
   99OSM   H14F 9963  -0.134   2.727  37.906 -1.5444 -1.7041 -0.7403
   99OSM   H14G 9964   0.023   2.684  37.968 -0.1586 -0.3953 -0.2582
   99OSM   C15F 9965  -0.072   2.531  37.840  0.5882  0.0173  1.0214
   99OSM   H15F 9966   0.003   2.472  37.898  2.1418  0.4552 -0.4558
   99OSM   H15G 9967  -0.054   2.507  37.733 -0.6771  2.5742  0.1593
   99OSM   C16F 9968  -0.207   2.476  37.881  0.4402 -0.1865  0.7087
   99OSM   H16F 9969  -0.215   2.369  37.853 -1.3957  0.5417 -1.8898
   99OSM   H16G 9970  -0.279   2.532  37.817  0.7579 -0.8681 -0.2593
   99OSM   C17F 9971  -0.227   2.483  38.031 -0.0545  0.0367  0.7260
   99OSM   H17F 9972  -0.243   2.588  38.065  0.2275  0.4602 -0.4029
   99OSM   H17G 9973  -0.143   2.437  38.087  0.8260 -0.2144 -0.7523
   99OSM   C18F 9974  -0.358   2.418  38.074  0.2944 -0.2091  0.3604
   99OSM   H18F 9975  -0.378   2.309  38.084 -1.9033  0.3341  2.8003
   99OSM   H18G 9976  -0.432   2.461  38.004  1.2570  2.0096  0.6283
   99OSM   H18H 9977  -0.380   2.461  38.173 -1.5733  0.6127 -0.3724
  100OSM      N 9978   1.355   3.228  37.758  0.4620 -0.0386 -0.4340
  100OSM    C15 9979   1.344   3.285  37.623  0.2831  0.1031  0.1112
  100OSM   H15A 9980   1.317   3.389  37.634  1.8998  0.4147  1.5798
  100OSM   H15B 9981   1.278   3.233  37.555  2.5487 -0.4867 -1.8143
  100OSM   H15C 9982   1.439   3.282  37.572  0.9576  1.6612  1.2056
  100OSM    C14 9983   1.377   3.073  37.765 -0.1007 -0.0707  0.9503
  100OSM   H14A 9984   1.458   3.043  37.701 -0.0039  1.0286  0.5482
  100OSM   H14B 9985   1.288   3.022  37.731 -0.1730  0.5668  0.1509
  100OSM   H14C 9986   1.402   3.035  37.862  1.3613 -3.7127 -0.6523
  100OSM    C13 9987   1.477   3.287  37.823  0.3055  0.1871  0.3277
  100OSM   H13A 9988   1.455   3.392  37.840  0.6201  0.4618 -0.8769
  100OSM   H13B 9989   1.567   3.268  37.767 -0.9568 -0.0950 -1.7058
  100OSM   H13C 9990   1.484   3.245  37.922  0.6816  1.2856  0.7835
  100OSM    C12 9991   1.238   3.255  37.847 -0.8076 -0.2935  1.0538
  100OSM   H12A 9992   1.261   3.199  37.937  1.8246  0.1102  0.7200
  100OSM   H12B 9993   1.148   3.215  37.804 -0.0340  0.6027 -1.5930
  100OSM    C11 9994   1.211   3.403  37.886 -0.9005 -0.5647 -0.4780
  100OSM   H11A 9995   1.297   3.445  37.943 -0.9776  2.3087 -2.3015
  100OSM   H11B 9996   1.119   3.401  37.949 -0.5806 -4.9809  0.1601
  100OSM      P 9997   1.120   3.610  37.747 -0.2360  0.1106 -0.1544
  100OSM    O13 9998   1.053   3.658  37.869 -0.8301 -0.4169 -0.1519
  100OSM    O14 9999   1.232   3.689  37.688  0.0498 -0.1251 -0.0016
  100OSM    O1110000   1.018   3.555  37.639  0.2190  0.6143 -0.4190
  100OSM    O1210001   1.192   3.478  37.769 -0.4019  0.1811 -0.5699
  100OSM    C1S10002   0.945   3.434  37.682 -0.1286  0.4410  0.1174
  100OSM    H1S10003   0.886   3.448  37.775  0.4551 -1.0997  0.7461
  100OSM    H1T10004   1.017   3.350  37.697 -1.3045 -0.4205  1.1784
  100OSM     NF10005   0.744   3.306  37.595  0.2922 -0.0128  0.2705
  100OSM    HNF10006   0.747   3.209  37.570  1.1507  0.5260 -1.9557
  100OSM    C2S10007   0.854   3.402  37.564  0.6384  0.1584  0.1879
  100OSM    H2S10008   0.802   3.499  37.551  0.0648  0.1449  2.0956
  100OSM    C3S10009   0.935   3.375  37.433  0.9630  0.2573  0.2914
  100OSM    H3S10010   1.001   3.286  37.441  2.0871  0.9591 -0.8122
  100OSM     O310011   1.023   3.475  37.387 -0.1583  0.5984 -0.5716
  100OSM    HO310012   1.013   3.545  37.453 -0.9009  0.7533 -0.8438
  100OSM    C4S10013   0.839   3.344  37.319 -0.6124  0.0228  0.4545
  100OSM    H4S10014   0.811   3.238  37.314 -1.0842  0.1155  1.0156
  100OSM    C5S10015   0.780   3.419  37.223 -0.1566 -0.5721 -0.2226
  100OSM    H5S10016   0.809   3.524  37.206 -1.1671 -0.5279 -1.9608
  100OSM    C6S10017   0.688   3.370  37.114  0.4446 -0.0929  0.0019
  100OSM    H6S10018   0.727   3.400  37.014  0.0242 -0.6950 -0.3465
  100OSM    H6T10019   0.592   3.424  37.122  2.0463  2.8933  0.4477
  100OSM    C7S10020   0.664   3.214  37.109 -0.1617 -0.7371 -0.0767
  100OSM    H7S10021   0.626   3.188  37.211  2.3323 -1.0043  0.8580
  100OSM    H7T10022   0.757   3.154  37.095  0.7087  0.6334 -0.3105
  100OSM    C8S10023   0.555   3.171  37.011 -0.0809  0.4790 -0.3431
  100OSM    H8S10024   0.580   3.214  36.911  0.9284 -0.5137 -0.5335
  100OSM    H8T10025   0.451   3.207  37.025 -0.3077  0.2891 -1.4462
  100OSM    C9S10026   0.536   3.021  37.000  0.8741  0.0372 -0.2774
  100OSM    H9S10027   0.511   2.978  37.100 -1.7753 -2.5574 -1.8793
  100OSM    H9T10028   0.629   2.975  36.960  0.2496 -1.9090  0.3800
  100OSM   C10S10029   0.432   2.975  36.895  0.0139  0.3626 -0.2782
  100OSM   H10S10030   0.434   2.864  36.886 -1.6691  0.2888 -0.0882
  100OSM   H10T10031   0.455   3.017  36.794 -1.0236 -1.4948 -1.3551
  100OSM   C11S10032   0.289   2.999  36.931 -0.1436 -0.2338 -0.5860
  100OSM   H11S10033   0.260   3.104  36.905  1.1628  0.6405  1.3183
  100OSM   H11T10034   0.281   2.984  37.040 -0.2759  1.1246 -0.3878
  100OSM   C12S10035   0.199   2.894  36.855 -0.8077 -0.4842  0.0226
  100OSM   H12S10036   0.089   2.906  36.868 -0.7269  1.1216 -0.5114
  100OSM   H12T10037   0.225   2.796  36.901 -0.4459 -1.6524 -2.4658
  100OSM   C13S10038   0.218   2.874  36.700  0.5975 -0.0413  0.3444
  100OSM   H13S10039   0.144   2.796  36.671  1.2120 -0.3661 -0.4060
  100OSM   H13T10040   0.321   2.839  36.676  0.9095  0.3526  1.0703
  100OSM   C14S10041   0.217   3.013  36.628  0.5366  0.1379 -0.3959
  100OSM   H14S10042   0.308   3.075  36.645 -0.2665  1.5318 -1.0578
  100OSM   H14T10043   0.137   3.076  36.672  1.6361  1.2052  0.1285
  100OSM   C15S10044   0.194   3.008  36.474  0.6338  0.0667 -0.1541
  100OSM   H15S10045   0.142   3.098  36.434  1.1017  0.4156  0.0060
  100OSM   H15T10046   0.139   2.914  36.454  0.8964 -0.0754 -0.2126
  100OSM   C16S10047   0.329   3.000  36.405  0.6504  0.4352 -0.2984
  100OSM   H16S10048   0.392   2.923  36.454 -1.0180 -0.2352  0.8737
  100OSM   H16T10049   0.378   3.100  36.415 -0.0583  0.6578  1.1264
  100OSM   C17S10050   0.333   2.973  36.256 -0.3799  0.5325 -0.1917
  100OSM   H17S10051   0.296   2.868  36.245 -1.8036  1.0493 -0.6061
  100OSM   H17T10052   0.433   2.970  36.207 -0.4861 -0.4298 -0.3769
  100OSM   C18S10053   0.236   3.063  36.185 -0.3082 -0.1451 -0.2086
  100OSM   H18S10054   0.251   3.055  36.075  1.4882 -0.6386  0.0378
  100OSM   H18T10055   0.250   3.170  36.214 -2.2858  0.0658  0.1325
  100OSM   H18U10056   0.133   3.029  36.208 -1.6497  2.2449 -2.1973
  100OSM    C1F10057   0.653   3.333  37.681  0.7163 -1.1589  0.6533
  100OSM     OF10058   0.629   3.450  37.713 -0.5646 -0.1397 -0.2947
  100OSM    C2F10059   0.585   3.219  37.735  0.5129 -0.1079 -0.5224
  100OSM    H2F10060   0.599   3.213  37.845  3.2203 -0.5632 -0.8354
  100OSM    H2G10061   0.615   3.125  37.684 -1.7153 -0.7454 -0.7506
  100OSM    C3F10062   0.429   3.233  37.718  0.8206  0.2385  0.2337
  100OSM    H3F10063   0.388   3.145  37.664  1.4773  1.2072 -1.9507
  100OSM    H3G10064   0.396   3.314  37.650  3.2628  1.5372  0.4807
  100OSM    C4F10065   0.371   3.271  37.854  0.7956 -0.1539  0.7648
  100OSM    H4F10066   0.404   3.199  37.932 -0.4766  0.4427  1.9048
  100OSM    H4G10067   0.263   3.245  37.841  0.6183  0.3384  1.2398
  100OSM    C5F10068   0.376   3.418  37.889 -0.4999  0.2066 -0.1543
  100OSM    H5F10069   0.376   3.476  37.794 -0.0161  0.2302 -0.1443
  100OSM    H5G10070   0.476   3.444  37.930 -0.3731 -0.0381 -0.3077
  100OSM    C6F10071   0.272   3.467  37.984  0.5751  0.4859  0.4200
  100OSM    H6F10072   0.270   3.405  38.077  2.3370  1.9083  1.4779
  100OSM    H6G10073   0.171   3.467  37.938  0.3835 -2.4102  0.6441
  100OSM    C7F10074   0.287   3.613  38.031 -0.4035 -0.2365  0.2183
  100OSM    H7F10075   0.309   3.671  37.938  0.5226 -0.0118  0.5620
  100OSM    H7G10076   0.367   3.624  38.107 -0.3032 -1.6906  0.3537
  100OSM    C8F10077   0.158   3.657  38.105  0.0109 -0.3003 -0.0153
  100OSM    H8F10078   0.133   3.579  38.180  0.3896 -0.3555  0.0570
  100OSM    H8G10079   0.078   3.657  38.028  1.5395 -1.3693 -1.6672
  100OSM    C9F10080   0.176   3.800  38.153 -0.4602  0.3935  0.4942
  100OSM    H9F10081   0.223   3.866  38.079 -2.6441 -0.0447 -1.3956
  100OSM   C10F10082   0.147   3.857  38.278 -0.9068  0.0061  0.2122
  100OSM   H10F10083   0.177   3.961  38.297  1.2421 -0.5539  0.0894
  100OSM   C11F10084   0.070   3.780  38.388  0.1452  0.7461 -0.0509
  100OSM   H11F10085   0.121   3.685  38.415 -0.1151  1.1365  2.0241
  100OSM   H11G10086  -0.031   3.748  38.356 -0.4934  0.9934  1.6104
  100OSM   C12F10087   0.065   3.849  38.520  0.1691 -0.8165  0.0634
  100OSM   H12F10088   0.001   3.941  38.520  0.2335 -0.7473 -1.4355
  100OSM   H12G10089   0.161   3.889  38.557 -0.1926  2.5287 -2.1254
  100OSM   C13F10090   0.023   3.740  38.624 -0.5082  0.1860  0.3197
  100OSM   H13F10091   0.107   3.667  38.623 -1.1878 -0.6500  1.8025
  100OSM   H13G10092  -0.070   3.687  38.596 -0.2610  0.1543 -0.4820
  100OSM   C14F10093   0.018   3.784  38.770 -0.0377 -0.6485  0.7581
  100OSM   H14F10094  -0.069   3.854  38.769  0.6745  0.2742 -0.5981
  100OSM   H14G10095   0.111   3.838  38.796 -0.8183  2.4768 -2.1189
  100OSM   C15F10096  -0.009   3.662  38.862 -0.0259  0.1102 -0.3238
  100OSM   H15F10097   0.046   3.575  38.819  0.8293 -0.3710  1.6005
  100OSM   H15G10098  -0.115   3.631  38.855 -0.2239  0.1853  1.7276
  100OSM   C16F10099   0.023   3.673  39.013  0.6811  0.3705 -0.3736
  100OSM   H16F10100  -0.001   3.775  39.050  3.0299  0.9493 -0.2352
  100OSM   H16G10101   0.131   3.664  39.039  0.5554 -0.8697 -0.2250
  100OSM   C17F10102  -0.048   3.569  39.095  0.4430 -0.5915 -0.5459
  100OSM   H17F10103   0.005   3.560  39.193  1.4743  2.5186 -0.7104
  100OSM   H17G10104  -0.031   3.472  39.043  0.7512  0.6358 -2.8668
  100OSM   C18F10105  -0.197   3.602  39.125 -0.2368 -0.4358  0.8375
  100OSM   H18F10106  -0.234   3.521  39.190 -1.1978 -1.3269 -0.7582
  100OSM   H18G10107  -0.267   3.595  39.040  0.8284 -3.0943  0.0915
  100OSM   H18H10108  -0.197   3.694  39.188  4.6489  2.0040 -2.0874
  101OSM      N10109   1.348   2.357  37.626 -0.5093  0.2708 -0.3828
  101OSM    C1510110   1.255   2.403  37.738  0.2407  0.4544  0.2975
  101OSM   H15A10111   1.173   2.334  37.748 -1.0852  1.7295 -1.2404
  101OSM   H15B10112   1.227   2.499  37.698  0.0317  0.7955  1.2571
  101OSM   H15C10113   1.310   2.398  37.831  3.0875 -0.4832 -1.3001
  101OSM    C1410114   1.275   2.357  37.498 -0.5251 -0.0921 -0.0738
  101OSM   H14A10115   1.347   2.345  37.419  0.8833  2.2715  0.7496
  101OSM   H14B10116   1.226   2.451  37.476 -1.0700 -0.4159 -0.2677
  101OSM   H14C10117   1.202   2.277  37.489 -2.3182  1.6165 -1.6448
  101OSM    C1310118   1.453   2.459  37.623 -0.2879 -0.6193 -0.1883
  101OSM   H13A10119   1.522   2.440  37.543 -1.0962 -4.4113 -0.1650
  101OSM   H13B10120   1.525   2.464  37.703  0.1642 -1.6051 -0.5267
  101OSM   H13C10121   1.411   2.553  37.588  1.2588 -0.9268 -3.1107
  101OSM    C1210122   1.394   2.211  37.657 -0.1072  0.0859 -0.2699
  101OSM   H12A10123   1.460   2.213  37.743 -2.9278  1.1574  2.0396
  101OSM   H12B10124   1.463   2.205  37.574 -0.3760 -0.3771 -0.4620
  101OSM    C1110125   1.306   2.088  37.644  0.2728 -0.7885  0.4445
  101OSM   H11A10126   1.358   1.990  37.654  1.3932 -0.3394 -0.7546
  101OSM   H11B10127   1.270   2.095  37.539  0.6445 -1.5414  0.2619
  101OSM      P10128   1.189   2.053  37.868 -0.0492 -0.1385  0.3763
  101OSM    O1310129   1.158   2.177  37.941 -0.1735  0.0950 -0.0696
  101OSM    O1410130   1.098   1.939  37.874  0.0222 -0.0593  0.8419
  101OSM    O1110131   1.332   2.003  37.908  0.4626  0.2114  0.1218
  101OSM    O1210132   1.191   2.102  37.719  0.1996  0.4696  0.9179
  101OSM    C1S10133   1.356   1.858  37.908 -0.4521 -0.1060  0.3728
  101OSM    H1S10134   1.325   1.813  37.811  0.5157  0.4947 -0.2344
  101OSM    H1T10135   1.311   1.808  37.996 -1.4655 -1.8414 -1.0563
  101OSM     NF10136   1.543   1.690  37.901 -0.6336  0.1860 -0.4384
  101OSM    HNF10137   1.557   1.636  37.983  0.9122  0.9269 -0.1858
  101OSM    C2S10138   1.508   1.835  37.924 -0.3107  0.4884  0.2979
  101OSM    H2S10139   1.548   1.890  37.836  0.4061 -0.0154  0.2953
  101OSM    C3S10140   1.572   1.898  38.047  0.2039 -0.5647  0.7973
  101OSM    H3S10141   1.555   1.836  38.137 -0.4324  0.3636  1.3401
  101OSM     O310142   1.521   2.025  38.084 -0.0078 -0.5071 -0.2419
  101OSM    HO310143   1.436   2.034  38.039 -1.5442 -1.0532  2.3626
  101OSM    C4S10144   1.723   1.915  38.028 -0.2174  0.6649 -0.3051
  101OSM    H4S10145   1.758   2.003  37.972  1.5875  0.3732  0.3065
  101OSM    C5S10146   1.815   1.823  38.074 -0.1574 -0.0461 -0.2790
  101OSM    H5S10147   1.781   1.744  38.141  0.9657  1.3490  2.0489
  101OSM    C6S10148   1.962   1.832  38.048  0.5473 -0.0274 -0.1870
  101OSM    H6S10149   2.001   1.738  38.003 -0.9946 -1.2997  1.0035
  101OSM    H6T10150   2.015   1.846  38.144  1.6966 -2.1894 -0.4488
  101OSM    C7S10151   2.002   1.947  37.950 -0.9255 -0.2250  0.3365
  101OSM    H7S10152   1.966   2.045  37.988  1.3625 -0.0429  2.3313
  101OSM    H7T10153   1.965   1.920  37.849 -0.8581  1.2315 -0.0974
  101OSM    C8S10154   2.165   1.940  37.930  0.2786  0.2224  0.6593
  101OSM    H8S10155   2.190   1.832  37.923 -0.4784 -0.0490  1.9135
  101OSM    H8T10156   2.216   1.981  38.020 -1.5756 -0.2786  1.9881
  101OSM    C9S10157   2.213   2.020  37.809  0.8228 -0.0965 -1.0699
  101OSM    H9S10158   2.198   2.125  37.843 -2.8809 -1.5798  2.9256
  101OSM    H9T10159   2.143   1.993  37.728 -0.2766 -1.2322  0.2086
  101OSM   C10S10160   2.354   1.987  37.772  0.3715 -0.3111  0.3719
  101OSM   H10S10161   2.356   1.880  37.741 -1.0701 -1.1987  3.0486
  101OSM   H10T10162   2.416   2.012  37.860 -0.7108 -0.5768  1.2342
  101OSM   C11S10163   2.405   2.080  37.660  0.3959 -0.0055  0.4361
  101OSM   H11S10164   2.511   2.051  37.646  0.6391  0.7097  0.8014
  101OSM   H11T10165   2.399   2.184  37.699 -0.4623  1.4036 -3.1025
  101OSM   C12S10166   2.325   2.086  37.519  0.3607 -0.1120 -0.3047
  101OSM   H12S10167   2.348   2.182  37.469  1.4316 -0.4222 -0.4232
  101OSM   H12T10168   2.217   2.089  37.547  0.2195 -1.0404 -0.7114
  101OSM   C13S10169   2.351   1.963  37.430  0.0912  0.2384 -0.0256
  101OSM   H13S10170   2.294   1.879  37.477 -4.5806  2.5956 -0.8893
  101OSM   H13T10171   2.456   1.930  37.414  0.3983  1.2636 -0.1801
  101OSM   C14S10172   2.299   1.969  37.289 -0.1372 -0.0554 -0.2245
  101OSM   H14S10173   2.362   1.905  37.223  0.6312  0.0882  0.3559
  101OSM   H14T10174   2.320   2.073  37.257  1.5595  0.0131  0.9958
  101OSM   C15S10175   2.146   1.946  37.271 -0.5379 -0.2365  0.5647
  101OSM   H15S10176   2.104   2.017  37.346  2.7899  3.0404 -0.3527
  101OSM   H15T10177   2.124   1.840  37.292 -0.5138 -0.3318  0.1154
  101OSM   C16S10178   2.104   1.999  37.128 -0.0582 -0.6637  0.5102
  101OSM   H16S10179   2.171   1.963  37.047 -0.8840  0.1624 -0.5805
  101OSM   H16T10180   2.110   2.110  37.130  1.9459 -0.7460  1.0447
  101OSM   C17S10181   1.958   1.972  37.098  0.1073 -0.1561  0.9952
  101OSM   H17S10182   1.888   2.000  37.180 -0.5167  2.5892 -0.3670
  101OSM   H17T10183   1.943   1.862  37.088 -0.8539  0.1121 -1.0109
  101OSM   C18S10184   1.906   2.031  36.965  0.5598 -0.3946 -0.0305
  101OSM   H18S10185   1.806   2.076  36.983  0.6108 -0.8952  1.6905
  101OSM   H18T10186   1.907   1.966  36.875  0.8052 -0.1034 -0.2425
  101OSM   H18U10187   1.971   2.115  36.932  1.6603 -2.2529 -2.9619
  101OSM    C1F10188   1.517   1.624  37.787  0.6361  1.1326 -0.1926
  101OSM     OF10189   1.478   1.674  37.681 -0.4637  0.3771 -0.2203
  101OSM    C2F10190   1.540   1.470  37.796 -0.5571 -0.1385 -0.2047
  101OSM    H2F10191   1.455   1.417  37.747  0.4288 -2.9271  0.8965
  101OSM    H2G10192   1.540   1.440  37.902 -0.2574 -0.1074 -0.1963
  101OSM    C3F10193   1.678   1.431  37.736  1.2141  0.1269  0.4186
  101OSM    H3F10194   1.678   1.447  37.626  0.0760  2.1403  0.6736
  101OSM    H3G10195   1.704   1.325  37.758  0.4193  0.0213  0.8777
  101OSM    C4F10196   1.796   1.512  37.785 -0.1470 -0.5619 -0.0895
  101OSM    H4F10197   1.812   1.497  37.894 -1.5514 -1.7201 -0.0136
  101OSM    H4G10198   1.772   1.617  37.758 -2.4861 -0.9581  0.2054
  101OSM    C5F10199   1.923   1.480  37.710 -0.2236  0.1883  0.3166
  101OSM    H5F10200   1.897   1.445  37.608  0.4737  1.9213 -0.4949
  101OSM    H5G10201   1.962   1.386  37.754  1.7259  0.5019 -0.6471
  101OSM    C6F10202   2.034   1.581  37.697 -0.4698 -0.3999 -0.4807
  101OSM    H6F10203   2.004   1.657  37.623  2.6540  0.4949 -0.9499
  101OSM    H6G10204   2.036   1.645  37.788 -1.0079 -0.9913 -0.0352
  101OSM    C7F10205   2.173   1.547  37.648  0.3844  0.2549  0.1652
  101OSM    H7F10206   2.205   1.480  37.730 -1.8951 -0.0267  0.9010
  101OSM    H7G10207   2.236   1.638  37.639 -0.5302  0.8028 -1.0589
  101OSM    C8F10208   2.184   1.466  37.514  0.5019  0.0555 -0.0800
  101OSM    H8F10209   2.100   1.393  37.512 -0.2411  0.9079 -1.1442
  101OSM    H8G10210   2.282   1.415  37.511  0.3992 -0.2020  0.6588
  101OSM    C9F10211   2.166   1.552  37.395 -0.2430 -0.6766  0.4376
  101OSM    H9F10212   2.078   1.618  37.389  0.2820 -0.0687 -3.7390
  101OSM   C10F10213   2.256   1.564  37.291 -0.2754  0.1598 -0.3226
  101OSM   H10F10214   2.217   1.634  37.216 -2.1114  0.0840  0.5147
  101OSM   C11F10215   2.382   1.492  37.247  0.4853  0.0278  0.2803
  101OSM   H11F10216   2.361   1.433  37.155  0.6983  1.7106 -0.8960
  101OSM   H11G10217   2.431   1.427  37.322  1.4486 -2.6723 -2.4660
  101OSM   C12F10218   2.490   1.604  37.218  0.1205 -0.2807 -1.1574
  101OSM   H12F10219   2.524   1.658  37.309  2.3742 -0.2591 -1.9501
  101OSM   H12G10220   2.440   1.682  37.156 -1.6630 -0.8333 -0.4734
  101OSM   C13F10221   2.615   1.536  37.157 -0.3107 -0.1797  0.4121
  101OSM   H13F10222   2.569   1.489  37.068 -2.5185  2.3360  0.1098
  101OSM   H13G10223   2.659   1.459  37.224 -0.1876  1.6520  2.5742
  101OSM   C14F10224   2.711   1.639  37.097 -0.3538  0.4542 -0.1650
  101OSM   H14F10225   2.669   1.709  37.022 -1.0927  0.2127  0.0171
  101OSM   H14G10226   2.769   1.565  37.038 -2.5772 -0.2401 -1.5918
  101OSM   C15F10227   2.809   1.715  37.189  0.6450 -0.7444 -0.5870
  101OSM   H15F10228   2.852   1.641  37.260  0.8259  0.1872  0.2871
  101OSM   H15G10229   2.741   1.785  37.243  1.4294  0.0704 -0.6347
  101OSM   C16F10230   2.920   1.786  37.120 -0.3968  0.9960  0.0953
  101OSM   H16F10231   2.886   1.886  37.086  2.1595  1.9273  0.0982
  101OSM   H16G10232   2.964   1.729  37.035  1.8138  2.9706 -0.1875
  101OSM   C17F10233   3.042   1.806  37.210 -0.1282  0.4251  0.3180
  101OSM   H17F10234   3.073   1.709  37.253  0.0146 -1.4109 -3.6017
  101OSM   H17G10235   3.021   1.866  37.302 -2.2964 -1.4422  1.1259
  101OSM   C18F10236   3.162   1.873  37.135 -0.5758  0.3212 -0.2061
  101OSM   H18F10237   3.134   1.970  37.087 -0.1400  0.7668  0.4312
  101OSM   H18G10238   3.220   1.812  37.062  2.3495  1.3046  1.1457
  101OSM   H18H10239   3.246   1.882  37.206  1.2135 -1.1538 -2.0163
  102OSM      N10240   3.281   0.233  42.110 -1.2408  0.3271  0.0861
  102OSM    C1510241   3.224   0.223  42.248  0.4573 -0.4186  0.0083
  102OSM   H15A10242   3.243   0.310  42.309  0.9074 -1.2726  1.1325
  102OSM   H15B10243   3.280   0.148  42.301 -0.6582 -0.0979  1.6998
  102OSM   H15C10244   3.121   0.195  42.237  0.4756  0.0280 -1.7058
  102OSM    C1410245   3.196   0.321  42.026  0.6594 -0.3739 -0.3192
  102OSM   H14A10246   3.097   0.279  42.015 -0.6101  1.4813  2.7628
  102OSM   H14B10247   3.238   0.330  41.928  0.5736  1.7304 -0.2025
  102OSM   H14C10248   3.181   0.425  42.049  2.1080  0.0941 -1.3385
  102OSM    C1310249   3.407   0.311  42.133  0.0874 -0.4171  0.1776
  102OSM   H13A10250   3.472   0.321  42.047 -0.6397 -1.5195 -0.5105
  102OSM   H13B10251   3.461   0.264  42.214  0.3981 -3.7300 -1.7765
  102OSM   H13C10252   3.379   0.413  42.159 -2.3117 -0.9867  0.0783
  102OSM    C1210253   3.304   0.094  42.049 -0.1702 -0.0245  0.2536
  102OSM   H12A10254   3.340   0.113  41.949 -0.1179  1.1407  0.4745
  102OSM   H12B10255   3.209   0.046  42.031  0.3925 -0.8232 -0.6998
  102OSM    C1110256   3.394  -0.003  42.115 -0.1878  0.2397  0.1264
  102OSM   H11A10257   3.497   0.027  42.144  1.0402 -1.7565 -1.9146
  102OSM   H11B10258   3.419  -0.078  42.037  2.7410  1.2458 -0.0382
  102OSM      P10259   3.202  -0.164  42.203  0.5891 -0.5076 -0.0138
  102OSM    O1310260   3.190  -0.220  42.338  0.0242  0.2964  0.8791
  102OSM    O1410261   3.083  -0.097  42.140 -0.6446 -0.0081 -0.1322
  102OSM    O1110262   3.279  -0.262  42.107  0.1039 -0.3473  0.3773
  102OSM    O1210263   3.315  -0.053  42.220  0.2149  0.0975  0.5311
  102OSM    C1S10264   3.199  -0.337  42.016 -0.8542  0.3783  0.4896
  102OSM    H1S10265   3.118  -0.274  41.973  0.4922  1.4282 -0.6320
  102OSM    H1T10266   3.167  -0.428  42.070 -0.6220 -0.2558 -0.4090
  102OSM     NF10267   3.207  -0.429  41.775 -0.2252 -1.1996 -0.2948
  102OSM    HNF10268   3.202  -0.526  41.754  2.6065 -0.8485 -3.2365
  102OSM    C2S10269   3.287  -0.383  41.892 -0.8493  0.3000 -0.3038
  102OSM    H2S10270   3.338  -0.288  41.865 -0.5623  0.5851  1.1487
  102OSM    C3S10271   3.406  -0.472  41.920 -0.1839  0.9049 -0.3413
  102OSM    H3S10272   3.370  -0.575  41.939 -2.5520  1.7818  0.2668
  102OSM     O310273   3.469  -0.443  42.042 -0.3045 -0.0041 -0.1800
  102OSM    HO310274   3.413  -0.370  42.071  0.1762  0.2167  0.2081
  102OSM    C4S10275   3.499  -0.494  41.797  0.1181 -0.0533 -0.4072
  102OSM    H4S10276   3.499  -0.591  41.745 -1.1129  0.3807 -1.2507
  102OSM    C5S10277   3.581  -0.393  41.755  0.7648 -0.8429  0.3397
  102OSM    H5S10278   3.562  -0.292  41.794  0.8157 -1.1680  1.2445
  102OSM    C6S10279   3.667  -0.400  41.626 -0.0892 -0.1115  0.2749
  102OSM    H6S10280   3.756  -0.338  41.649 -0.9890  1.2770  0.0667
  102OSM    H6T10281   3.619  -0.349  41.540  1.1343 -1.0582 -1.0134
  102OSM    C7S10282   3.707  -0.546  41.581  0.2016  0.2598 -0.1833
  102OSM    H7S10283   3.619  -0.611  41.562  1.4865 -1.0985 -1.7280
  102OSM    H7T10284   3.778  -0.599  41.647 -1.1285  0.6351  1.6379
  102OSM    C8S10285   3.786  -0.541  41.449 -0.1537  0.2466  0.5485
  102OSM    H8S10286   3.878  -0.479  41.457 -1.6360  2.8462 -0.9683
  102OSM    H8T10287   3.721  -0.489  41.375  2.1077  3.5381  0.6607
  102OSM    C9S10288   3.816  -0.677  41.395 -0.5493  0.4455  0.2265
  102OSM    H9S10289   3.721  -0.733  41.378 -0.7724  1.1953 -1.1865
  102OSM    H9T10290   3.869  -0.745  41.466  1.3340  1.4587 -0.1399
  102OSM   C10S10291   3.907  -0.682  41.271  0.3530 -0.0354 -0.0429
  102OSM   H10S10292   4.014  -0.685  41.302 -0.0439  0.7504  1.4998
  102OSM   H10T10293   3.894  -0.591  41.209  1.2403 -0.0779 -0.2974
  102OSM   C11S10294   3.869  -0.799  41.172 -0.4942 -0.0961  0.2762
  102OSM   H11S10295   3.761  -0.803  41.144 -0.7727  1.0765  1.1169
  102OSM   H11T10296   3.876  -0.891  41.233 -0.8941 -1.1787 -1.2492
  102OSM   C12S10297   3.960  -0.819  41.050  0.5127 -0.2689 -0.2665
  102OSM   H12S10298   4.068  -0.821  41.076  0.3261  3.0268  1.2312
  102OSM   H12T10299   3.944  -0.720  41.000 -0.1930  0.0016  0.4899
  102OSM   C13S10300   3.911  -0.928  40.953  0.1564  0.6511 -0.1207
  102OSM   H13S10301   3.802  -0.918  40.934  0.3909  1.6775 -1.0342
  102OSM   H13T10302   3.924  -1.030  40.995  2.3170  1.6340  1.8289
  102OSM   C14S10303   3.987  -0.919  40.818 -0.6641  0.2549  0.2817
  102OSM   H14S10304   4.002  -1.024  40.786 -0.1232 -0.0443  1.4656
  102OSM   H14T10305   4.093  -0.888  40.828 -0.1482 -0.5922 -2.0383
  102OSM   C15S10306   3.918  -0.820  40.722 -0.2157  0.1786  0.7307
  102OSM   H15S10307   3.923  -0.714  40.755  1.6495  0.5996 -0.7063
  102OSM   H15T10308   3.809  -0.841  40.718 -0.4404  0.6773  3.1296
  102OSM   C16S10309   3.976  -0.819  40.576  0.0631  0.8630  0.0726
  102OSM   H16S10310   4.085  -0.800  40.580  0.2267 -0.0225  0.1093
  102OSM   H16T10311   3.925  -0.747  40.509  2.1732  1.1631 -1.2884
  102OSM   C17S10312   3.956  -0.956  40.504  0.1194 -0.5579 -0.1611
  102OSM   H17S10313   3.854  -0.994  40.527  1.0859 -1.9615  2.1007
  102OSM   H17T10314   4.024  -1.035  40.540 -0.0371  0.6611  3.1496
  102OSM   C18S10315   3.961  -0.959  40.349 -0.4541 -0.8736 -0.4096
  102OSM   H18S10316   3.940  -1.062  40.315  3.1998 -1.6811 -0.6211
  102OSM   H18T10317   4.063  -0.929  40.317 -0.9105  1.6367  0.2927
  102OSM   H18U10318   3.889  -0.885  40.308  1.0049 -0.9810 -3.3869
  102OSM    C1F10319   3.129  -0.342  41.711  0.9712  0.1929  0.3076
  102OSM     OF10320   3.139  -0.223  41.732 -0.2860  0.1309  0.6040
  102OSM    C2F10321   3.034  -0.391  41.609  0.7051  0.2375  0.1480
  102OSM    H2F10322   2.933  -0.405  41.652  1.8369 -0.2325  2.8678
  102OSM    H2G10323   3.061  -0.495  41.578 -0.5394  0.1878 -0.8348
  102OSM    C3F10324   3.041  -0.294  41.493 -0.5797 -0.0325 -0.0904
  102OSM    H3F10325   3.140  -0.303  41.443 -1.3074  1.8771 -1.9972
  102OSM    H3G10326   3.027  -0.187  41.518 -0.1683  0.8848 -3.3687
  102OSM    C4F10327   2.929  -0.315  41.396  0.0693  0.3080 -0.4572
  102OSM    H4F10328   2.828  -0.293  41.438 -0.2388  0.4360 -1.2565
  102OSM    H4G10329   2.938  -0.422  41.368 -1.1841 -0.2394  1.0489
  102OSM    C5F10330   2.940  -0.237  41.257  0.0781 -0.0229  0.6351
  102OSM    H5F10331   3.032  -0.174  41.254  0.3629 -0.4073 -2.4268
  102OSM    H5G10332   2.856  -0.164  41.261  0.7307  0.7163  1.4955
  102OSM    C6F10333   2.938  -0.327  41.136 -0.0228 -0.2218 -0.5111
  102OSM    H6F10334   2.833  -0.356  41.113 -0.4115 -0.1108  1.0052
  102OSM    H6G10335   3.000  -0.416  41.163  0.2672 -0.3654 -1.6199
  102OSM    C7F10336   3.005  -0.268  41.009 -0.3637 -0.5231  0.5034
  102OSM    H7F10337   3.115  -0.264  41.025 -0.5666  0.6574  1.7942
  102OSM    H7G10338   2.979  -0.161  41.000  3.6339  0.6766  1.0167
  102OSM    C8F10339   2.966  -0.341  40.878 -0.7500 -0.2703 -0.4767
  102OSM    H8F10340   2.984  -0.272  40.793 -1.4542 -0.6947 -0.9828
  102OSM    H8G10341   2.858  -0.367  40.887 -0.6473 -0.3693  0.5700
  102OSM    C9F10342   3.038  -0.468  40.855  0.1604 -0.3239  0.0714
  102OSM    H9F10343   3.077  -0.522  40.943  1.6467 -1.7185 -1.3784
  102OSM   C10F10344   3.075  -0.517  40.739  0.3029 -0.0481 -0.4727
  102OSM   H10F10345   3.114  -0.619  40.729 -0.2786 -0.0551 -3.6184
  102OSM   C11F10346   3.050  -0.447  40.613  0.2946 -0.1457 -0.2518
  102OSM   H11F10347   3.107  -0.354  40.593 -0.1101 -0.1476 -1.4820
  102OSM   H11G10348   2.943  -0.419  40.610 -0.5226 -2.9772 -1.2269
  102OSM   C12F10349   3.077  -0.540  40.498  0.5359  0.2404  1.0128
  102OSM   H12F10350   3.008  -0.625  40.481  2.6703 -1.5847  1.0882
  102OSM   H12G10351   3.175  -0.591  40.505 -0.0640 -1.3195 -1.0871
  102OSM   C13F10352   3.080  -0.451  40.373  0.2118  0.2627  0.5243
  102OSM   H13F10353   3.167  -0.383  40.379  0.4065  0.0539  0.1025
  102OSM   H13G10354   2.981  -0.402  40.357  0.4807  0.1678 -1.5902
  102OSM   C14F10355   3.104  -0.546  40.243  0.2946  0.6339 -0.4311
  102OSM   H14F10356   3.013  -0.608  40.225  2.1883 -1.8531 -1.9616
  102OSM   H14G10357   3.182  -0.620  40.269 -0.4752  0.4760  1.6254
  102OSM   C15F10358   3.144  -0.466  40.119  0.3619 -0.1800 -0.5145
  102OSM   H15F10359   3.233  -0.410  40.156 -0.8987 -0.0724  2.6664
  102OSM   H15G10360   3.065  -0.392  40.093 -0.4492 -0.7004  0.4079
  102OSM   C16F10361   3.187  -0.554  40.006 -0.2214  0.4595  0.1808
  102OSM   H16F10362   3.096  -0.594  39.956  0.7749  1.5796 -2.7436
  102OSM   H16G10363   3.243  -0.639  40.051 -4.0422 -2.2382  0.4278
  102OSM   C17F10364   3.269  -0.488  39.903 -0.0500  0.2271 -0.3576
  102OSM   H17F10365   3.370  -0.484  39.950 -0.1208  4.2871 -0.1704
  102OSM   H17G10366   3.236  -0.383  39.885 -1.4392  0.0206  0.8245
  102OSM   C18F10367   3.283  -0.566  39.773  0.6409  0.3109  0.7002
  102OSM   H18F10368   3.362  -0.543  39.698  1.5726 -3.4474  0.2976
  102OSM   H18G10369   3.187  -0.562  39.717 -0.2720 -0.0020  2.1794
  102OSM   H18H10370   3.301  -0.674  39.792  1.9599  0.6571  1.5026
  103OSM      N10371   1.237   0.015  38.333  0.1850  0.2446  0.0556
  103OSM    C1510372   1.259   0.132  38.234 -0.0690 -0.0164 -0.8471
  103OSM   H15A10373   1.248   0.229  38.281  1.8435  0.9060 -2.1849
  103OSM   H15B10374   1.198   0.128  38.144  1.3058 -1.6573 -1.7602
  103OSM   H15C10375   1.361   0.132  38.200 -0.0711 -2.0848 -0.9611
  103OSM    C1410376   1.095   0.009  38.374  1.0643 -0.1154 -1.1304
  103OSM   H14A10377   1.081  -0.068  38.449  1.0825  0.1126 -0.8888
  103OSM   H14B10378   1.021  -0.006  38.297 -2.3214  3.4899  1.0405
  103OSM   H14C10379   1.073   0.104  38.421 -0.6758  0.3719 -2.7728
  103OSM    C1310380   1.263  -0.117  38.275  0.1728 -0.5778 -0.0590
  103OSM   H13A10381   1.362  -0.121  38.233 -0.5930  1.2544 -2.1981
  103OSM   H13B10382   1.195  -0.129  38.192  0.2374 -1.8825  0.0575
  103OSM   H13C10383   1.247  -0.199  38.344 -0.5496 -0.5569 -0.1923
  103OSM    C1210384   1.332   0.045  38.449 -0.1924 -0.5397  0.2194
  103OSM   H12A10385   1.342   0.152  38.458  0.7165 -0.4098 -1.8221
  103OSM   H12B10386   1.434   0.029  38.417  0.0317  2.2748 -0.7873
  103OSM    C1110387   1.318  -0.024  38.583 -0.3691  0.1140 -0.0812
  103OSM   H11A10388   1.216   0.010  38.611 -0.8876 -1.0608 -0.4903
  103OSM   H11B10389   1.395   0.020  38.649 -0.5310  2.9450 -1.5755
  103OSM      P10390   1.236  -0.254  38.657 -0.6128 -0.3803  0.3031
  103OSM    O1310391   1.095  -0.211  38.673  0.0415 -0.4416 -1.1332
  103OSM    O1410392   1.253  -0.397  38.614 -0.6838  0.1766 -0.3264
  103OSM    O1110393   1.322  -0.230  38.787  0.1029  0.0869  0.1374
  103OSM    O1210394   1.329  -0.162  38.569  0.5216  1.0182  0.0592
  103OSM    C1S10395   1.395  -0.339  38.848  0.0482 -0.2361 -0.0319
  103OSM    H1S10396   1.432  -0.413  38.773 -1.9037 -1.2713 -0.0528
  103OSM    H1T10397   1.337  -0.388  38.929  2.7874 -0.5841  1.8612
  103OSM     NF10398   1.577  -0.425  38.999 -0.3320 -0.1872 -0.1093
  103OSM    HNF10399   1.585  -0.433  39.098  0.4547 -0.8014 -0.2145
  103OSM    C2S10400   1.519  -0.297  38.935  0.5424 -0.0834  0.0051
  103OSM    H2S10401   1.599  -0.263  38.866  2.8031 -0.2886  2.3799
  103OSM    C3S10402   1.482  -0.177  39.026 -0.7741  0.1145 -0.2359
  103OSM    H3S10403   1.406  -0.210  39.100  1.5637 -0.2189  2.1514
  103OSM     O310404   1.439  -0.064  38.953 -0.0395  0.3112 -0.1448
  103OSM    HO310405   1.397  -0.102  38.876  1.6557  2.5616 -2.3149
  103OSM    C4S10406   1.600  -0.142  39.114  0.5999  1.0421  0.0765
  103OSM    H4S10407   1.607  -0.180  39.217  0.2172 -0.5187 -0.4448
  103OSM    C5S10408   1.705  -0.073  39.079  0.0715  0.0706 -0.3345
  103OSM    H5S10409   1.708  -0.040  38.974  1.6534  0.0915 -0.3137
  103OSM    C6S10410   1.801  -0.024  39.177 -0.2383 -0.4102  0.3165
  103OSM    H6S10411   1.744   0.012  39.266  0.1439 -0.2794  0.5110
  103OSM    H6T10412   1.844   0.059  39.117 -1.6923  0.7350  0.7838
  103OSM    C7S10413   1.908  -0.120  39.224  0.7659 -0.3339  0.0748
  103OSM    H7S10414   1.954  -0.168  39.135  0.4624  2.6339 -1.8276
  103OSM    H7T10415   1.864  -0.201  39.286 -0.2567  0.5540  0.5453
  103OSM    C8S10416   2.016  -0.049  39.312  0.1408  0.3417 -0.0783
  103OSM    H8S10417   1.963  -0.011  39.402 -1.0437  0.0943 -0.6672
  103OSM    H8T10418   2.046   0.050  39.271 -1.5747  0.6704 -0.6250
  103OSM    C9S10419   2.138  -0.126  39.346  0.3251  0.7020 -0.3179
  103OSM    H9S10420   2.198  -0.121  39.253  2.0264 -1.3124  0.5903
  103OSM    H9T10421   2.115  -0.232  39.373 -1.5811  0.7746 -1.4144
  103OSM   C10S10422   2.235  -0.072  39.448 -0.1143 -0.8889 -0.5189
  103OSM   H10S10423   2.179  -0.070  39.544  1.6283 -0.8231  0.5435
  103OSM   H10T10424   2.259   0.034  39.424 -2.5641  0.2519  1.5617
  103OSM   C11S10425   2.359  -0.156  39.491 -0.2937  0.1296 -0.2771
  103OSM   H11S10426   2.338  -0.265  39.478  0.4210 -0.1750  0.9254
  103OSM   H11T10427   2.383  -0.144  39.599  1.7159  2.3943 -0.9137
  103OSM   C12S10428   2.494  -0.146  39.419 -0.3539 -0.1559 -0.6523
  103OSM   H12S10429   2.560  -0.229  39.452  1.8912  1.9641  0.5789
  103OSM   H12T10430   2.539  -0.048  39.446 -0.5959  0.2107 -1.5374
  103OSM   C13S10431   2.475  -0.155  39.268  0.1720  0.5128  0.6572
  103OSM   H13S10432   2.451  -0.053  39.231  0.4067  0.3365  0.0064
  103OSM   H13T10433   2.390  -0.226  39.260  1.1496 -0.8231  1.6656
  103OSM   C14S10434   2.602  -0.188  39.189 -0.5107 -0.2091 -0.0154
  103OSM   H14S10435   2.580  -0.177  39.080  0.6548  0.7757 -0.1735
  103OSM   H14T10436   2.621  -0.297  39.201  1.4835  0.1687  0.6277
  103OSM   C15S10437   2.727  -0.111  39.230  0.2967 -0.5089 -0.8264
  103OSM   H15S10438   2.752  -0.140  39.335  0.3910 -0.5224 -0.8534
  103OSM   H15T10439   2.702  -0.004  39.219  0.4916 -0.2786  0.6759
  103OSM   C16S10440   2.860  -0.149  39.159 -0.0157  0.3796  0.2798
  103OSM   H16S10441   2.862  -0.260  39.159  0.5719  0.2873 -3.2203
  103OSM   H16T10442   2.945  -0.118  39.223  0.9443  0.4111 -0.9725
  103OSM   C17S10443   2.879  -0.094  39.021 -0.1645  0.7427  0.4316
  103OSM   H17S10444   2.869   0.016  39.023  2.7627  1.1172 -0.0383
  103OSM   H17T10445   2.797  -0.143  38.963 -0.9635  1.6272  0.7958
  103OSM   C18S10446   3.021  -0.134  38.972  0.0977  0.0210 -0.1484
  103OSM   H18S10447   3.040  -0.242  38.951  2.9236  0.3200  0.4572
  103OSM   H18T10448   3.093  -0.093  39.046 -1.2870  2.7057 -0.1782
  103OSM   H18U10449   3.045  -0.095  38.871  0.2080  0.4532  0.0384
  103OSM    C1F10450   1.627  -0.520  38.921 -1.1256  0.3163 -0.5162
  103OSM     OF10451   1.612  -0.530  38.801 -0.3230  0.7251 -0.0767
  103OSM    C2F10452   1.716  -0.621  38.992 -0.2489  0.4312 -0.1554
  103OSM    H2F10453   1.820  -0.609  38.955  0.4211 -1.0085  1.1499
  103OSM    H2G10454   1.688  -0.717  38.945 -1.7536  0.5382  0.4836
  103OSM    C3F10455   1.719  -0.614  39.146 -1.3865  0.7415  0.7131
  103OSM    H3F10456   1.619  -0.588  39.185 -1.8173  2.0803 -1.1757
  103OSM    H3G10457   1.770  -0.518  39.171 -1.6166  1.0180  0.1243
  103OSM    C4F10458   1.779  -0.735  39.213 -0.9034  0.0610 -0.2424
  103OSM    H4F10459   1.883  -0.750  39.177  0.2238 -1.3229  3.1646
  103OSM    H4G10460   1.724  -0.828  39.185 -1.4015  0.8966 -2.1737
  103OSM    C5F10461   1.790  -0.732  39.369  0.5046  0.2381  0.3303
  103OSM    H5F10462   1.684  -0.735  39.399 -0.4850  1.3033 -2.6235
  103OSM    H5G10463   1.829  -0.636  39.409 -0.2855  1.4442 -1.6173
  103OSM    C6F10464   1.858  -0.857  39.432  0.1515 -0.3718  0.3218
  103OSM    H6F10465   1.859  -0.951  39.373  1.4398 -0.9841  1.2846
  103OSM    H6G10466   1.794  -0.885  39.519  0.6758 -1.7450  0.2864
  103OSM    C7F10467   1.996  -0.820  39.476  0.5531  0.0821 -0.1961
  103OSM    H7F10468   1.991  -0.719  39.521 -1.6489  1.2718 -2.8872
  103OSM    H7G10469   2.052  -0.821  39.380 -1.9245 -2.3161 -1.7396
  103OSM    C8F10470   2.056  -0.920  39.580  0.6199 -0.2473 -0.3841
  103OSM    H8F10471   2.166  -0.914  39.566  0.8778 -3.0941 -0.1705
  103OSM    H8G10472   2.018  -1.022  39.559 -1.7705  0.2259  1.1882
  103OSM    C9F10473   2.028  -0.879  39.725  0.3895  0.2531  0.1315
  103OSM    H9F10474   2.089  -0.794  39.760  0.7194 -0.2540  0.8215
  103OSM   C10F10475   1.959  -0.956  39.818  0.0660 -0.4057  0.2860
  103OSM   H10F10476   1.939  -0.919  39.920 -1.2850 -0.0452 -0.0889
  103OSM   C11F10477   1.888  -1.085  39.778 -0.3218  0.7237 -1.9602
  103OSM   H11F10478   1.942  -1.144  39.700  1.0137 -2.8936  1.3493
  103OSM   H11G10479   1.789  -1.067  39.731 -0.1383 -3.7087 -4.6578
  103OSM   C12F10480   1.874  -1.179  39.899  0.2196 -0.6994 -0.8664
  103OSM   H12F10481   1.841  -1.126  39.992 -0.7701 -1.5869 -0.6869
  103OSM   H12G10482   1.974  -1.221  39.920 -0.0308  0.1077  2.7018
  103OSM   C13F10483   1.764  -1.294  39.889 -0.1153  0.0829  0.1306
  103OSM   H13F10484   1.811  -1.366  39.819  0.6759  0.5706  0.1597
  103OSM   H13G10485   1.674  -1.241  39.849 -0.9936 -0.9647  0.6496
  103OSM   C14F10486   1.725  -1.364  40.019 -0.1459  0.5823 -0.2490
  103OSM   H14F10487   1.645  -1.433  39.986 -1.0331  1.7421 -0.5818
  103OSM   H14G10488   1.692  -1.295  40.099  1.2242  0.7137  0.2366
  103OSM   C15F10489   1.837  -1.451  40.078  0.0944 -0.2959  0.3759
  103OSM   H15F10490   1.934  -1.405  40.049 -1.0495  1.6887 -0.5005
  103OSM   H15G10491   1.851  -1.534  40.005  0.2995  0.5690 -0.5806
  103OSM   C16F10492   1.794  -1.497  40.224  0.5456  0.0876  0.4089
  103OSM   H16F10493   1.692  -1.538  40.205  0.4246  0.9110 -0.9145
  103OSM   H16G10494   1.779  -1.405  40.284 -1.8304 -0.6381  1.0597
  103OSM   C17F10495   1.882  -1.606  40.278  0.3555  0.5908  0.4135
  103OSM   H17F10496   1.854  -1.700  40.225 -0.0885  0.5904  0.6433
  103OSM   H17G10497   1.840  -1.629  40.378 -0.6596 -0.3529 -0.1882
  103OSM   C18F10498   2.033  -1.566  40.291  0.2839  0.0182 -0.5324
  103OSM   H18F10499   2.068  -1.522  40.195  0.5125  0.4240 -0.2607
  103OSM   H18G10500   2.101  -1.652  40.309 -2.2374 -2.1926 -0.9215
  103OSM   H18H10501   2.042  -1.491  40.372  1.6663 -1.9033  1.1977
  104OSM      N10502   1.136   0.516  38.001  0.5707  0.7569 -0.3034
  104OSM    C1510503   1.069   0.458  38.126 -0.2849  0.5885 -0.1139
  104OSM   H15A10504   1.098   0.356  38.145 -0.3320  0.8322  1.3749
  104OSM   H15B10505   0.961   0.464  38.130 -0.3498 -0.4271 -0.1629
  104OSM   H15C10506   1.111   0.517  38.205 -1.7914  0.9288  0.4708
  104OSM    C1410507   1.196   0.651  38.021  0.3848 -0.7664  0.5696
  104OSM   H14A10508   1.295   0.647  38.064 -0.1712 -0.8096  1.8811
  104OSM   H14B10509   1.136   0.698  38.097 -1.4203  1.9690 -2.2864
  104OSM   H14C10510   1.204   0.707  37.929  0.7404 -1.1400  0.3665
  104OSM    C1310511   1.243   0.421  37.954 -1.0102 -0.5640  0.5036
  104OSM   H13A10512   1.297   0.466  37.872  1.2958 -0.5683  1.9227
  104OSM   H13B10513   1.202   0.324  37.929  0.9619 -1.7702  1.7081
  104OSM   H13C10514   1.317   0.422  38.033 -0.8370 -1.0067  0.3476
  104OSM    C1210515   1.026   0.510  37.893  0.2113 -0.0464  0.0331
  104OSM   H12A10516   0.981   0.412  37.895 -0.2533  0.1443 -0.7352
  104OSM   H12B10517   1.084   0.513  37.802  1.9838 -0.9278  1.0645
  104OSM    C1110518   0.919   0.624  37.899 -0.8186  0.0497  1.1865
  104OSM   H11A10519   0.867   0.621  37.801  0.7536  0.8363  0.2743
  104OSM   H11B10520   0.971   0.722  37.913  2.9970 -1.0046 -3.1195
  104OSM      P10521   0.715   0.499  38.000  0.6170 -0.3259 -0.3729
  104OSM    O1310522   0.744   0.366  37.938 -0.2192  0.2178  0.0457
  104OSM    O1410523   0.651   0.499  38.136  0.1331 -0.0574  0.5400
  104OSM    O1110524   0.623   0.588  37.905 -0.3168 -0.4971  0.1473
  104OSM    O1210525   0.841   0.593  38.013 -0.4460  0.6861 -0.1344
  104OSM    C1S10526   0.612   0.727  37.941 -0.3467  0.1002  0.2111
  104OSM    H1S10527   0.686   0.786  37.883  0.0459  2.2195  2.7183
  104OSM    H1T10528   0.623   0.739  38.051  0.7654 -4.1908  0.7759
  104OSM     NF10529   0.481   0.935  37.920  0.4350 -0.3119 -0.2444
  104OSM    HNF10530   0.435   0.970  38.002 -0.3597  1.9214 -1.5616
  104OSM    C2S10531   0.473   0.793  37.904 -0.2961  0.1448  0.1886
  104OSM    H2S10532   0.467   0.774  37.795  0.9046 -1.5462  0.3694
  104OSM    C3S10533   0.357   0.725  37.975  0.7803 -0.2872 -0.3674
  104OSM    H3S10534   0.351   0.764  38.079  0.8583 -0.5091 -0.2793
  104OSM     O310535   0.368   0.583  37.994 -0.6236 -0.5300  0.2829
  104OSM    HO310536   0.461   0.562  37.987 -0.1713  1.0360  1.0067
  104OSM    C4S10537   0.224   0.762  37.916  0.1671 -0.0637 -0.1135
  104OSM    H4S10538   0.183   0.857  37.954 -1.3359  0.1660 -2.1729
  104OSM    C5S10539   0.141   0.693  37.835 -0.1228 -0.9910  0.6822
  104OSM    H5S10540   0.166   0.591  37.803 -1.0449 -1.2821  0.8678
  104OSM    C6S10541   0.006   0.742  37.803 -0.1321  0.1716  0.9025
  104OSM    H6S10542  -0.050   0.656  37.760 -0.8320  0.8236  0.4934
  104OSM    H6T10543   0.010   0.820  37.724 -2.3079  0.7649  1.3340
  104OSM    C7S10544  -0.076   0.799  37.917  0.7069  0.2520  0.8483
  104OSM    H7S10545  -0.025   0.885  37.964  0.2136  0.4251  1.0769
  104OSM    H7T10546  -0.103   0.730  38.000 -1.4274  2.8503  2.5073
  104OSM    C8S10547  -0.220   0.839  37.874  0.2628  0.0171  0.0094
  104OSM    H8S10548  -0.265   0.757  37.814  1.1776  0.3392 -1.1511
  104OSM    H8T10549  -0.228   0.939  37.826  1.1079 -0.1869 -0.5867
  104OSM    C9S10550  -0.300   0.853  38.003  0.6380 -0.0246 -0.5157
  104OSM    H9S10551  -0.349   0.761  38.042 -0.5594  0.7603 -0.1307
  104OSM    H9T10552  -0.383   0.921  37.975  1.6911  1.2291 -0.7177
  104OSM   C10S10553  -0.234   0.934  38.123  0.6772  0.8685  0.2840
  104OSM   H10S10554  -0.204   1.031  38.079  0.8409  0.6655 -0.0578
  104OSM   H10T10555  -0.132   0.893  38.142  0.9426  1.5452  0.3366
  104OSM   C11S10556  -0.321   0.937  38.248 -0.4872  0.1415 -0.5330
  104OSM   H11S10557  -0.317   0.834  38.291 -2.3324  0.8219  1.4478
  104OSM   H11T10558  -0.427   0.948  38.217 -0.7742  1.5787  0.8096
  104OSM   C12S10559  -0.270   1.033  38.352 -0.1211  0.5347  0.3609
  104OSM   H12S10560  -0.162   1.006  38.360 -0.1242  0.4529  0.1401
  104OSM   H12T10561  -0.312   1.014  38.453 -0.0413  1.1664  0.5161
  104OSM   C13S10562  -0.314   1.172  38.316 -0.2123  0.3047  0.7642
  104OSM   H13S10563  -0.425   1.166  38.319 -0.2053  0.4633  2.6994
  104OSM   H13T10564  -0.276   1.207  38.217  0.0446  0.4512  0.9170
  104OSM   C14S10565  -0.288   1.274  38.430 -0.1273 -0.8767  0.8373
  104OSM   H14S10566  -0.178   1.285  38.445 -0.1906  0.4474  0.4895
  104OSM   H14T10567  -0.328   1.239  38.527 -2.6873  1.5891  0.8148
  104OSM   C15S10568  -0.348   1.417  38.393  0.6669  0.8326 -0.9161
  104OSM   H15S10569  -0.458   1.422  38.385  0.4895 -2.7506 -4.1121
  104OSM   H15T10570  -0.318   1.449  38.290  1.8738  0.6307 -0.6490
  104OSM   C16S10571  -0.310   1.531  38.492  0.3580  0.3631  0.3684
  104OSM   H16S10572  -0.203   1.560  38.483  0.4299 -0.1976 -0.7671
  104OSM   H16T10573  -0.331   1.515  38.600  0.3826  2.4979  0.7466
  104OSM   C17S10574  -0.373   1.671  38.463  0.8310  0.1769 -0.1676
  104OSM   H17S10575  -0.369   1.689  38.353  0.3445  2.3188  0.1253
  104OSM   H17T10576  -0.303   1.736  38.519  2.1718 -1.0445 -0.3587
  104OSM   C18S10577  -0.518   1.695  38.508  0.3631 -0.3488 -0.7780
  104OSM   H18S10578  -0.572   1.769  38.445 -2.4666 -1.5276  0.0687
  104OSM   H18T10579  -0.512   1.729  38.613  0.2074  2.6257 -1.6331
  104OSM   H18U10580  -0.582   1.604  38.500  0.4417 -0.3007 -2.3661
  104OSM    C1F10581   0.540   1.022  37.844  1.3125  0.9680 -0.2459
  104OSM     OF10582   0.599   0.993  37.742 -0.0786  0.9210  0.7717
  104OSM    C2F10583   0.535   1.158  37.899 -0.4696 -0.7043 -0.5664
  104OSM    H2F10584   0.635   1.205  37.895 -1.8508  2.6169  0.1671
  104OSM    H2G10585   0.508   1.151  38.007  1.0287 -1.7147 -0.2220
  104OSM    C3F10586   0.420   1.243  37.830  1.0211  0.2752  0.0043
  104OSM    H3F10587   0.333   1.175  37.828  1.6988 -0.7170  1.7621
  104OSM    H3G10588   0.448   1.270  37.726  1.4550  0.8891  0.2727
  104OSM    C4F10589   0.385   1.372  37.904  0.3332  0.1165 -0.2484
  104OSM    H4F10590   0.474   1.407  37.961  1.1866  0.0416 -1.4883
  104OSM    H4G10591   0.318   1.343  37.988 -1.0978  1.4497 -0.8718
  104OSM    C5F10592   0.331   1.480  37.815  0.1379  0.8606  0.1453
  104OSM    H5F10593   0.230   1.443  37.788 -1.3941  3.8466  1.2960
  104OSM    H5G10594   0.378   1.503  37.717 -1.8972  0.2144 -1.0295
  104OSM    C6F10595   0.312   1.608  37.888 -0.1022  0.2121 -0.0163
  104OSM    H6F10596   0.413   1.652  37.904  0.6651 -2.0514  2.0243
  104OSM    H6G10597   0.285   1.576  37.991 -2.6000 -0.1173 -0.7147
  104OSM    C7F10598   0.197   1.692  37.824  0.6609 -0.1157  0.4182
  104OSM    H7F10599   0.106   1.629  37.832 -0.9089  2.0310  0.3036
  104OSM    H7G10600   0.217   1.705  37.715 -0.4249 -1.0660  0.0849
  104OSM    C8F10601   0.157   1.829  37.888  0.3514 -0.0319  0.3315
  104OSM    H8F10602   0.148   1.804  37.996 -1.1946  2.8798  0.9670
  104OSM    H8G10603   0.058   1.870  37.859  1.3581  2.4581  0.1475
  104OSM    C9F10604   0.262   1.932  37.862  0.2884 -0.5404 -0.5694
  104OSM    H9F10605   0.358   1.888  37.832  0.5465  0.1364 -0.7436
  104OSM   C10F10606   0.250   2.061  37.895  0.2759  0.0624 -0.4850
  104OSM   H10F10607   0.342   2.121  37.884  2.0618 -2.2057  0.9922
  104OSM   C11F10608   0.128   2.132  37.951 -0.0130 -0.8829 -0.0381
  104OSM   H11F10609   0.038   2.084  37.906  0.4738 -0.9441 -0.9764
  104OSM   H11G10610   0.125   2.240  37.925 -3.1418 -0.8989 -0.0943
  104OSM   C12F10611   0.136   2.111  38.106 -0.1742 -0.1318  0.0002
  104OSM   H12F10612   0.200   2.192  38.145 -1.6810  1.0093  0.2053
  104OSM   H12G10613   0.176   2.013  38.140 -0.6129  0.1318  1.3243
  104OSM   C13F10614  -0.006   2.135  38.172 -0.3952 -0.2697  1.0364
  104OSM   H13F10615  -0.074   2.048  38.163  2.0362 -2.3256  1.3309
  104OSM   H13G10616  -0.052   2.212  38.107 -0.4435  0.0489  1.4403
  104OSM   C14F10617   0.004   2.183  38.314 -0.3650  0.3462  0.8162
  104OSM   H14F10618   0.071   2.270  38.328 -1.8393  2.0384 -1.9151
  104OSM   H14G10619   0.049   2.106  38.381  1.3087 -0.6689 -1.3542
  104OSM   C15F10620  -0.130   2.228  38.372  0.3494  0.2084 -0.3531
  104OSM   H15F10621  -0.151   2.328  38.329  0.8284  1.2797  1.7453
  104OSM   H15G10622  -0.135   2.242  38.482 -1.6818  1.9630 -0.5751
  104OSM   C16F10623  -0.245   2.129  38.335 -0.5602  0.2202 -0.1905
  104OSM   H16F10624  -0.218   2.022  38.349 -0.3561  0.6146  3.5646
  104OSM   H16G10625  -0.270   2.142  38.228  1.5197 -0.2791 -0.7741
  104OSM   C17F10626  -0.364   2.156  38.426 -0.1481  0.7442 -0.0750
  104OSM   H17F10627  -0.420   2.239  38.376 -0.2623  0.3916 -0.5322
  104OSM   H17G10628  -0.331   2.192  38.525  0.7820  2.6820 -1.0188
  104OSM   C18F10629  -0.463   2.044  38.448  0.7025 -0.3539 -0.3477
  104OSM   H18F10630  -0.412   1.953  38.487  1.1682  0.2880  0.5770
  104OSM   H18G10631  -0.529   2.015  38.364 -1.1417 -0.5502  1.0856
  104OSM   H18H10632  -0.540   2.081  38.520  0.3536  1.7433 -1.7061
  105OSM      N10633   1.352   2.788  34.679 -1.3858 -0.1088 -0.3255
  105OSM    C1510634   1.308   2.787  34.815  0.6143  0.1923 -0.6250
  105OSM   H15A10635   1.328   2.688  34.852  1.1619 -0.1677 -1.8293
  105OSM   H15B10636   1.207   2.826  34.820 -0.2932 -2.0792 -0.3671
  105OSM   H15C10637   1.361   2.855  34.880  0.4131 -0.2214 -0.0258
  105OSM    C1410638   1.342   2.652  34.612  0.1248  0.6689  0.5190
  105OSM   H14A10639   1.374   2.564  34.666 -3.0578 -1.9495 -1.4368
  105OSM   H14B10640   1.391   2.651  34.516 -1.1278  2.3928 -0.2001
  105OSM   H14C10641   1.236   2.635  34.603  0.4066 -1.3346  0.6386
  105OSM    C1310642   1.277   2.894  34.601 -1.0617  0.5650  1.1704
  105OSM   H13A10643   1.293   2.984  34.658 -1.2150  0.2204  1.7630
  105OSM   H13B10644   1.171   2.873  34.597 -1.1789  1.2165  0.5839
  105OSM   H13C10645   1.324   2.907  34.504  1.2348 -0.4119  2.0950
  105OSM    C1210646   1.499   2.837  34.672 -0.8165  0.0572 -0.3633
  105OSM   H12A10647   1.525   2.817  34.569  0.2060 -2.7994  0.3590
  105OSM   H12B10648   1.560   2.771  34.732 -0.2697  0.2683 -0.6755
  105OSM    C1110649   1.533   2.980  34.717 -0.6777 -0.5517 -0.2769
  105OSM   H11A10650   1.509   3.045  34.630 -1.3327  0.6896  0.7997
  105OSM   H11B10651   1.644   2.981  34.720 -0.4199 -3.6022 -2.9327
  105OSM      P10652   1.402   3.154  34.859  0.0668 -0.1397 -0.0459
  105OSM    O1310653   1.292   3.169  34.760  0.3735  0.2408  0.2668
  105OSM    O1410654   1.369   3.181  35.005  0.0367 -0.7477  0.3029
  105OSM    O1110655   1.530   3.248  34.820  0.1019  0.0443  0.1636
  105OSM    O1210656   1.480   3.017  34.847 -0.3392 -0.7404  0.4488
  105OSM    C1S10657   1.542   3.379  34.859  0.0482  0.6275 -0.2078
  105OSM    H1S10658   1.539   3.382  34.970 -0.0916 -1.6795 -0.0961
  105OSM    H1T10659   1.455   3.436  34.820 -0.2529  0.0417 -0.3929
  105OSM     NF10660   1.713   3.561  34.861  0.4341  0.1466 -0.4894
  105OSM    HNF10661   1.721   3.632  34.791 -2.7387  2.3967  1.1757
  105OSM    C2S10662   1.679   3.437  34.807  0.0026 -0.1063  0.3984
  105OSM    H2S10663   1.757   3.373  34.853  1.5541  2.1041  0.9810
  105OSM    C3S10664   1.685   3.417  34.653 -0.4243 -0.1468 -0.3849
  105OSM    H3S10665   1.630   3.504  34.612 -0.6619 -0.6071 -1.0591
  105OSM     O310666   1.615   3.301  34.594  0.2224  0.1452  0.1664
  105OSM    HO310667   1.595   3.257  34.677  3.7511  0.5431  1.4287
  105OSM    C4S10668   1.829   3.424  34.605 -0.5015 -0.1417  0.2157
  105OSM    H4S10669   1.863   3.518  34.557  1.5865 -1.8353 -1.8815
  105OSM    C5S10670   1.916   3.325  34.595 -0.3307  0.3115 -0.7453
  105OSM    H5S10671   1.882   3.226  34.628 -2.2524  1.2951  0.4462
  105OSM    C6S10672   2.056   3.335  34.534  0.4613 -0.3314 -0.5633
  105OSM    H6S10673   2.121   3.289  34.611  0.2099 -0.3186 -0.3353
  105OSM    H6T10674   2.091   3.439  34.513  1.0067 -0.7122 -1.5771
  105OSM    C7S10675   2.057   3.264  34.400 -0.9725 -0.1199  0.0469
  105OSM    H7S10676   2.004   3.330  34.328 -0.5538  0.6510  0.4327
  105OSM    H7T10677   1.986   3.179  34.398 -1.0131 -0.1036  0.6822
  105OSM    C8S10678   2.195   3.207  34.356  0.2559 -0.0581  0.0067
  105OSM    H8S10679   2.177   3.173  34.252  0.8157  0.7250 -0.3592
  105OSM    H8T10680   2.232   3.130  34.427 -0.4422  0.8406  1.4016
  105OSM    C9S10681   2.304   3.320  34.350 -0.4074  0.3537  0.3062
  105OSM    H9S10682   2.307   3.374  34.447  1.9994  0.0902  0.4436
  105OSM    H9T10683   2.269   3.389  34.271  0.4783  1.0659  0.5164
  105OSM   C10S10684   2.443   3.264  34.321 -0.5767  0.0367  0.4102
  105OSM   H10S10685   2.496   3.311  34.235  0.4211  2.4022  2.2155
  105OSM   H10T10686   2.439   3.155  34.303  0.7317 -0.0462  0.5358
  105OSM   C11S10687   2.536   3.276  34.440 -0.2568  0.3619  0.9031
  105OSM   H11S10688   2.473   3.235  34.522  1.4747 -0.6820  1.7494
  105OSM   H11T10689   2.559   3.377  34.482  1.3275 -0.0932  1.1808
  105OSM   C12S10690   2.668   3.194  34.415 -0.4328 -0.0142 -0.2632
  105OSM   H12S10691   2.728   3.252  34.341  0.7085 -1.0677 -0.2107
  105OSM   H12T10692   2.634   3.101  34.364 -0.3970 -1.5137  2.2979
  105OSM   C13S10693   2.742   3.162  34.545  0.1442  0.0923  0.1341
  105OSM   H13S10694   2.667   3.139  34.624 -0.3093 -1.0275 -0.5988
  105OSM   H13T10695   2.777   3.261  34.584 -1.0110  0.1570  1.0722
  105OSM   C14S10696   2.845   3.051  34.549 -0.3613  0.0088  0.2161
  105OSM   H14S10697   2.815   2.957  34.497  0.5777 -0.3773  0.3643
  105OSM   H14T10698   2.862   3.021  34.654  1.2480 -2.6200 -0.6911
  105OSM   C15S10699   2.977   3.093  34.484 -0.6378  0.1664 -0.4365
  105OSM   H15S10700   3.011   3.183  34.539 -1.4605 -0.6141  1.4213
  105OSM   H15T10701   2.961   3.124  34.378 -1.6879 -0.9565 -0.6270
  105OSM   C16S10702   3.096   2.992  34.487 -0.1484 -0.0533 -0.0197
  105OSM   H16S10703   3.052   2.898  34.446  0.7151 -1.7581  2.6598
  105OSM   H16T10704   3.123   2.972  34.593  0.6387  0.9063 -0.0274
  105OSM   C17S10705   3.224   3.045  34.418  0.7202 -0.7170 -0.4216
  105OSM   H17S10706   3.312   2.992  34.461 -1.3350 -1.8932  2.7593
  105OSM   H17T10707   3.237   3.151  34.448  1.4959 -0.3372 -2.0131
  105OSM   C18S10708   3.217   3.036  34.267  0.4131  0.6923  0.5804
  105OSM   H18S10709   3.201   2.932  34.232  3.6184  0.4230 -0.4815
  105OSM   H18T10710   3.316   3.073  34.230 -0.4172  0.7892 -1.6765
  105OSM   H18U10711   3.143   3.106  34.224  2.6153  2.6393 -0.2704
  105OSM    C1F10712   1.716   3.594  34.991 -0.2108 -0.2282  0.4164
  105OSM     OF10713   1.719   3.510  35.085  0.6876  0.1199 -0.2059
  105OSM    C2F10714   1.706   3.742  35.024  0.2068 -0.0737 -0.1013
  105OSM    H2F10715   1.611   3.763  35.077 -1.8042 -0.8061 -3.1441
  105OSM    H2G10716   1.711   3.814  34.939  4.3671  0.3796  0.3328
  105OSM    C3F10717   1.825   3.785  35.102 -0.3287  0.6531 -0.8640
  105OSM    H3F10718   1.832   3.718  35.191 -0.3972  0.7121 -0.8140
  105OSM    H3G10719   1.802   3.883  35.148  2.9827  1.0367  0.2482
  105OSM    C4F10720   1.958   3.797  35.022  0.7527  0.4851  0.4263
  105OSM    H4F10721   1.944   3.875  34.945  0.5896 -0.8404 -0.9529
  105OSM    H4G10722   1.979   3.705  34.962 -1.1315  1.3021 -1.6112
  105OSM    C5F10723   2.073   3.836  35.114  0.3311  0.6626 -1.0955
  105OSM    H5F10724   2.166   3.859  35.058  1.9204  0.5029  1.3225
  105OSM    H5G10725   2.093   3.752  35.184 -0.6528 -1.0891 -2.8105
  105OSM    C6F10726   2.057   3.958  35.202  0.7556 -0.5919 -0.6269
  105OSM    H6F10727   2.128   3.954  35.287 -0.1944  2.4008  0.4319
  105OSM    H6G10728   1.963   3.931  35.255  0.8947 -1.4319 -0.7989
  105OSM    C7F10729   2.057   4.096  35.131  0.1386  0.5068 -0.2425
  105OSM    H7F10730   1.962   4.098  35.074 -2.8097 -1.6389  4.0468
  105OSM    H7G10731   2.138   4.108  35.056  3.0493  1.9450  2.8376
  105OSM    C8F10732   2.069   4.212  35.230  0.2580 -0.4929 -0.6440
  105OSM    H8F10733   2.173   4.210  35.267  0.1607 -3.0692 -0.3428
  105OSM    H8G10734   2.007   4.182  35.317  2.0949  0.6785  1.1560
  105OSM    C9F10735   2.017   4.349  35.192 -0.1209 -0.4581 -0.6072
  105OSM    H9F10736   1.929   4.382  35.247  1.4000  1.1528  0.9645
  105OSM   C10F10737   2.050   4.421  35.084  0.6011 -0.2384 -0.0752
  105OSM   H10F10738   1.999   4.518  35.076  0.2897 -0.1087  2.6726
  105OSM   C11F10739   2.160   4.407  34.980 -0.5266  0.2998 -0.2730
  105OSM   H11F10740   2.121   4.434  34.880  0.4687  0.0090 -0.7516
  105OSM   H11G10741   2.203   4.305  34.972  1.4919  1.0015  0.8519
  105OSM   C12F10742   2.287   4.487  35.011 -0.0066 -0.1697  0.1069
  105OSM   H12F10743   2.313   4.477  35.118  0.5767 -0.9349 -0.0995
  105OSM   H12G10744   2.267   4.594  34.987  0.9021  0.4587  1.9580
  105OSM   C13F10745   2.416   4.433  34.944 -0.0196  0.4212  0.1796
  105OSM   H13F10746   2.407   4.434  34.833  0.7571 -1.0989  0.0672
  105OSM   H13G10747   2.433   4.325  34.967  2.0345  0.8318  0.7651
  105OSM   C14F10748   2.541   4.506  34.989  0.0053  0.6847  1.5502
  105OSM   H14F10749   2.548   4.530  35.098 -0.9108  1.3423  1.4768
  105OSM   H14G10750   2.537   4.604  34.937  0.8191 -0.0217  0.0987
  105OSM   C15F10751   2.665   4.431  34.961 -0.6731  0.3455  0.7755
  105OSM   H15F10752   2.653   4.402  34.854  1.3186 -3.1029  1.3378
  105OSM   H15G10753   2.670   4.336  35.018  1.4229  1.0119  1.8176
  105OSM   C16F10754   2.781   4.515  34.995 -0.4102 -0.3950  0.1893
  105OSM   H16F10755   2.773   4.539  35.103 -1.5933 -0.2764  0.0857
  105OSM   H16G10756   2.765   4.608  34.937 -2.1475 -1.1698 -0.6624
  105OSM   C17F10757   2.923   4.461  34.967  0.1404 -0.5829  0.1003
  105OSM   H17F10758   2.934   4.423  34.863  0.1457 -0.5956  0.1070
  105OSM   H17G10759   2.932   4.377  35.039 -1.4156 -1.9002 -1.1654
  105OSM   C18F10760   3.033   4.562  34.969 -0.0536  0.3434 -0.1149
  105OSM   H18F10761   3.020   4.643  34.894  1.3733  0.9653  0.2780
  105OSM   H18G10762   3.133   4.524  34.940  1.5550  3.7900  0.3337
  105OSM   H18H10763   3.057   4.615  35.063  2.1751 -2.2522  0.8832
  106OSM      N10764   0.793   3.057  34.291 -0.1535  0.2168 -0.0690
  106OSM    C1510765   0.854   2.933  34.355 -0.0706  0.1269  0.0520
  106OSM   H15A10766   0.925   2.885  34.289  0.5740  2.8128 -1.3203
  106OSM   H15B10767   0.779   2.858  34.376  0.7401 -1.3680 -2.0629
  106OSM   H15C10768   0.917   2.960  34.438 -0.9646  0.2144  0.7243
  106OSM    C1410769   0.720   3.135  34.392 -0.0817  0.1483  0.0933
  106OSM   H14A10770   0.666   3.212  34.339 -0.5896 -0.6326 -0.5422
  106OSM   H14B10771   0.785   3.200  34.450  0.1978  0.6791 -0.7952
  106OSM   H14C10772   0.659   3.067  34.449  1.0496 -0.5786  0.4895
  106OSM    C1310773   0.901   3.136  34.218 -0.2093  0.4522 -0.8047
  106OSM   H13A10774   0.999   3.112  34.256 -0.7953  0.4527  0.7659
  106OSM   H13B10775   0.879   3.241  34.212  1.3824  0.8182 -0.6100
  106OSM   H13C10776   0.893   3.107  34.114 -1.8127  0.5945 -0.7436
  106OSM    C1210777   0.705   3.001  34.181  0.6657 -0.0972  0.3598
  106OSM   H12A10778   0.637   2.923  34.211 -0.5601  0.8183  0.0687
  106OSM   H12B10779   0.775   2.954  34.113  0.2058 -0.1334 -0.0953
  106OSM    C1110780   0.621   3.104  34.089 -0.8499  0.1005  0.1302
  106OSM   H11A10781   0.572   3.042  34.010 -3.0881  1.6776  0.1850
  106OSM   H11B10782   0.694   3.166  34.033  0.4977 -0.7065  0.9232
  106OSM      P10783   0.509   3.329  34.162  0.0858  0.6352  0.4779
  106OSM    O1310784   0.491   3.385  34.296  0.0316  0.1248  0.4644
  106OSM    O1410785   0.612   3.393  34.073  0.5620  0.2281 -0.5402
  106OSM    O1110786   0.373   3.338  34.083  0.0828 -0.4719 -0.0830
  106OSM    O1210787   0.529   3.175  34.169 -0.3300  0.5556  0.1299
  106OSM    C1S10788   0.358   3.293  33.949 -0.7629 -0.5938  0.1325
  106OSM    H1S10789   0.429   3.211  33.922 -1.1396 -1.4281  1.5569
  106OSM    H1T10790   0.383   3.372  33.876  0.5384  0.7001  1.8852
  106OSM     NF10791   0.193   3.169  33.825  0.1648 -0.5915  0.2786
  106OSM    HNF10792   0.150   3.201  33.741  1.6392  0.8182  0.0091
  106OSM    C2S10793   0.217   3.253  33.936 -0.2112 -0.7596 -0.3144
  106OSM    H2S10794   0.189   3.194  34.026  1.0141  0.0848  0.6582
  106OSM    C3S10795   0.135   3.387  33.932  0.3896 -0.1089 -0.3735
  106OSM    H3S10796   0.137   3.434  33.832  3.6277 -0.2625 -0.4872
  106OSM     O310797   0.188   3.499  34.002 -0.1960  0.0667 -0.3796
  106OSM    HO310798   0.267   3.462  34.044 -0.9359  0.7771  1.8011
  106OSM    C4S10799  -0.006   3.364  33.981 -0.0708 -0.7872 -0.2191
  106OSM    H4S10800  -0.007   3.327  34.084 -1.5625  0.1161  0.1204
  106OSM    C5S10801  -0.124   3.379  33.920 -0.1157  0.2699 -0.4665
  106OSM    H5S10802  -0.131   3.380  33.810 -3.2490  0.1587 -0.3484
  106OSM    C6S10803  -0.268   3.361  33.956 -0.2870  0.0144 -0.0065
  106OSM    H6S10804  -0.312   3.462  33.942 -1.0941  0.0293  2.2864
  106OSM    H6T10805  -0.298   3.334  34.060 -2.9379  2.8730  0.1200
  106OSM    C7S10806  -0.336   3.258  33.861 -0.2585 -0.0509 -0.0518
  106OSM    H7S10807  -0.311   3.156  33.897  1.2597 -0.2585 -1.5415
  106OSM    H7T10808  -0.301   3.268  33.756 -2.4863  2.1857 -0.6681
  106OSM    C8S10809  -0.488   3.289  33.862  0.7344  0.4116  0.3910
  106OSM    H8S10810  -0.503   3.392  33.821 -0.3333 -0.0985 -0.5411
  106OSM    H8T10811  -0.516   3.299  33.969  2.3283 -0.2489  0.9074
  106OSM    C9S10812  -0.583   3.184  33.795  0.3795 -0.3204 -0.1856
  106OSM    H9S10813  -0.681   3.202  33.843  0.7847  2.9842 -0.3984
  106OSM    H9T10814  -0.554   3.080  33.821 -0.8456 -1.1025 -1.7584
  106OSM   C10S10815  -0.605   3.202  33.649  0.4553  0.1233 -0.2980
  106OSM   H10S10816  -0.519   3.162  33.591 -0.6201 -0.5675 -1.4595
  106OSM   H10T10817  -0.634   3.306  33.625 -0.7534 -0.3982 -1.1849
  106OSM   C11S10818  -0.732   3.117  33.603 -0.2526 -0.5630  0.2876
  106OSM   H11S10819  -0.819   3.130  33.671  1.7295 -0.1314  2.8975
  106OSM   H11T10820  -0.699   3.011  33.612 -0.1189 -0.3436  4.0727
  106OSM   C12S10821  -0.765   3.151  33.463 -0.5922 -0.5341 -0.3585
  106OSM   H12S10822  -0.718   3.071  33.401 -1.0446 -2.3970  1.6045
  106OSM   H12T10823  -0.706   3.237  33.424  3.1227 -1.9916  1.5020
  106OSM   C13S10824  -0.915   3.161  33.436 -0.7083 -0.9228 -0.3247
  106OSM   H13S10825  -0.974   3.222  33.508 -1.4137 -1.9001 -0.0485
  106OSM   H13T10826  -0.962   3.060  33.444 -3.4707  0.4078  2.2491
  106OSM   C14S10827  -0.944   3.239  33.300  0.6101  0.0383  0.2244
  106OSM   H14S10828  -0.946   3.347  33.325 -0.0519 -0.0628  0.6229
  106OSM   H14T10829  -1.044   3.216  33.258  1.0160 -0.1469 -0.6559
  106OSM   C15S10830  -0.843   3.221  33.189  0.7394 -0.5771 -0.3794
  106OSM   H15S10831  -0.800   3.118  33.195 -0.7076 -1.2136 -0.3556
  106OSM   H15T10832  -0.765   3.296  33.212  0.3706 -0.0655 -0.7791
  106OSM   C16S10833  -0.905   3.240  33.051 -0.2129  0.2482  0.3775
  106OSM   H16S10834  -0.819   3.264  32.985  0.0792 -0.4019  0.5141
  106OSM   H16T10835  -0.960   3.337  33.049  1.2721  1.1352 -2.8163
  106OSM   C17S10836  -0.969   3.110  32.994  0.3184 -0.3479  0.0301
  106OSM   H17S10837  -1.026   3.065  33.079 -0.3372  0.7404  0.1785
  106OSM   H17T10838  -0.891   3.038  32.960 -0.9796 -1.2556 -1.1293
  106OSM   C18S10839  -1.075   3.139  32.885  0.9500  0.4671  0.1473
  106OSM   H18S10840  -1.132   3.229  32.916 -1.6102 -1.1606  0.4587
  106OSM   H18T10841  -1.156   3.065  32.869  1.4056  0.1786 -0.8780
  106OSM   H18U10842  -1.029   3.148  32.784 -1.6203  1.3190 -1.0244
  106OSM    C1F10843   0.211   3.038  33.830 -0.5388 -0.2846  0.5196
  106OSM     OF10844   0.258   2.978  33.929 -0.2057 -0.9292  0.4679
  106OSM    C2F10845   0.158   2.965  33.702  0.2399 -0.4430 -0.8943
  106OSM    H2F10846   0.154   3.038  33.619  1.9167 -0.0420 -0.6691
  106OSM    H2G10847   0.055   2.929  33.723  0.1930  0.1991  0.0332
  106OSM    C3F10848   0.252   2.848  33.669  0.2112  0.3223 -0.1470
  106OSM    H3F10849   0.250   2.783  33.759  1.2222  0.9821  0.3692
  106OSM    H3G10850   0.351   2.898  33.657 -0.1603  1.8014  2.3045
  106OSM    C4F10851   0.207   2.754  33.546 -0.0243  0.1255 -0.8261
  106OSM    H4F10852   0.278   2.669  33.546 -2.1396 -1.7518  0.4780
  106OSM    H4G10853   0.215   2.815  33.453 -1.1489  2.0408  0.2641
  106OSM    C5F10854   0.066   2.701  33.557 -0.6335 -0.9404  0.3238
  106OSM    H5F10855   0.007   2.795  33.552  0.1834 -0.3823  0.8386
  106OSM    H5G10856   0.039   2.655  33.655 -3.2724  0.2589  0.2391
  106OSM    C6F10857   0.020   2.604  33.451 -1.3085 -1.0095  0.4206
  106OSM    H6F10858  -0.083   2.570  33.473 -0.6290 -3.9547 -0.5048
  106OSM    H6G10859   0.091   2.520  33.467  0.6558  0.9307  2.5291
  106OSM    C7F10860   0.023   2.658  33.311  0.2744 -0.0767 -0.0069
  106OSM    H7F10861   0.122   2.690  33.273 -0.3277  0.0330 -1.5375
  106OSM    H7G10862  -0.044   2.747  33.315 -0.6139 -0.7330  0.1909
  106OSM    C8F10863  -0.059   2.567  33.208  0.1666 -0.3311 -0.0225
  106OSM    H8F10864  -0.081   2.623  33.115  0.7646 -0.6988 -0.3835
  106OSM    H8G10865  -0.157   2.565  33.262  1.2313 -1.4867  1.9897
  106OSM    C9F10866  -0.011   2.425  33.190  0.2412  0.2962 -0.5112
  106OSM    H9F10867   0.081   2.402  33.245 -0.7481 -0.9033  0.7200
  106OSM   C10F10868  -0.060   2.337  33.105  0.3156  0.3926 -0.7310
  106OSM   H10F10869  -0.014   2.238  33.097 -2.0031 -0.6540 -2.2282
  106OSM   C11F10870  -0.177   2.350  33.014  0.5616 -0.7944 -0.2815
  106OSM   H11F10871  -0.198   2.458  33.006 -1.2263 -0.9477  1.4645
  106OSM   H11G10872  -0.265   2.297  33.055 -0.3724  1.1923  0.3981
  106OSM   C12F10873  -0.168   2.289  32.871  0.0083  0.8188 -0.8820
  106OSM   H12F10874  -0.062   2.280  32.839  0.1601 -2.9248  0.2064
  106OSM   H12G10875  -0.217   2.342  32.787  1.5289  1.1754 -1.5764
  106OSM   C13F10876  -0.230   2.142  32.875 -0.5947  0.5576 -0.9269
  106OSM   H13F10877  -0.333   2.143  32.914 -0.6708  3.2067 -1.0241
  106OSM   H13G10878  -0.170   2.078  32.943 -0.9202  2.7984  1.6119
  106OSM   C14F10879  -0.228   2.071  32.737  0.5345 -0.0551 -0.0877
  106OSM   H14F10880  -0.131   2.040  32.693  0.0459 -0.5774 -0.8279
  106OSM   H14G10881  -0.269   2.143  32.663 -2.4193  0.0048  1.4186
  106OSM   C15F10882  -0.318   1.952  32.719 -0.7294  0.0514  0.4933
  106OSM   H15F10883  -0.409   1.973  32.779 -0.4555  1.7805  0.3608
  106OSM   H15G10884  -0.272   1.862  32.763 -0.9214 -0.3456 -0.1065
  106OSM   C16F10885  -0.369   1.922  32.573  0.4805  0.1664 -0.1725
  106OSM   H16F10886  -0.290   1.884  32.505 -0.0591 -3.1241  0.8363
  106OSM   H16G10887  -0.415   2.012  32.528  0.7749  0.8067  0.7765
  106OSM   C17F10888  -0.485   1.815  32.583 -0.2782 -0.4954 -0.2768
  106OSM   H17F10889  -0.570   1.842  32.650 -1.5961 -2.9918 -0.8327
  106OSM   H17G10890  -0.433   1.734  32.640  0.1928  0.9867  1.5359
  106OSM   C18F10891  -0.543   1.776  32.449  0.2715 -0.1704  0.5734
  106OSM   H18F10892  -0.616   1.693  32.459  0.0539 -0.5234 -2.8744
  106OSM   H18G10893  -0.461   1.733  32.388 -1.1693 -1.3733 -0.5960
  106OSM   H18H10894  -0.595   1.860  32.398  0.8048 -1.0577 -1.5447
  107OSM      N10895   1.952   3.153  42.276 -0.2945 -0.1794 -0.4757
  107OSM    C1510896   1.823   3.082  42.316  0.2291 -0.2863 -0.5094
  107OSM   H15A10897   1.758   3.131  42.387  0.6322  2.0158 -1.6361
  107OSM   H15B10898   1.844   2.981  42.347  2.9969 -0.0659 -1.4413
  107OSM   H15C10899   1.760   3.081  42.228 -0.3532 -0.7813 -0.0946
  107OSM    C1410900   2.040   3.152  42.394 -1.6876  0.2118  0.0338
  107OSM   H14A10901   1.983   3.169  42.484 -0.1944  0.5221  0.9552
  107OSM   H14B10902   2.115   3.230  42.383 -2.7767  1.4083  0.7512
  107OSM   H14C10903   2.087   3.055  42.399 -1.6549  0.2259 -0.0120
  107OSM    C1310904   2.011   3.081  42.162 -0.0783 -0.0066 -0.6086
  107OSM   H13A10905   1.952   3.093  42.072  0.3424  1.0043 -0.7553
  107OSM   H13B10906   2.020   2.979  42.196  1.4057  0.8242  1.6664
  107OSM   H13C10907   2.113   3.111  42.145  0.3364 -1.2314 -0.4226
  107OSM    C1210908   1.918   3.295  42.229 -0.2363  0.0596 -0.2089
  107OSM   H12A10909   1.870   3.341  42.315  0.8774  0.1305  0.3924
  107OSM   H12B10910   1.847   3.294  42.147 -0.2186  1.7410 -0.2693
  107OSM    C1110911   2.032   3.392  42.199  0.5028  0.8859  0.6171
  107OSM   H11A10912   1.989   3.484  42.154 -1.2098  1.3448  3.0072
  107OSM   H11B10913   2.107   3.340  42.136 -0.7480  0.5830 -0.6623
  107OSM      P10914   2.018   3.534  42.414  0.4544  0.0791 -0.3443
  107OSM    O1310915   1.881   3.490  42.446  0.3430 -0.4343 -0.5457
  107OSM    O1410916   2.110   3.561  42.523  0.0964 -0.0669 -0.0553
  107OSM    O1110917   1.998   3.671  42.333  0.6418 -0.2560  0.1340
  107OSM    O1210918   2.091   3.431  42.321 -0.3311  0.1014  0.2313
  107OSM    C1S10919   2.113   3.747  42.304  0.2144  0.7019  0.4671
  107OSM    H1S10920   2.209   3.691  42.315  0.0569 -0.1790 -1.8989
  107OSM    H1T10921   2.114   3.837  42.369 -4.9393  2.0879 -0.8971
  107OSM     NF10922   2.249   3.859  42.131  0.1705 -0.0647 -0.0863
  107OSM    HNF10923   2.257   3.958  42.136  0.8977 -0.1580  0.9565
  107OSM    C2S10924   2.121   3.796  42.150  0.0535 -0.4300 -0.2933
  107OSM    H2S10925   2.113   3.704  42.089  0.9470 -0.5530 -0.2298
  107OSM    C3S10926   1.994   3.876  42.112  0.3822  0.2891  0.0427
  107OSM    H3S10927   1.981   3.959  42.184  2.8728 -0.7048  1.8101
  107OSM     O310928   1.881   3.790  42.118  0.4862  0.2258 -0.0517
  107OSM    HO310929   1.910   3.716  42.172  1.4376  1.4478  1.1787
  107OSM    C4S10930   2.009   3.925  41.973  0.5182  0.2379  0.2495
  107OSM    H4S10931   1.974   3.851  41.901  0.9955 -0.4821  0.7497
  107OSM    C5S10932   2.042   4.049  41.928 -0.2554  0.6753  0.2858
  107OSM    H5S10933   2.066   4.133  41.994 -0.7121  1.5482 -0.6323
  107OSM    C6S10934   2.040   4.092  41.784  0.3193  0.9079  0.1052
  107OSM    H6S10935   2.140   4.136  41.764 -0.9697  3.4593 -1.1771
  107OSM    H6T10936   1.959   4.167  41.771 -0.0618  0.8061  1.7427
  107OSM    C7S10937   2.023   3.976  41.684 -0.6020 -0.0570 -0.5464
  107OSM    H7S10938   1.920   3.934  41.682 -0.3163 -0.8316  0.3496
  107OSM    H7T10939   2.096   3.897  41.709 -1.1056 -1.1619 -2.4185
  107OSM    C8S10940   2.056   3.999  41.532 -0.2210 -0.1524  0.3540
  107OSM    H8S10941   2.091   3.904  41.484 -1.3368  0.4621 -1.8064
  107OSM    H8T10942   2.144   4.066  41.529  2.3771 -3.2774  1.0536
  107OSM    C9S10943   1.933   4.042  41.450  0.8024 -0.2375  1.1838
  107OSM    H9S10944   1.882   4.126  41.503 -0.7076 -0.4346  0.0997
  107OSM    H9T10945   1.860   3.959  41.443  0.8506 -0.3486  1.8875
  107OSM   C10S10946   1.978   4.093  41.310  0.7936 -0.5663  0.1086
  107OSM   H10S10947   2.053   4.174  41.325 -2.4919  3.1740 -1.9577
  107OSM   H10T10948   1.900   4.139  41.246  1.6172 -2.1431 -2.1740
  107OSM   C11S10949   2.025   3.975  41.219 -0.0925  0.6212 -0.2415
  107OSM   H11S10950   1.949   3.893  41.221 -1.1316  1.5485 -0.6010
  107OSM   H11T10951   2.124   3.944  41.259 -0.0773  2.1468  1.0039
  107OSM   C12S10952   2.057   4.010  41.070 -0.0562 -0.2055 -0.3846
  107OSM   H12S10953   2.120   3.924  41.038 -1.1553 -2.0373  2.0549
  107OSM   H12T10954   2.122   4.100  41.074 -1.4642  0.8091  2.0534
  107OSM   C13S10955   1.946   4.030  40.972  0.1001 -0.0482  0.2576
  107OSM   H13S10956   1.866   4.093  41.016 -0.2482  0.3555 -0.9246
  107OSM   H13T10957   1.906   3.934  40.932  0.2041  0.2328 -0.5528
  107OSM   C14S10958   1.998   4.120  40.854  0.8782  0.3272 -0.6721
  107OSM   H14S10959   2.014   4.223  40.891 -1.5759  1.4123 -2.3610
  107OSM   H14T10960   1.918   4.119  40.777  0.4090 -1.5111 -0.2090
  107OSM   C15S10961   2.130   4.061  40.793 -0.5938 -0.9017  0.1453
  107OSM   H15S10962   2.116   3.951  40.799 -1.0014 -0.8281  0.5656
  107OSM   H15T10963   2.207   4.083  40.870 -2.1558 -0.3810  1.6360
  107OSM   C16S10964   2.155   4.116  40.656 -0.1012  0.5443 -0.7593
  107OSM   H16S10965   2.192   4.221  40.659  2.4896 -0.2678 -1.5729
  107OSM   H16T10966   2.056   4.116  40.606 -0.9503  1.0036  0.8258
  107OSM   C17S10967   2.252   4.028  40.574  0.4063  0.0455  0.2671
  107OSM   H17S10968   2.269   4.065  40.471 -0.9073  2.6152  0.8714
  107OSM   H17T10969   2.204   3.929  40.564 -0.5771  0.2834  2.2002
  107OSM   C18S10970   2.385   4.002  40.643 -0.3983  0.2744 -0.3614
  107OSM   H18S10971   2.425   4.092  40.694 -0.4989  1.5417 -2.4049
  107OSM   H18T10972   2.464   3.972  40.570 -0.6324 -4.1688  0.8795
  107OSM   H18U10973   2.372   3.922  40.719  1.1651 -2.0815 -2.4131
  107OSM    C1F10974   2.358   3.786  42.115 -0.2369 -0.4918  0.5735
  107OSM     OF10975   2.358   3.667  42.132 -0.1367  0.2023 -0.5054
  107OSM    C2F10976   2.476   3.864  42.072 -0.0178  0.9066  0.2386
  107OSM    H2F10977   2.557   3.816  42.130  1.3454  0.7863 -1.6905
  107OSM    H2G10978   2.472   3.967  42.113  2.0498  1.2468 -0.3234
  107OSM    C3F10979   2.513   3.852  41.922  0.1132  0.2543 -0.0209
  107OSM    H3F10980   2.508   3.746  41.887 -1.0502  0.1814  0.3188
  107OSM    H3G10981   2.618   3.886  41.914  0.0054  0.6401  0.1751
  107OSM    C4F10982   2.423   3.936  41.834  0.2749  0.5136  0.0444
  107OSM    H4F10983   2.414   4.040  41.872 -1.1511  1.1888 -1.9626
  107OSM    H4G10984   2.319   3.898  41.829  0.7172 -0.8191  0.5888
  107OSM    C5F10985   2.478   3.953  41.696  0.3347 -0.0140  0.1220
  107OSM    H5F10986   2.467   3.853  41.649  2.2899  1.0427 -2.9182
  107OSM    H5G10987   2.584   3.986  41.710  0.4136 -0.1670 -0.1112
  107OSM    C6F10988   2.422   4.070  41.618  0.1391  0.4702  0.7975
  107OSM    H6F10989   2.456   4.166  41.663  1.1965  0.8319 -0.6872
  107OSM    H6G10990   2.312   4.057  41.614  0.4447 -2.8868 -0.6737
  107OSM    C7F10991   2.475   4.058  41.472  1.0880  0.7799 -0.3172
  107OSM    H7F10992   2.462   3.954  41.436  0.1494  0.2107  1.5432
  107OSM    H7G10993   2.584   4.072  41.487  0.8329  1.9502  0.6123
  107OSM    C8F10994   2.401   4.155  41.371  0.1446 -0.0277 -0.6068
  107OSM    H8F10995   2.294   4.131  41.386  0.3689  0.7799  3.3625
  107OSM    H8G10996   2.449   4.118  41.278  1.1778 -1.8376  0.5634
  107OSM    C9F10997   2.426   4.301  41.403  0.4220  0.3875  0.1739
  107OSM    H9F10998   2.395   4.337  41.502  0.3349  4.4003 -1.1312
  107OSM   C10F10999   2.501   4.380  41.321  0.0201  0.2777  0.1445
  107OSM   H10F11000   2.520   4.484  41.350  0.5302 -0.0365  0.9726
  107OSM   C11F11001   2.573   4.354  41.194  0.3147  0.0796  1.1347
  107OSM   H11F11002   2.579   4.244  41.177 -3.7014 -0.3159  1.3811
  107OSM   H11G11003   2.673   4.402  41.196  0.1622  0.6915 -1.7572
  107OSM   C12F11004   2.510   4.416  41.072  0.6274  0.5596 -0.2606
  107OSM   H12F11005   2.586   4.421  40.991  0.4849 -0.6906 -0.5022
  107OSM   H12G11006   2.463   4.515  41.090  0.6005  0.3913  0.6193
  107OSM   C13F11007   2.375   4.344  41.030  0.5330 -0.6189 -0.5648
  107OSM   H13F11008   2.299   4.337  41.110  2.9974  2.2040  2.2862
  107OSM   H13G11009   2.412   4.244  40.999 -1.4904 -1.0210 -1.8504
  107OSM   C14F11010   2.304   4.404  40.909 -0.1528 -0.8275 -0.1210
  107OSM   H14F11011   2.269   4.506  40.935  0.8418 -0.1187 -1.4444
  107OSM   H14G11012   2.215   4.340  40.887 -1.4496 -0.0428  2.4976
  107OSM   C15F11013   2.383   4.400  40.775  0.0996 -0.0174  0.0427
  107OSM   H15F11014   2.367   4.300  40.729 -3.3263  0.8527 -0.9852
  107OSM   H15G11015   2.491   4.404  40.801  0.3249 -0.3392 -0.8391
  107OSM   C16F11016   2.335   4.504  40.670 -0.2603 -0.2082  0.0592
  107OSM   H16F11017   2.224   4.494  40.663 -0.1606 -2.3057  0.8687
  107OSM   H16G11018   2.383   4.468  40.577 -0.1580 -0.1287  0.0824
  107OSM   C17F11019   2.382   4.653  40.694  0.4138 -0.1347 -0.2842
  107OSM   H17F11020   2.361   4.697  40.793  2.2875  1.0258 -0.3418
  107OSM   H17G11021   2.318   4.718  40.630 -3.0378 -1.7920  1.2163
  107OSM   C18F11022   2.526   4.677  40.653  0.2911  0.4033 -0.2241
  107OSM   H18F11023   2.596   4.597  40.684  0.4984  0.9882  0.8409
  107OSM   H18G11024   2.571   4.775  40.681 -1.7570  1.5824 -0.8052
  107OSM   H18H11025   2.529   4.668  40.542 -0.8492  1.2731 -0.3490
  108OSM      N11026   1.255   2.916  33.864 -0.4350  0.3217 -0.9527
  108OSM    C1511027   1.301   2.801  33.958  0.2193  0.5226 -0.9446
  108OSM   H15A11028   1.336   2.719  33.896 -1.9837 -0.0637 -1.5009
  108OSM   H15B11029   1.220   2.759  34.014  0.7081 -0.0890 -0.6844
  108OSM   H15C11030   1.385   2.835  34.017 -0.3478 -1.6642  1.2966
  108OSM    C1411031   1.164   3.000  33.949  0.1527 -1.4587  0.0361
  108OSM   H14A11032   1.216   3.063  34.020  0.0656 -0.8503 -0.4356
  108OSM   H14B11033   1.097   2.946  34.013 -2.3812  0.0506 -1.2139
  108OSM   H14C11034   1.107   3.067  33.886 -2.4782  0.0071  3.6525
  108OSM    C1311035   1.372   3.000  33.827 -0.0771 -0.4920  0.6510
  108OSM   H13A11036   1.332   3.070  33.756  1.0356 -1.9305 -1.5012
  108OSM   H13B11037   1.451   2.950  33.774  0.9781 -0.0101  1.7235
  108OSM   H13C11038   1.421   3.037  33.916 -0.7671 -1.6475  1.5466
  108OSM    C1211039   1.179   2.864  33.742 -0.3704 -0.0446 -0.2704
  108OSM   H12A11040   1.147   2.951  33.686  0.6313 -0.0146 -0.8265
  108OSM   H12B11041   1.098   2.802  33.776  0.0564  1.3871  3.9396
  108OSM    C1111042   1.267   2.778  33.645  0.0078  0.5194  0.2952
  108OSM   H11A11043   1.357   2.842  33.630 -1.6532  2.5790 -1.4915
  108OSM   H11B11044   1.204   2.780  33.553 -2.9990  1.0864  2.2277
  108OSM      P11045   1.192   2.539  33.708  0.4273 -0.0543  0.4103
  108OSM    O1311046   1.254   2.422  33.764  0.1125  0.1031 -0.0087
  108OSM    O1411047   1.074   2.595  33.782 -0.2499  0.1602  0.5309
  108OSM    O1111048   1.153   2.512  33.556 -0.0832  0.1990 -0.1465
  108OSM    O1211049   1.300   2.647  33.697  0.0816  0.2472  0.3374
  108OSM    C1S11050   1.244   2.475  33.452 -0.0336  0.2180 -0.0554
  108OSM    H1S11051   1.350   2.484  33.483  0.1718  0.3178 -0.7604
  108OSM    H1T11052   1.233   2.558  33.378 -1.5126  0.9467  0.9382
  108OSM     NF11053   1.325   2.305  33.288 -0.0440 -0.6901 -0.1152
  108OSM    HNF11054   1.291   2.299  33.195  2.1737  1.0382 -1.1282
  108OSM    C2S11055   1.218   2.336  33.393  0.0750  0.4247 -0.4544
  108OSM    H2S11056   1.232   2.274  33.485  1.6458 -0.7532 -1.4409
  108OSM    C3S11057   1.075   2.313  33.343  0.2403 -0.2295  0.1942
  108OSM    H3S11058   1.050   2.390  33.267 -0.4206 -0.6921 -0.0644
  108OSM     O311059   0.981   2.329  33.451 -0.5703 -0.1592 -0.0711
  108OSM    HO311060   1.018   2.402  33.501 -3.0846  0.6503  0.7675
  108OSM    C4S11061   1.057   2.172  33.268 -0.2843 -0.4631  0.3376
  108OSM    H4S11062   1.125   2.092  33.302  1.0950  0.6198  0.1848
  108OSM    C5S11063   0.970   2.144  33.176  0.2260  0.9331 -0.2739
  108OSM    H5S11064   0.898   2.216  33.134  0.4227  0.9189 -0.6426
  108OSM    C6S11065   0.976   2.006  33.117 -0.2814 -0.8214 -0.3397
  108OSM    H6S11066   0.897   2.010  33.039 -0.4763 -1.5104 -0.1852
  108OSM    H6T11067   0.953   1.927  33.192  0.3242 -2.0141 -1.3869
  108OSM    C7S11068   1.112   1.966  33.041  0.7236  0.2808  0.6675
  108OSM    H7S11069   1.197   1.983  33.111 -1.8572 -0.2466  4.1904
  108OSM    H7T11070   1.131   2.036  32.958 -0.3648  1.3399  1.2680
  108OSM    C8S11071   1.119   1.820  32.986  0.2969 -0.0637 -0.2058
  108OSM    H8S11072   1.113   1.755  33.075 -0.0809 -1.1541 -1.0038
  108OSM    H8T11073   1.214   1.796  32.934  0.8927  0.2909  0.6963
  108OSM    C9S11074   1.006   1.777  32.892  0.4485 -0.7324 -0.4051
  108OSM    H9S11075   1.018   1.841  32.802  1.5074 -1.4477 -0.7871
  108OSM    H9T11076   0.906   1.798  32.936  0.1446 -0.4997 -1.1964
  108OSM   C10S11077   1.007   1.632  32.857 -0.0013 -0.6604  0.0295
  108OSM   H10S11078   0.901   1.609  32.833  0.2819  0.0018 -2.0956
  108OSM   H10T11079   1.047   1.568  32.939  2.4386  0.3845 -0.2451
  108OSM   C11S11080   1.092   1.615  32.730  0.1047  0.1124 -0.1116
  108OSM   H11S11081   1.186   1.673  32.741 -1.1744  2.1594  0.5346
  108OSM   H11T11082   1.042   1.650  32.637 -1.3565  3.1779  1.6537
  108OSM   C12S11083   1.130   1.471  32.697  0.0084  0.1072 -1.0090
  108OSM   H12S11084   1.160   1.401  32.778 -0.0767  2.7911  1.4827
  108OSM   H12T11085   1.220   1.467  32.632  1.2405  0.0229  0.6302
  108OSM   C13S11086   1.015   1.399  32.629 -0.0778 -0.1827 -0.3942
  108OSM   H13S11087   0.997   1.445  32.529  0.9332 -0.5242 -0.7437
  108OSM   H13T11088   0.926   1.424  32.692 -0.8701 -0.9917 -1.1473
  108OSM   C14S11089   1.030   1.251  32.604 -0.3545  0.3559  0.1422
  108OSM   H14S11090   1.083   1.210  32.693  2.8424  0.1811 -1.6851
  108OSM   H14T11091   1.098   1.241  32.516 -2.3792  1.9681 -1.7245
  108OSM   C15S11092   0.896   1.172  32.582 -0.3167 -0.4097  0.1258
  108OSM   H15S11093   0.925   1.065  32.579  1.2232 -0.0122 -0.1427
  108OSM   H15T11094   0.857   1.202  32.482  1.2292 -1.4231 -0.8305
  108OSM   C16S11095   0.789   1.193  32.694  0.3449 -0.3512 -1.1024
  108OSM   H16S11096   0.742   1.293  32.687  1.5816  0.7948  3.5283
  108OSM   H16T11097   0.840   1.197  32.792 -2.5846  1.0410  0.4673
  108OSM   C17S11098   0.685   1.088  32.717  0.0357 -0.2720 -0.0411
  108OSM   H17S11099   0.621   1.083  32.627 -1.8304  1.7725  1.0636
  108OSM   H17T11100   0.619   1.118  32.802  0.7473 -2.2249  1.2677
  108OSM   C18S11101   0.746   0.953  32.760 -0.4113 -0.1596  0.3164
  108OSM   H18S11102   0.675   0.868  32.768 -0.6561 -0.0891 -0.9039
  108OSM   H18T11103   0.812   0.955  32.850 -0.1907  1.0739  0.1427
  108OSM   H18U11104   0.808   0.913  32.678  0.6313 -2.4917  2.1354
  108OSM    C1F11105   1.447   2.274  33.322 -0.3824  0.2614  0.2919
  108OSM     OF11106   1.474   2.266  33.443  0.3356  0.3642  0.3421
  108OSM    C2F11107   1.551   2.266  33.215  0.3857 -0.0757 -0.5323
  108OSM    H2F11108   1.647   2.304  33.255 -0.6980  1.0951  1.1127
  108OSM    H2G11109   1.514   2.322  33.127 -1.4487 -0.6364 -0.1685
  108OSM    C3F11110   1.569   2.117  33.172 -0.2572 -0.3886  0.7633
  108OSM    H3F11111   1.469   2.087  33.134 -0.0446 -1.3997  0.9718
  108OSM    H3G11112   1.603   2.041  33.246  0.6372 -2.2908 -1.4796
  108OSM    C4F11113   1.667   2.101  33.050 -0.3615 -0.4855 -0.5527
  108OSM    H4F11114   1.766   2.074  33.092  0.0831  0.3183 -1.0813
  108OSM    H4G11115   1.676   2.196  32.993 -0.3377 -0.1978 -0.0698
  108OSM    C5F11116   1.618   1.981  32.966  0.1501 -0.5433 -0.3342
  108OSM    H5F11117   1.575   1.899  33.027 -0.3809 -1.7005 -2.1808
  108OSM    H5G11118   1.708   1.940  32.916 -0.0408 -0.1103 -1.0537
  108OSM    C6F11119   1.498   2.012  32.866  0.2538  0.6726 -0.7681
  108OSM    H6F11120   1.523   2.109  32.819  0.2946  0.5652 -0.9667
  108OSM    H6G11121   1.396   1.995  32.907  0.2461 -2.6474 -1.8410
  108OSM    C7F11122   1.514   1.901  32.756  0.3459 -1.7034  0.4390
  108OSM    H7F11123   1.489   1.800  32.795  2.4096 -2.1822  0.6201
  108OSM    H7G11124   1.615   1.897  32.711  0.1695  0.3887 -0.2529
  108OSM    C8F11125   1.419   1.920  32.638  0.0768 -0.7371  0.0972
  108OSM    H8F11126   1.439   2.021  32.596 -1.2315 -0.6067 -0.2679
  108OSM    H8G11127   1.315   1.938  32.671 -0.3598 -3.1774  0.2644
  108OSM    C9F11128   1.431   1.804  32.537  0.6080 -0.7022  0.0934
  108OSM    H9F11129   1.534   1.768  32.523  1.4773  1.7406 -0.2174
  108OSM   C10F11130   1.342   1.742  32.455  0.4513 -0.6995 -0.5948
  108OSM   H10F11131   1.382   1.662  32.390 -0.0602 -0.6845 -0.9388
  108OSM   C11F11132   1.205   1.789  32.423 -0.3453 -0.6446 -0.4692
  108OSM   H11F11133   1.164   1.852  32.505 -1.4705  1.3207 -2.4263
  108OSM   H11G11134   1.155   1.690  32.428 -0.3924 -0.6481 -0.9629
  108OSM   C12F11135   1.166   1.861  32.293 -0.4527 -0.1701 -0.3520
  108OSM   H12F11136   1.055   1.866  32.286 -0.4125 -0.1968 -1.0780
  108OSM   H12G11137   1.203   1.805  32.205  0.1080 -1.3765  0.6263
  108OSM   C13F11138   1.209   2.009  32.281 -0.3430 -0.7065 -0.1623
  108OSM   H13F11139   1.317   2.019  32.306 -0.6083  0.2414  0.6971
  108OSM   H13G11140   1.161   2.070  32.361  1.6483 -0.6797  1.1027
  108OSM   C14F11141   1.182   2.066  32.138 -0.2055 -0.6373 -0.2210
  108OSM   H14F11142   1.073   2.062  32.117 -0.2124 -2.6187 -0.0741
  108OSM   H14G11143   1.219   1.981  32.077 -0.0258  0.7786 -2.1624
  108OSM   C15F11144   1.249   2.206  32.101 -0.0372 -0.1606  0.4689
  108OSM   H15F11145   1.255   2.209  31.990  0.8073 -2.7551  0.3682
  108OSM   H15G11146   1.354   2.210  32.134  0.4135 -1.1027 -0.7583
  108OSM   C16F11147   1.170   2.327  32.170 -0.0706 -0.4953  0.3948
  108OSM   H16F11148   1.145   2.290  32.272 -2.8576  1.9118  0.7249
  108OSM   H16G11149   1.076   2.338  32.113  0.2947 -3.4674 -0.9734
  108OSM   C17F11150   1.243   2.463  32.180  0.8248  0.0392 -0.0529
  108OSM   H17F11151   1.347   2.445  32.216  0.8003 -0.5804 -0.2831
  108OSM   H17G11152   1.193   2.525  32.258  1.7155  0.0917  0.4892
  108OSM   C18F11153   1.239   2.536  32.050 -0.8497  0.0618  0.0651
  108OSM   H18F11154   1.284   2.475  31.969 -0.0761 -0.2805  0.7366
  108OSM   H18G11155   1.296   2.631  32.061  0.6289 -0.9149  1.1041
  108OSM   H18H11156   1.130   2.556  32.043 -0.5631  2.3907  1.2102
  109OSM      N11157   2.434   1.717  42.828 -0.2829  0.4382 -0.7233
  109OSM    C1511158   2.379   1.848  42.869  0.8786 -0.7613  0.4709
  109OSM   H15A11159   2.438   1.926  42.823  1.3371 -1.5053 -0.2279
  109OSM   H15B11160   2.386   1.850  42.976 -0.2357  0.1667  0.5403
  109OSM   H15C11161   2.277   1.851  42.833  1.6530  0.8433 -1.7943
  109OSM    C1411162   2.582   1.712  42.852  0.0011  0.0299 -0.3164
  109OSM   H14A11163   2.624   1.803  42.814  0.4910  0.5884  1.4776
  109OSM   H14B11164   2.624   1.626  42.802 -0.4069 -0.8560  0.8213
  109OSM   H14C11165   2.616   1.706  42.954  0.1713  1.4780 -0.2742
  109OSM    C1311166   2.359   1.605  42.896  0.2442 -1.1824 -0.0891
  109OSM   H13A11167   2.368   1.605  43.003 -0.1155 -1.4510 -0.0565
  109OSM   H13B11168   2.392   1.511  42.853  0.3352 -2.0722  1.7964
  109OSM   H13C11169   2.252   1.613  42.881 -0.3601 -2.2524  2.9042
  109OSM    C1211170   2.407   1.702  42.676  0.3002 -0.2259  0.5415
  109OSM   H12A11171   2.457   1.614  42.638  1.1931 -0.5884  2.4085
  109OSM   H12B11172   2.449   1.785  42.622 -0.9462 -0.5716 -1.0315
  109OSM    C1111173   2.267   1.706  42.610 -0.0367  0.4139 -0.0127
  109OSM   H11A11174   2.268   1.698  42.500  0.9557 -0.5263  0.0511
  109OSM   H11B11175   2.226   1.808  42.622  1.0506  0.9131 -0.4293
  109OSM      P11176   2.174   1.465  42.624 -0.0744 -0.0795  0.2615
  109OSM    O1311177   2.306   1.405  42.606  0.0104 -0.1538 -0.3494
  109OSM    O1411178   2.071   1.390  42.697  0.5405  0.5451 -0.3251
  109OSM    O1111179   2.116   1.492  42.480  0.8434 -0.5739 -0.0773
  109OSM    O1211180   2.182   1.608  42.679  0.6270 -0.0814 -0.7657
  109OSM    C1S11181   1.995   1.576  42.465 -0.4290  0.8813  0.0997
  109OSM    H1S11182   2.022   1.677  42.503  0.2817  0.4327  0.8296
  109OSM    H1T11183   1.904   1.540  42.517 -0.7733  2.0465  0.3398
  109OSM     NF11184   1.859   1.682  42.291 -0.2223  0.3249 -0.6925
  109OSM    HNF11185   1.765   1.649  42.289  0.1062 -1.3264  2.6380
  109OSM    C2S11186   1.956   1.582  42.317  0.5302 -0.3019 -0.1803
  109OSM    H2S11187   2.043   1.609  42.255  0.4458  3.1746  1.0082
  109OSM    C3S11188   1.900   1.443  42.272 -0.2859  0.5711  1.1200
  109OSM    H3S11189   1.801   1.428  42.321 -0.6823  0.9357  0.4394
  109OSM     O311190   1.988   1.335  42.303 -0.1915 -0.4767  0.0591
  109OSM    HO311191   2.038   1.373  42.375 -1.1263 -0.7202  0.8647
  109OSM    C4S11192   1.870   1.445  42.119  0.4105 -0.2005 -0.3801
  109OSM    H4S11193   1.766   1.467  42.094 -0.4380 -2.7714  0.5354
  109OSM    C5S11194   1.958   1.412  42.015  0.0424  0.3866 -0.2277
  109OSM    H5S11195   2.064   1.402  42.040 -0.5124  0.8542  2.6765
  109OSM    C6S11196   1.927   1.403  41.871 -0.0775  0.5417 -0.3461
  109OSM    H6S11197   1.923   1.295  41.845  0.2602  0.0317  1.5411
  109OSM    H6T11198   2.008   1.446  41.810  1.7545  0.2923  1.7834
  109OSM    C7S11199   1.802   1.482  41.831  0.7969 -0.3121  0.3812
  109OSM    H7S11200   1.820   1.589  41.855  1.7072 -0.7845  1.9731
  109OSM    H7T11201   1.710   1.457  41.887 -0.5016 -1.1413 -1.9613
  109OSM    C8S11202   1.764   1.473  41.683 -0.0416  0.1539  0.2802
  109OSM    H8S11203   1.729   1.372  41.652 -1.3682  0.7366 -0.1957
  109OSM    H8T11204   1.856   1.502  41.627 -0.7442 -1.0261 -1.5985
  109OSM    C9S11205   1.649   1.568  41.655 -0.2249 -0.6564  0.4601
  109OSM    H9S11206   1.680   1.668  41.692 -2.7017 -0.0109  1.0165
  109OSM    H9T11207   1.552   1.551  41.707 -1.4407  1.5517 -0.8836
  109OSM   C10S11208   1.619   1.585  41.501  0.3596  0.0147 -0.6217
  109OSM   H10S11209   1.579   1.486  41.469  0.5334 -1.0366  2.1345
  109OSM   H10T11210   1.715   1.614  41.455  0.4373  0.4385 -0.1961
  109OSM   C11S11211   1.502   1.678  41.469 -0.1232 -0.1986  0.0686
  109OSM   H11S11212   1.540   1.783  41.477  0.5816 -0.5350  1.4260
  109OSM   H11T11213   1.426   1.682  41.550 -2.4305 -0.8605 -1.9437
  109OSM   C12S11214   1.445   1.665  41.316  0.4231 -0.3656  0.0256
  109OSM   H12S11215   1.356   1.726  41.292 -0.5624 -2.2617 -1.3839
  109OSM   H12T11216   1.419   1.557  41.308  2.0247 -0.7300 -0.8836
  109OSM   C13S11217   1.558   1.699  41.218 -0.6879  0.4750  0.5882
  109OSM   H13S11218   1.639   1.627  41.244 -1.2202 -0.0714  0.7773
  109OSM   H13T11219   1.604   1.798  41.235  1.1934 -0.6375  2.4651
  109OSM   C14S11220   1.524   1.687  41.070 -0.6547  0.0960  0.6732
  109OSM   H14S11221   1.619   1.724  41.026  0.8520 -2.3694  1.6331
  109OSM   H14T11222   1.444   1.757  41.038  1.3787  1.1313 -2.6708
  109OSM   C15S11223   1.465   1.551  41.028  0.2762  0.6706 -0.3845
  109OSM   H15S11224   1.370   1.541  41.086  0.6574 -2.9044 -0.1884
  109OSM   H15T11225   1.516   1.456  41.055 -2.2319 -0.9237 -0.9195
  109OSM   C16S11226   1.431   1.540  40.879 -0.2032  0.0975 -0.4663
  109OSM   H16S11227   1.535   1.537  40.839 -0.0139  1.1884 -0.0966
  109OSM   H16T11228   1.388   1.641  40.859 -3.9872 -1.0889  0.8993
  109OSM   C17S11229   1.336   1.428  40.844  0.2016  0.5769  0.0693
  109OSM   H17S11230   1.246   1.432  40.909 -0.4212 -0.8870 -0.6627
  109OSM   H17T11231   1.388   1.330  40.850 -0.7510 -0.0450 -1.4412
  109OSM   C18S11232   1.289   1.437  40.699 -0.4923  0.0203  0.1108
  109OSM   H18S11233   1.251   1.540  40.685  0.5031  0.5421  1.1516
  109OSM   H18T11234   1.204   1.369  40.677 -0.2474  0.2628 -1.8031
  109OSM   H18U11235   1.373   1.425  40.627  0.1211  1.1695  0.6276
  109OSM    C1F11236   1.882   1.810  42.290  0.0926  0.0478 -0.2056
  109OSM     OF11237   1.991   1.850  42.323 -0.1337 -0.2995  0.3729
  109OSM    C2F11238   1.770   1.899  42.230  0.2833  0.4400 -0.0398
  109OSM    H2F11239   1.716   1.946  42.314 -1.4844 -0.5551 -0.5609
  109OSM    H2G11240   1.707   1.834  42.165  1.3742 -0.1267 -0.5549
  109OSM    C3F11241   1.831   2.005  42.147  0.0406 -0.2968  0.1913
  109OSM    H3F11242   1.899   1.956  42.073  1.6024  0.1861  1.2437
  109OSM    H3G11243   1.893   2.072  42.210 -0.7688 -0.4686  1.1841
  109OSM    C4F11244   1.738   2.095  42.059  0.3941 -0.1168  0.2357
  109OSM    H4F11245   1.803   2.161  41.997  1.1736 -1.6216 -0.5765
  109OSM    H4G11246   1.679   2.149  42.137  0.6586 -1.2216  1.2303
  109OSM    C5F11247   1.653   2.005  41.977 -0.3037 -0.6835  0.0696
  109OSM    H5F11248   1.585   1.941  42.038 -0.8679 -0.2700 -0.1232
  109OSM    H5G11249   1.709   1.933  41.913 -2.1965 -0.8984 -1.4275
  109OSM    C6F11250   1.569   2.091  41.882  0.1155 -0.2538 -0.0564
  109OSM    H6F11251   1.625   2.177  41.839  0.1476 -0.0154  0.4561
  109OSM    H6G11252   1.486   2.131  41.944 -0.2745 -1.5413  0.2705
  109OSM    C7F11253   1.512   2.004  41.778 -0.1225  0.4139  0.6028
  109OSM    H7F11254   1.487   1.898  41.804 -2.3230  0.2233 -1.8418
  109OSM    H7G11255   1.585   2.012  41.695  1.1542  0.4883  1.7078
  109OSM    C8F11256   1.374   2.056  41.722 -0.0989  0.6437 -0.0145
  109OSM    H8F11257   1.318   2.084  41.813 -1.1341  0.6840 -0.6442
  109OSM    H8G11258   1.329   1.967  41.674 -1.9023  0.3835  2.0249
  109OSM    C9F11259   1.389   2.175  41.631 -0.6046 -0.7464  0.6186
  109OSM    H9F11260   1.439   2.256  41.686 -1.2725 -1.2446  2.0147
  109OSM   C10F11261   1.334   2.199  41.508  0.1794  0.4058  0.8446
  109OSM   H10F11262   1.368   2.293  41.461  0.5967 -0.2193 -0.1324
  109OSM   C11F11263   1.235   2.113  41.433 -0.5390  0.6118  0.4291
  109OSM   H11F11264   1.143   2.175  41.421 -1.9381 -1.6935 -2.0999
  109OSM   H11G11265   1.215   2.024  41.496  1.5841 -0.1672  0.0703
  109OSM   C12F11266   1.257   2.044  41.299  0.0650 -0.1131  0.8944
  109OSM   H12F11267   1.206   1.946  41.315 -0.7609 -0.3949 -2.7187
  109OSM   H12G11268   1.361   2.007  41.289  0.7431  1.8440  0.2057
  109OSM   C13F11269   1.214   2.130  41.182  0.3400  0.2170  0.0061
  109OSM   H13F11270   1.275   2.222  41.188  1.2704 -0.3174 -0.8229
  109OSM   H13G11271   1.109   2.164  41.182  0.7566  1.6566 -1.6454
  109OSM   C14F11272   1.258   2.064  41.048  0.3625 -0.1280  0.1998
  109OSM   H14F11273   1.198   1.971  41.040 -1.9592  1.2686  0.5023
  109OSM   H14G11274   1.364   2.028  41.046  0.3072 -0.3766 -3.2854
  109OSM   C15F11275   1.239   2.161  40.931 -0.7232  0.0147  0.2033
  109OSM   H15F11276   1.285   2.258  40.960  1.7033 -1.6504  2.4334
  109OSM   H15G11277   1.133   2.181  40.905 -1.6512 -1.2375  2.7499
  109OSM   C16F11278   1.303   2.104  40.805 -0.4408  0.3284 -0.6691
  109OSM   H16F11279   1.406   2.072  40.830  0.1290  1.0138 -2.0153
  109OSM   H16G11280   1.313   2.190  40.734 -0.0841  1.1514  0.3560
  109OSM   C17F11281   1.228   1.978  40.747  0.2690 -0.9096 -0.9014
  109OSM   H17F11282   1.124   2.014  40.736  0.9505  1.3912 -0.4114
  109OSM   H17G11283   1.225   1.896  40.822 -2.3350  1.6872  2.1951
  109OSM   C18F11284   1.277   1.935  40.612 -0.5317  0.5576 -0.6726
  109OSM   H18F11285   1.387   1.921  40.615 -0.2758  2.3531 -0.8919
  109OSM   H18G11286   1.266   2.008  40.529 -1.6108  2.3616  0.9801
  109OSM   H18H11287   1.222   1.840  40.595 -1.7172  1.3417 -1.3909
  110OSM      N11288   1.184   0.494  35.244  0.3109  0.7287  0.3091
  110OSM    C1511289   1.214   0.525  35.103  0.7587 -0.4524  0.1970
  110OSM   H15A11290   1.281   0.454  35.058  1.0018 -2.2163  3.0775
  110OSM   H15B11291   1.234   0.630  35.092  0.9523 -0.6601 -1.8375
  110OSM   H15C11292   1.122   0.511  35.049  1.8858 -1.7904 -1.5070
  110OSM    C1411293   1.038   0.534  35.271  0.8419  0.2117  0.0363
  110OSM   H14A11294   1.010   0.501  35.370  1.1623 -0.5363 -0.1142
  110OSM   H14B11295   0.973   0.483  35.202  2.9050  1.1373 -2.7935
  110OSM   H14C11296   1.022   0.641  35.269 -1.3068 -0.0862 -0.8975
  110OSM    C1311297   1.178   0.346  35.270  0.2682  1.1195 -0.8796
  110OSM   H13A11298   1.099   0.310  35.207  0.7764  0.6447 -1.2592
  110OSM   H13B11299   1.149   0.327  35.372  0.6070  0.1473 -0.9593
  110OSM   H13C11300   1.265   0.292  35.235 -0.8731 -0.7690 -0.9016
  110OSM    C1211301   1.261   0.590  35.333 -0.1918 -0.2113  0.5665
  110OSM   H12A11302   1.254   0.686  35.284 -1.3620 -0.6999 -0.2798
  110OSM   H12B11303   1.366   0.568  35.320  0.1730  1.7419 -0.0470
  110OSM    C1111304   1.220   0.597  35.479 -0.0046 -0.0339  0.8187
  110OSM   H11A11305   1.313   0.608  35.539  1.8824  0.2800 -1.9962
  110OSM   H11B11306   1.183   0.496  35.506  1.3790 -0.2542  2.0499
  110OSM      P11307   1.132   0.835  35.502 -0.1639  0.1897  0.2431
  110OSM    O1311308   1.259   0.871  35.574 -0.1061 -0.5255 -0.0160
  110OSM    O1411309   1.139   0.862  35.361 -0.2785 -0.5516  0.0621
  110OSM    O1111310   1.012   0.915  35.578  0.2969 -0.1641 -0.0666
  110OSM    O1211311   1.103   0.677  35.511 -0.0890  0.1175  0.0289
  110OSM    C1S11312   0.879   0.923  35.517 -0.1939  0.2097 -0.1230
  110OSM    H1S11313   0.881   0.889  35.412 -2.3237 -2.4215  0.5767
  110OSM    H1T11314   0.848   1.029  35.524  0.0064  0.2888 -0.4241
  110OSM     NF11315   0.671   0.790  35.502  0.2889  0.0237 -0.4024
  110OSM    HNF11316   0.585   0.823  35.542  0.8580 -0.8027  1.6373
  110OSM    C2S11317   0.787   0.815  35.586  0.6032  0.2288  0.4674
  110OSM    H2S11318   0.849   0.723  35.589  2.1659  1.2676  1.5726
  110OSM    C3S11319   0.752   0.841  35.735 -0.7749 -0.1353  0.2723
  110OSM    H3S11320   0.692   0.934  35.736 -1.6973 -0.7238  0.5651
  110OSM     O311321   0.871   0.846  35.818 -0.1219 -0.2726 -0.2164
  110OSM    HO311322   0.946   0.856  35.758  2.3946 -2.2736  2.3458
  110OSM    C4S11323   0.654   0.738  35.797 -0.4243 -0.7575  0.3573
  110OSM    H4S11324   0.550   0.772  35.801  0.5283  2.7689 -0.6675
  110OSM    C5S11325   0.693   0.615  35.842  0.3083  0.2381  0.1885
  110OSM    H5S11326   0.798   0.593  35.821 -0.0204 -1.2896  0.0149
  110OSM    C6S11327   0.605   0.503  35.895 -0.2583 -0.5678 -0.1817
  110OSM    H6S11328   0.600   0.511  36.006 -1.4465 -0.7361 -0.2184
  110OSM    H6T11329   0.660   0.409  35.872  4.2631  1.8620 -0.5145
  110OSM    C7S11330   0.456   0.510  35.847 -0.0353  0.4930  0.3796
  110OSM    H7S11331   0.480   0.491  35.740  6.0459  1.1005  1.2773
  110OSM    H7T11332   0.412   0.612  35.853  0.2122  0.5659  0.9132
  110OSM    C8S11333   0.365   0.402  35.895  0.2476  0.1158  0.4300
  110OSM    H8S11334   0.398   0.376  35.998  1.6530  0.3670  0.0626
  110OSM    H8T11335   0.370   0.310  35.833 -0.4781  0.1093  0.3771
  110OSM    C9S11336   0.219   0.459  35.901 -0.0574 -1.1193  0.5921
  110OSM    H9S11337   0.192   0.500  35.802  3.7785 -3.4077 -1.6832
  110OSM    H9T11338   0.236   0.543  35.972 -0.1324  0.3675 -1.0832
  110OSM   C10S11339   0.108   0.363  35.949  0.3620 -0.2294 -0.3045
  110OSM   H10S11340   0.026   0.429  35.987  0.4967  1.3077 -2.4697
  110OSM   H10T11341   0.148   0.319  36.043  0.7555  1.6744  0.4629
  110OSM   C11S11342   0.068   0.259  35.841  0.4457 -0.0405  0.3235
  110OSM   H11S11343   0.134   0.172  35.858 -2.9114 -2.7061  0.6848
  110OSM   H11T11344   0.072   0.306  35.740 -1.3723 -2.0072 -0.7407
  110OSM   C12S11345  -0.075   0.209  35.872  0.3510  0.4220 -0.3313
  110OSM   H12S11346  -0.137   0.297  35.845 -0.6037  0.4007  1.6377
  110OSM   H12T11347  -0.084   0.190  35.981  2.0961  2.5789  0.2629
  110OSM   C13S11348  -0.112   0.079  35.792  0.5076 -0.4346  0.5459
  110OSM   H13S11349  -0.038   0.004  35.828  0.2132 -0.5737  0.8599
  110OSM   H13T11350  -0.075   0.093  35.688  0.5987  1.0240  0.7583
  110OSM   C14S11351  -0.260   0.024  35.817 -0.4117  0.3316 -0.1590
  110OSM   H14S11352  -0.291   0.035  35.924 -1.1126  0.4308 -0.3649
  110OSM   H14T11353  -0.261  -0.082  35.784  0.4302 -0.1948  1.3704
  110OSM   C15S11354  -0.357   0.095  35.716 -0.3600 -0.1683 -0.3095
  110OSM   H15S11355  -0.338   0.066  35.610 -1.4042 -0.6354 -0.3917
  110OSM   H15T11356  -0.330   0.202  35.729 -1.0378  0.1812 -1.5617
  110OSM   C16S11357  -0.506   0.077  35.745 -0.8981 -0.7418  0.9584
  110OSM   H16S11358  -0.521   0.102  35.853  1.0547 -1.5505  1.4705
  110OSM   H16T11359  -0.541  -0.027  35.737 -1.1409 -0.7115  1.5670
  110OSM   C17S11360  -0.594   0.150  35.642  0.5384 -0.1392  0.0208
  110OSM   H17S11361  -0.562   0.118  35.541 -2.7640  3.0182 -2.2648
  110OSM   H17T11362  -0.568   0.257  35.650  4.1336 -0.9190  0.3282
  110OSM   C18S11363  -0.743   0.114  35.655  0.1909  0.2515 -0.1103
  110OSM   H18S11364  -0.795   0.170  35.574  0.9834  1.6340  0.3090
  110OSM   H18T11365  -0.782   0.147  35.753  0.8944  0.0864  0.2280
  110OSM   H18U11366  -0.756   0.004  35.639 -0.2973  0.4992 -1.6733
  110OSM    C1F11367   0.666   0.723  35.388 -0.3107  0.5912  0.0704
  110OSM     OF11368   0.771   0.666  35.347  0.2974 -0.0346 -0.0296
  110OSM    C2F11369   0.534   0.715  35.311 -0.5639 -0.7087 -0.1106
  110OSM    H2F11370   0.503   0.817  35.279 -0.4977 -0.4425  0.6344
  110OSM    H2G11371   0.463   0.683  35.391  0.2374 -0.2998  0.7939
  110OSM    C3F11372   0.536   0.615  35.196  0.0027  0.9978  0.3655
  110OSM    H3F11373   0.585   0.521  35.227  0.9814  0.2429 -3.0828
  110OSM    H3G11374   0.607   0.658  35.122 -0.5147 -0.3650 -0.9684
  110OSM    C4F11375   0.395   0.593  35.151  0.6256  0.4114 -0.7027
  110OSM    H4F11376   0.336   0.688  35.152  1.4367  0.9268  0.1433
  110OSM    H4G11377   0.348   0.527  35.227  1.4117  0.7837  0.1232
  110OSM    C5F11378   0.380   0.513  35.020  1.3089 -0.3698 -0.4920
  110OSM    H5F11379   0.281   0.465  35.008  0.9166  0.4108 -0.4772
  110OSM    H5G11380   0.456   0.432  35.020  1.8592  0.0687 -2.8971
  110OSM    C6F11381   0.402   0.596  34.896  0.2219  0.2476 -0.7481
  110OSM    H6F11382   0.510   0.620  34.905  0.6330 -1.3322 -1.1365
  110OSM    H6G11383   0.341   0.688  34.883  0.7163  1.3743  3.4045
  110OSM    C7F11384   0.380   0.514  34.764  0.5721  0.8135 -0.0727
  110OSM    H7F11385   0.282   0.461  34.764  0.3636  1.1648  1.0768
  110OSM    H7G11386   0.459   0.436  34.765 -0.1161  0.0939 -0.4197
  110OSM    C8F11387   0.391   0.585  34.624 -0.6452 -0.3114  0.2663
  110OSM    H8F11388   0.376   0.504  34.549 -1.2660 -0.7601  0.8542
  110OSM    H8G11389   0.490   0.635  34.618 -1.0543  0.3888 -1.1051
  110OSM    C9F11390   0.283   0.689  34.602  0.4657 -0.0328  0.0325
  110OSM    H9F11391   0.229   0.746  34.679 -1.7100  0.6696 -1.8733
  110OSM   C10F11392   0.255   0.743  34.481  0.1166  0.6779 -0.0847
  110OSM   H10F11393   0.183   0.825  34.468 -1.7059 -0.9118 -0.4500
  110OSM   C11F11394   0.303   0.693  34.347 -1.4281 -0.1192  0.1166
  110OSM   H11F11395   0.395   0.631  34.356 -0.3569  1.4701  0.5652
  110OSM   H11G11396   0.346   0.783  34.299  0.4921 -0.0254  1.8618
  110OSM   C12F11397   0.195   0.627  34.260 -0.2093  0.0917  0.9193
  110OSM   H12F11398   0.173   0.524  34.297 -0.2782  0.5568  2.2348
  110OSM   H12G11399   0.227   0.603  34.156 -0.6735 -1.0518  1.0334
  110OSM   C13F11400   0.062   0.702  34.270 -0.1391 -1.2006 -0.1102
  110OSM   H13F11401   0.069   0.813  34.263 -0.0909 -1.1021  1.2600
  110OSM   H13G11402   0.013   0.675  34.366  1.3040 -0.7420  0.7839
  110OSM   C14F11403  -0.027   0.671  34.150 -0.2169  0.9647  0.1594
  110OSM   H14F11404  -0.026   0.563  34.122 -0.2331  0.8030  0.7669
  110OSM   H14G11405   0.007   0.737  34.068  0.6694 -0.2862 -0.5109
  110OSM   C15F11406  -0.176   0.686  34.170 -0.3521 -0.6519 -0.6019
  110OSM   H15F11407  -0.201   0.788  34.208  0.4882 -0.0544 -1.5935
  110OSM   H15G11408  -0.192   0.614  34.253 -1.0466  2.0354  1.7533
  110OSM   C16F11409  -0.256   0.641  34.052  0.1737 -0.5780  0.1196
  110OSM   H16F11410  -0.221   0.540  34.023  1.1021  0.0649 -1.0746
  110OSM   H16G11411  -0.241   0.709  33.966 -0.6394 -1.4743 -0.7687
  110OSM   C17F11412  -0.407   0.655  34.079 -0.4411 -0.0070  0.1332
  110OSM   H17F11413  -0.448   0.758  34.094 -1.6484 -0.4772  0.1868
  110OSM   H17G11414  -0.434   0.593  34.167 -0.0322 -0.8015 -0.2936
  110OSM   C18F11415  -0.483   0.605  33.956 -0.0484  0.5243  0.9635
  110OSM   H18F11416  -0.590   0.633  33.956 -0.1718  0.1147 -0.3349
  110OSM   H18G11417  -0.458   0.498  33.936 -2.4533  0.5677 -3.6031
  110OSM   H18H11418  -0.447   0.649  33.860 -0.5563  0.8338  0.9162
  111OSM      N11419   2.485   2.336  42.514 -0.4769  0.0842 -0.2521
  111OSM    C1511420   2.419   2.302  42.645  0.5698  0.4494  0.0156
  111OSM   H15A11421   2.479   2.229  42.698 -0.7795 -0.8162 -0.1100
  111OSM   H15B11422   2.318   2.263  42.635  0.9602 -0.3771 -0.8874
  111OSM   H15C11423   2.416   2.389  42.709  2.4420 -0.3836  1.3318
  111OSM    C1411424   2.483   2.220  42.420 -0.1868  0.1938  0.0698
  111OSM   H14A11425   2.384   2.198  42.384 -0.6078  2.3192 -0.2384
  111OSM   H14B11426   2.518   2.130  42.468  1.3577  0.9204  0.3684
  111OSM   H14C11427   2.556   2.232  42.342 -1.2978 -0.7321 -1.1430
  111OSM    C1311428   2.403   2.447  42.450 -0.5616 -0.1318  0.1221
  111OSM   H13A11429   2.300   2.415  42.440 -0.0825 -1.0678 -2.5210
  111OSM   H13B11430   2.439   2.484  42.355  0.1919  1.2210  0.9044
  111OSM   H13C11431   2.407   2.532  42.516 -1.4773  1.1063 -1.3612
  111OSM    C1211432   2.624   2.386  42.539  0.3697 -0.1575 -0.1869
  111OSM   H12A11433   2.663   2.423  42.445 -0.3870  1.5065  0.1197
  111OSM   H12B11434   2.688   2.310  42.580  0.3656 -0.1952 -0.2509
  111OSM    C1111435   2.626   2.517  42.628  0.0134  0.3659  0.3133
  111OSM   H11A11436   2.550   2.513  42.709 -1.0142  1.9229 -0.5329
  111OSM   H11B11437   2.603   2.601  42.560  1.1250  2.5884  2.5086
  111OSM      P11438   2.858   2.629  42.631 -0.0291 -0.2550 -0.1014
  111OSM    O1311439   2.834   2.769  42.667 -0.0670  0.0310 -0.8030
  111OSM    O1411440   2.991   2.568  42.667  0.7260 -0.1803  0.2959
  111OSM    O1111441   2.846   2.619  42.470  0.0716 -0.3880 -1.0227
  111OSM    O1211442   2.753   2.527  42.691  0.6828  0.3450  0.0115
  111OSM    C1S11443   2.891   2.510  42.394 -0.3988 -0.6372 -0.5338
  111OSM    H1S11444   2.859   2.417  42.447  0.7334 -0.8489 -0.2087
  111OSM    H1T11445   3.001   2.500  42.395 -0.1786  1.5179  0.5220
  111OSM     NF11446   2.896   2.382  42.180 -0.0455 -0.4905 -0.8296
  111OSM    HNF11447   2.994   2.391  42.166  0.2989 -0.2562  1.4100
  111OSM    C2S11448   2.842   2.501  42.247  0.3648  0.1410 -0.4593
  111OSM    H2S11449   2.731   2.501  42.236  0.3074  1.6633 -0.0288
  111OSM    C3S11450   2.892   2.629  42.168  0.1224  0.6157  0.0542
  111OSM    H3S11451   3.002   2.627  42.153 -0.2398  0.9042 -3.5053
  111OSM     O311452   2.881   2.752  42.238  0.1048 -0.4006 -0.5582
  111OSM    HO311453   2.887   2.711  42.325 -2.2255 -3.9803 -1.8360
  111OSM    C4S11454   2.837   2.646  42.034  0.5463 -0.5621  0.6606
  111OSM    H4S11455   2.730   2.632  42.018  0.9554 -0.4329 -2.8675
  111OSM    C5S11456   2.908   2.691  41.925  0.3274  0.3498  0.0745
  111OSM    H5S11457   3.014   2.712  41.948  0.7566 -2.0738  0.5488
  111OSM    C6S11458   2.845   2.713  41.784 -0.1677  0.0665 -0.4805
  111OSM    H6S11459   2.896   2.789  41.721 -0.9111 -0.0886 -1.2836
  111OSM    H6T11460   2.747   2.762  41.799  0.9815  2.1012  0.7670
  111OSM    C7S11461   2.825   2.588  41.689  0.0864 -0.1411 -0.0194
  111OSM    H7S11462   2.748   2.523  41.737  1.1049 -0.3372  1.4369
  111OSM    H7T11463   2.923   2.537  41.675  0.3692  0.0567  1.1310
  111OSM    C8S11464   2.775   2.619  41.542  0.3252  0.5543 -0.3749
  111OSM    H8S11465   2.683   2.681  41.542 -0.9584 -1.2347  1.3693
  111OSM    H8T11466   2.750   2.526  41.486  0.9518  0.2229 -0.1158
  111OSM    C9S11467   2.887   2.694  41.468  0.2466  0.2110  1.1659
  111OSM    H9S11468   2.977   2.629  41.470  0.2083  0.1256  0.3785
  111OSM    H9T11469   2.903   2.793  41.515 -2.2192  0.5771  1.3687
  111OSM   C10S11470   2.870   2.712  41.313 -0.6905 -0.3998  0.2550
  111OSM   H10S11471   2.874   2.614  41.261 -0.5981 -2.1317  3.3307
  111OSM   H10T11472   2.955   2.772  41.273 -2.3493  1.5174 -0.6058
  111OSM   C11S11473   2.742   2.790  41.274  0.1091 -0.1987  1.0211
  111OSM   H11S11474   2.730   2.882  41.335  0.3985  0.7256 -0.2686
  111OSM   H11T11475   2.649   2.735  41.302 -0.4032  0.7148  1.1886
  111OSM   C12S11476   2.732   2.830  41.125 -0.7576  0.3617  0.0881
  111OSM   H12S11477   2.834   2.842  41.081 -1.3049  1.9473 -0.8014
  111OSM   H12T11478   2.671   2.920  41.108  0.2205  1.3416  1.5624
  111OSM   C13S11479   2.663   2.714  41.044  0.2150 -0.5007 -0.1337
  111OSM   H13S11480   2.554   2.715  41.065 -0.3125  0.6441 -2.5563
  111OSM   H13T11481   2.708   2.620  41.084  0.3222 -0.0780  0.7682
  111OSM   C14S11482   2.693   2.712  40.892  0.6639 -0.3465  0.5459
  111OSM   H14S11483   2.794   2.672  40.867  1.4676  2.5044 -1.1548
  111OSM   H14T11484   2.678   2.813  40.849  3.1848 -0.8614 -1.8848
  111OSM   C15S11485   2.602   2.619  40.813 -0.1124  0.3918  0.4508
  111OSM   H15S11486   2.500   2.661  40.795 -1.5399 -2.4248  1.3225
  111OSM   H15T11487   2.581   2.526  40.872  2.4965 -1.0868 -0.7948
  111OSM   C16S11488   2.648   2.580  40.670  0.1376 -0.6366 -0.3545
  111OSM   H16S11489   2.596   2.495  40.620 -0.3189  0.1632 -1.2660
  111OSM   H16T11490   2.751   2.544  40.694  1.1469  1.3663 -1.4718
  111OSM   C17S11491   2.647   2.691  40.566  0.6010  0.1132 -0.6945
  111OSM   H17S11492   2.677   2.792  40.602 -0.5176 -0.2747  1.4945
  111OSM   H17T11493   2.541   2.697  40.532  0.5829  3.6220 -0.4075
  111OSM   C18S11494   2.721   2.645  40.437 -0.5362  0.4759 -0.5739
  111OSM   H18S11495   2.712   2.534  40.440 -0.4177  0.4586  2.9125
  111OSM   H18T11496   2.830   2.665  40.445 -0.7112  0.8304  1.7834
  111OSM   H18U11497   2.682   2.702  40.350 -2.2710 -1.2042 -0.9719
  111OSM    C1F11498   2.854   2.267  42.217 -1.5467 -0.1578 -0.0055
  111OSM     OF11499   2.750   2.257  42.281 -0.1925 -0.0884  0.4473
  111OSM    C2F11500   2.936   2.147  42.172  0.9541 -0.2868  0.1378
  111OSM    H2F11501   2.868   2.061  42.158  0.6415 -0.0018 -0.0983
  111OSM    H2G11502   3.004   2.131  42.259 -0.6670 -0.1885  1.4901
  111OSM    C3F11503   3.008   2.168  42.043 -0.3571 -0.2953  0.6094
  111OSM    H3F11504   3.061   2.074  42.019  0.4643  0.3962 -0.3451
  111OSM    H3G11505   3.084   2.246  42.064 -0.5208 -0.0699  0.3780
  111OSM    C4F11506   2.924   2.207  41.922  0.3623 -0.1293  0.0123
  111OSM    H4F11507   2.987   2.213  41.831  1.2524  0.5567  0.6626
  111OSM    H4G11508   2.878   2.308  41.933  0.1675 -0.1732 -0.3884
  111OSM    C5F11509   2.815   2.104  41.897  0.4346 -0.2261  0.7480
  111OSM    H5F11510   2.732   2.109  41.971  0.6507 -2.4370  1.1984
  111OSM    H5G11511   2.856   2.001  41.904 -3.0733 -1.7143  1.0653
  111OSM    C6F11512   2.750   2.108  41.756 -0.6364 -0.1763  0.2645
  111OSM    H6F11513   2.675   2.029  41.738 -0.7944 -0.2875  1.3805
  111OSM    H6G11514   2.834   2.112  41.682  1.3765 -2.9321  2.1773
  111OSM    C7F11515   2.668   2.237  41.732 -0.8130 -0.4575 -0.4467
  111OSM    H7F11516   2.739   2.323  41.735 -0.2914 -0.8895  2.5279
  111OSM    H7G11517   2.591   2.260  41.809  0.5446  1.6196  0.4017
  111OSM    C8F11518   2.607   2.235  41.592  0.0822 -0.3698  0.2585
  111OSM    H8F11519   2.570   2.132  41.572 -0.4592 -0.1785  0.2665
  111OSM    H8G11520   2.689   2.253  41.520  0.2309 -3.4781 -0.4759
  111OSM    C9F11521   2.504   2.346  41.575 -0.1532 -0.2737 -0.2291
  111OSM    H9F11522   2.515   2.438  41.634  1.7228 -1.6520  1.7046
  111OSM   C10F11523   2.412   2.347  41.476 -0.2646  0.5882 -0.2864
  111OSM   H10F11524   2.338   2.427  41.466  2.2756  3.0178 -1.1128
  111OSM   C11F11525   2.377   2.228  41.382 -0.7337 -0.1823 -0.5992
  111OSM   H11F11526   2.272   2.194  41.394 -1.3724  1.3941 -1.3343
  111OSM   H11G11527   2.444   2.145  41.413  1.9636  2.5018  1.4034
  111OSM   C12F11528   2.392   2.267  41.235  0.4541  0.0110 -0.3580
  111OSM   H12F11529   2.359   2.185  41.167  0.2026 -0.7731  0.6806
  111OSM   H12G11530   2.492   2.301  41.203 -0.2556  0.7720 -1.8432
  111OSM   C13F11531   2.295   2.386  41.210  0.3215  0.6548  0.4470
  111OSM   H13F11532   2.347   2.469  41.262  1.0154 -0.2182  1.1752
  111OSM   H13G11533   2.205   2.364  41.272 -1.0662  1.9463 -1.0323
  111OSM   C14F11534   2.258   2.401  41.065 -0.5336 -0.2895 -0.1748
  111OSM   H14F11535   2.181   2.328  41.033 -0.8632 -0.0919  0.1674
  111OSM   H14G11536   2.349   2.391  41.001 -0.1348  0.4265  0.2718
  111OSM   C15F11537   2.204   2.540  41.035 -0.6365  0.2226 -0.4933
  111OSM   H15F11538   2.277   2.604  41.088 -0.8971  1.6193 -1.7807
  111OSM   H15G11539   2.109   2.563  41.086  1.1467  1.9216  2.2911
  111OSM   C16F11540   2.196   2.574  40.889  0.6325  0.0230 -0.5758
  111OSM   H16F11541   2.133   2.503  40.830 -0.8616  0.1318  0.8429
  111OSM   H16G11542   2.301   2.559  40.856  0.4361 -0.8804 -0.8228
  111OSM   C17F11543   2.150   2.722  40.856  0.0424 -0.3285 -1.2317
  111OSM   H17F11544   2.179   2.745  40.752  0.0771 -0.3542 -1.2306
  111OSM   H17G11545   2.206   2.791  40.923  1.4837 -0.5651 -2.1463
  111OSM   C18F11546   2.005   2.757  40.870  0.0321 -0.3198 -1.0224
  111OSM   H18F11547   1.976   2.852  40.821 -1.5657  0.9377  2.0639
  111OSM   H18G11548   1.992   2.781  40.977  0.6285 -1.0690 -0.7688
  111OSM   H18H11549   1.938   2.673  40.840 -1.6900  0.8512 -0.6068
  112OSM      N11550   0.935   2.323  33.949 -0.5011  0.7936  0.8354
  112OSM    C1511551   1.050   2.242  33.896 -0.7529  0.0992  0.3689
  112OSM   H15A11552   1.017   2.147  33.857 -0.5913 -1.3128  3.3839
  112OSM   H15B11553   1.120   2.210  33.971  0.7174 -1.5771 -1.6235
  112OSM   H15C11554   1.092   2.304  33.818 -2.4384  2.1905  1.0040
  112OSM    C1411555   0.852   2.375  33.837  0.1376  0.6541  0.2649
  112OSM   H14A11556   0.907   2.429  33.762 -0.1866 -0.7012 -0.9778
  112OSM   H14B11557   0.782   2.447  33.877  0.2008 -0.6615  2.9971
  112OSM   H14C11558   0.791   2.302  33.788  1.8345  1.1004 -2.7338
  112OSM    C1311559   0.841   2.242  34.040 -0.1516 -0.3407  0.3466
  112OSM   H13A11560   0.755   2.299  34.072  0.2803  1.0592 -0.8719
  112OSM   H13B11561   0.898   2.226  34.130  0.3281  2.4510  0.6391
  112OSM   H13C11562   0.803   2.159  33.983  0.3453  1.2287 -2.4285
  112OSM    C1211563   0.994   2.443  34.012 -0.3432 -0.3056  0.4357
  112OSM   H12A11564   0.916   2.507  34.049  0.8549  1.5341 -0.0984
  112OSM   H12B11565   1.046   2.509  33.944  0.0298  0.4733  1.4517
  112OSM    C1111566   1.097   2.425  34.127  0.2934 -0.1099 -0.5902
  112OSM   H11A11567   1.184   2.369  34.087  0.3977 -0.8855  0.6563
  112OSM   H11B11568   1.052   2.370  34.213 -4.6405  2.6759 -0.9822
  112OSM      P11569   1.242   2.581  34.273 -0.0885  0.0588 -0.2332
  112OSM    O1311570   1.261   2.730  34.299 -0.1806  0.2344  0.2104
  112OSM    O1411571   1.185   2.494  34.381 -1.0129 -0.3212  0.0833
  112OSM    O1111572   1.384   2.520  34.218  0.0269  0.1761  0.7741
  112OSM    O1211573   1.133   2.560  34.159  0.6292 -0.6326 -0.0233
  112OSM    C1S11574   1.427   2.532  34.079  0.3102  0.2990  0.0292
  112OSM    H1S11575   1.464   2.636  34.065  1.2215  0.3653  2.4792
  112OSM    H1T11576   1.344   2.529  34.005  1.3775  1.7250 -1.2704
  112OSM     NF11577   1.558   2.419  33.898  0.0223 -0.4421 -0.8979
  112OSM    HNF11578   1.535   2.343  33.839  0.5589  0.3760 -2.2105
  112OSM    C2S11579   1.539   2.423  34.042  0.1216  0.1911  0.3342
  112OSM    H2S11580   1.633   2.447  34.096  1.2567 -2.5742 -0.2208
  112OSM    C3S11581   1.503   2.285  34.103  0.4678  0.0010  0.4283
  112OSM    H3S11582   1.409   2.255  34.051 -0.3448 -1.9145  2.8209
  112OSM     O311583   1.474   2.285  34.242 -0.0017 -0.4335 -0.5313
  112OSM    HO311584   1.451   2.372  34.273 -1.1067 -1.3092  1.2780
  112OSM    C4S11585   1.613   2.194  34.073 -0.4310  0.1297 -0.1569
  112OSM    H4S11586   1.706   2.244  34.106  0.0643 -0.8301 -0.0733
  112OSM    C5S11587   1.624   2.076  34.018  0.6289  0.1962 -0.0057
  112OSM    H5S11588   1.528   2.051  33.970 -2.0032  5.4379  1.7152
  112OSM    C6S11589   1.745   1.986  33.997 -0.0501 -0.0153 -0.0037
  112OSM    H6S11590   1.784   2.000  33.894  0.7122  0.6848  0.3692
  112OSM    H6T11591   1.712   1.881  34.008  2.2362 -0.8679 -0.8290
  112OSM    C7S11592   1.862   1.999  34.091 -0.1723  0.1987  0.3536
  112OSM    H7S11593   1.816   2.007  34.192 -0.6739 -2.0161  0.3587
  112OSM    H7T11594   1.923   2.091  34.082  2.2548 -1.4020 -0.6600
  112OSM    C8S11595   1.963   1.881  34.096 -0.2796  1.0581 -0.2745
  112OSM    H8S11596   1.902   1.795  34.133 -1.1991  1.0582 -1.7316
  112OSM    H8T11597   2.036   1.902  34.177 -0.8149  0.0521  0.5002
  112OSM    C9S11598   2.031   1.860  33.960 -0.5648 -0.8531  0.3148
  112OSM    H9S11599   2.085   1.951  33.926 -1.8631  0.4616  1.5642
  112OSM    H9T11600   1.950   1.831  33.890  0.1224 -0.2921 -0.7254
  112OSM   C10S11601   2.130   1.746  33.956 -1.2731  0.7216  0.6831
  112OSM   H10S11602   2.069   1.653  33.965 -0.9820  0.4772  0.1609
  112OSM   H10T11603   2.194   1.759  34.046 -0.1492 -0.9559  0.1745
  112OSM   C11S11604   2.218   1.735  33.822  0.7796  0.6180  0.1756
  112OSM   H11S11605   2.281   1.826  33.818  0.6472  0.7105  0.1754
  112OSM   H11T11606   2.143   1.743  33.740  2.6574  3.1843 -1.4436
  112OSM   C12S11607   2.289   1.600  33.802  1.0909 -0.7803  0.0458
  112OSM   H12S11608   2.218   1.516  33.786  0.6952 -0.3206 -0.6325
  112OSM   H12T11609   2.354   1.581  33.891 -0.1608 -0.8273  0.9714
  112OSM   C13S11610   2.381   1.608  33.675 -0.1192 -1.0102  0.0754
  112OSM   H13S11611   2.408   1.509  33.633 -0.8859 -0.1688 -2.5961
  112OSM   H13T11612   2.475   1.654  33.713  0.0224  1.0105 -2.4725
  112OSM   C14S11613   2.308   1.679  33.558 -0.0971  0.0618  0.0207
  112OSM   H14S11614   2.303   1.787  33.581  3.2910  0.0495  1.3999
  112OSM   H14T11615   2.209   1.636  33.533 -0.2239  0.3773 -0.0205
  112OSM   C15S11616   2.403   1.661  33.433  0.5007 -0.4315  0.4569
  112OSM   H15S11617   2.508   1.683  33.464  2.0397 -2.1895 -2.9233
  112OSM   H15T11618   2.368   1.745  33.370  0.2720 -0.4223  0.5955
  112OSM   C16S11619   2.409   1.522  33.364 -0.4636 -0.3941  0.0343
  112OSM   H16S11620   2.305   1.513  33.327 -1.5104  3.1708  1.7337
  112OSM   H16T11621   2.437   1.437  33.431  1.6727 -0.1507 -0.4551
  112OSM   C17S11622   2.514   1.534  33.257 -0.2882 -0.5526 -0.2999
  112OSM   H17S11623   2.557   1.436  33.227 -0.2995 -0.9506  0.9313
  112OSM   H17T11624   2.598   1.591  33.304 -1.1105  0.4962 -0.0617
  112OSM   C18S11625   2.471   1.616  33.129 -0.2801 -0.3438  0.4125
  112OSM   H18S11626   2.441   1.719  33.155  0.6459  0.2673 -0.8292
  112OSM   H18T11627   2.389   1.565  33.074 -0.9598  1.7657 -0.6170
  112OSM   H18U11628   2.544   1.636  33.047 -0.1044  1.0450  0.8901
  112OSM    C1F11629   1.611   2.531  33.844 -0.0764 -0.1907  0.1323
  112OSM     OF11630   1.663   2.625  33.915  0.3920 -0.2511 -0.3162
  112OSM    C2F11631   1.606   2.540  33.698 -0.1669  0.9217  0.4659
  112OSM    H2F11632   1.501   2.514  33.672  0.2622 -0.7514  0.2796
  112OSM    H2G11633   1.668   2.464  33.646  1.3955  3.0890 -1.0503
  112OSM    C3F11634   1.644   2.669  33.636 -0.2682  0.1899  0.1087
  112OSM    H3F11635   1.753   2.691  33.636 -0.3104  0.6605  2.0242
  112OSM    H3G11636   1.598   2.759  33.683  0.4281  1.1152 -0.9279
  112OSM    C4F11637   1.599   2.682  33.486 -0.0974  0.2546 -0.1272
  112OSM    H4F11638   1.621   2.786  33.451  0.4574 -0.2576 -1.3766
  112OSM    H4G11639   1.490   2.665  33.477 -0.5685  2.1194  1.3989
  112OSM    C5F11640   1.677   2.587  33.395 -0.1552 -0.5491 -0.4198
  112OSM    H5F11641   1.609   2.501  33.378 -2.1503  1.1714 -1.6958
  112OSM    H5G11642   1.766   2.548  33.449  0.7505 -1.6616 -2.5827
  112OSM    C6F11643   1.697   2.664  33.261  0.0604  0.3370 -0.5679
  112OSM    H6F11644   1.749   2.762  33.267  0.4429  0.2033 -1.5236
  112OSM    H6G11645   1.590   2.668  33.233 -0.5733 -0.6030  1.4952
  112OSM    C7F11646   1.756   2.577  33.153  0.1245  0.3481  0.3979
  112OSM    H7F11647   1.708   2.478  33.165 -0.1090  0.1579 -1.7916
  112OSM    H7G11648   1.867   2.575  33.156  0.0925 -1.0774  1.2204
  112OSM    C8F11649   1.713   2.638  33.008 -0.9391  0.5843  0.5665
  112OSM    H8F11650   1.781   2.718  32.971  0.2643  0.0036  1.4259
  112OSM    H8G11651   1.609   2.674  33.015 -0.6810  1.2454  1.0723
  112OSM    C9F11652   1.726   2.524  32.907 -0.2631 -0.2769 -0.6525
  112OSM    H9F11653   1.812   2.457  32.921 -0.6200 -0.3594  1.5090
  112OSM   C10F11654   1.657   2.511  32.790 -0.0326 -0.6909 -0.6348
  112OSM   H10F11655   1.681   2.411  32.749 -0.6080 -1.0446 -0.1170
  112OSM   C11F11656   1.552   2.596  32.728  0.2426 -0.2127 -0.5441
  112OSM   H11F11657   1.595   2.687  32.680  1.7117 -0.1852  0.7706
  112OSM   H11G11658   1.480   2.635  32.803 -2.3881  1.0328 -3.4639
  112OSM   C12F11659   1.456   2.537  32.623 -0.1373 -0.2900  0.7181
  112OSM   H12F11660   1.412   2.446  32.669  0.5529 -1.1777 -0.3314
  112OSM   H12G11661   1.515   2.488  32.542  0.3234 -0.7256  1.3071
  112OSM   C13F11662   1.362   2.634  32.549 -0.0412  0.4709 -0.0583
  112OSM   H13F11663   1.283   2.567  32.509  1.8301 -0.5237 -2.2237
  112OSM   H13G11664   1.425   2.677  32.469  0.0881 -1.2201 -0.9083
  112OSM   C14F11665   1.300   2.745  32.635 -0.0485 -0.3449  0.3671
  112OSM   H14F11666   1.380   2.817  32.663 -1.1585  0.9784  0.2261
  112OSM   H14G11667   1.260   2.708  32.732 -1.3005  1.9031  0.7747
  112OSM   C15F11668   1.196   2.826  32.562  0.0829 -0.0927 -0.2887
  112OSM   H15F11669   1.175   2.913  32.628  3.8498  1.8677 -1.3495
  112OSM   H15G11670   1.106   2.777  32.517  0.2938 -0.5710 -0.1880
  112OSM   C16F11671   1.238   2.910  32.435 -0.5343  0.2327 -0.4145
  112OSM   H16F11672   1.293   2.848  32.361 -1.1151 -0.3485 -0.3565
  112OSM   H16G11673   1.319   2.982  32.462 -0.0984 -1.3346  2.9289
  112OSM   C17F11674   1.117   2.972  32.366 -0.5239 -0.0112  0.2562
  112OSM   H17F11675   1.060   2.891  32.315 -0.9403  1.1504 -1.1977
  112OSM   H17G11676   1.151   3.029  32.277 -0.9686  1.7086  1.1484
  112OSM   C18F11677   1.037   3.062  32.465  0.8524  0.6674  0.2996
  112OSM   H18F11678   1.105   3.137  32.511  0.2957  1.7475 -0.5886
  112OSM   H18G11679   0.999   2.996  32.546 -0.3067  2.7370  1.5232
  112OSM   H18H11680   0.949   3.115  32.423 -0.6058 -2.5364 -0.9984
  113OSM      N11681   1.119   1.689  37.469 -0.7199  0.2071 -0.1751
  113OSM    C1511682   1.089   1.815  37.544 -0.0974 -0.4158 -0.2214
  113OSM   H15A11683   1.030   1.885  37.487  0.4659  0.6161  0.4393
  113OSM   H15B11684   1.172   1.872  37.582 -1.6051  0.0157  2.6992
  113OSM   H15C11685   1.037   1.787  37.635  0.9676 -1.1531  0.1806
  113OSM    C1411686   1.164   1.585  37.559 -0.4425 -0.0353  0.4001
  113OSM   H14A11687   1.088   1.553  37.629 -0.1210  0.0184  0.7769
  113OSM   H14B11688   1.244   1.631  37.617 -0.8106  3.5865 -1.7165
  113OSM   H14C11689   1.212   1.500  37.514  2.3161  1.8841 -0.5686
  113OSM    C1311690   0.994   1.648  37.394 -0.3697  0.1346 -0.4299
  113OSM   H13A11691   0.997   1.541  37.378  2.1156 -0.4730  2.8907
  113OSM   H13B11692   0.972   1.705  37.305 -0.5396 -2.1418 -1.9196
  113OSM   H13C11693   0.915   1.654  37.467 -0.3074  2.1474 -0.4758
  113OSM    C1211694   1.227   1.710  37.365  0.1172 -0.3923  0.7859
  113OSM   H12A11695   1.235   1.625  37.298 -0.8723 -0.4030  0.6768
  113OSM   H12B11696   1.323   1.715  37.414  0.3462  0.2229  0.2898
  113OSM    C1111697   1.219   1.843  37.281 -0.3100 -0.5293 -0.1624
  113OSM   H11A11698   1.288   1.842  37.193  0.1708 -0.3128  0.2085
  113OSM   H11B11699   1.248   1.928  37.345  0.8797 -1.3540  0.4367
  113OSM      P11700   1.041   1.997  37.171 -0.3436  0.3103 -0.1318
  113OSM    O1311701   1.037   2.094  37.282  0.2439  0.2340  0.1111
  113OSM    O1411702   1.101   2.030  37.042  0.4324  0.3266  0.1304
  113OSM    O1111703   0.890   1.976  37.134 -0.6822  0.2084  0.1482
  113OSM    O1211704   1.091   1.861  37.224  0.0107  0.3873 -0.2247
  113OSM    C1S11705   0.850   1.869  37.052 -0.1493  0.2342 -0.4294
  113OSM    H1S11706   0.885   1.773  37.095  0.5062  0.6428 -0.0254
  113OSM    H1T11707   0.883   1.885  36.947 -2.5674 -1.4064 -1.5174
  113OSM     NF11708   0.643   1.768  36.956  0.0186 -0.2620 -0.0757
  113OSM    HNF11709   0.614   1.805  36.868 -2.2012 -1.7526 -0.0528
  113OSM    C2S11710   0.694   1.863  37.050  0.1131  0.5089  0.2366
  113OSM    H2S11711   0.668   1.830  37.153 -0.5167  0.8528  0.1899
  113OSM    C3S11712   0.627   2.007  37.035  0.6517 -0.0143  0.4148
  113OSM    H3S11713   0.639   2.050  36.933 -0.6982  1.2049  0.7351
  113OSM     O311714   0.675   2.102  37.115 -0.0617 -0.6364 -0.1032
  113OSM    HO311715   0.767   2.076  37.126 -0.4617 -2.0090  0.1482
  113OSM    C4S11716   0.474   1.997  37.059 -0.8175 -0.0373 -0.5592
  113OSM    H4S11717   0.412   1.979  36.970 -0.3528 -1.5078 -0.6120
  113OSM    C5S11718   0.407   1.999  37.176  0.7606  0.6315  0.2401
  113OSM    H5S11719   0.452   2.002  37.276  0.1169 -1.1007  0.6182
  113OSM    C6S11720   0.258   1.980  37.197  0.1977  0.3515  0.3063
  113OSM    H6S11721   0.207   2.073  37.232 -0.3090  0.7209 -1.3294
  113OSM    H6T11722   0.231   1.919  37.286  0.9661 -1.7276 -0.8274
  113OSM    C7S11723   0.177   1.920  37.075 -0.3713  0.2054 -0.8627
  113OSM    H7S11724   0.088   1.880  37.127  0.6110 -2.4048 -1.0506
  113OSM    H7T11725   0.229   1.832  37.031  1.5200  0.4625  0.7130
  113OSM    C8S11726   0.129   2.012  36.971  0.5286 -0.6538 -0.5630
  113OSM    H8S11727   0.208   2.054  36.906 -1.6197  4.0272 -0.6323
  113OSM    H8T11728   0.080   2.098  37.024 -0.2937 -1.2254 -0.3694
  113OSM    C9S11729   0.018   1.943  36.891  0.4381 -0.7680 -0.0876
  113OSM    H9S11730  -0.055   1.881  36.948 -1.2683  1.6795  0.5302
  113OSM    H9T11731   0.067   1.877  36.816 -0.3151 -2.1587  0.5946
  113OSM   C10S11732  -0.057   2.049  36.803 -0.5368 -0.0997 -0.5363
  113OSM   H10S11733   0.030   2.103  36.760  1.1168 -0.6792  1.8414
  113OSM   H10T11734  -0.118   2.119  36.863 -1.6397 -0.5283 -1.1386
  113OSM   C11S11735  -0.160   1.981  36.716  0.5587 -0.6327 -0.2578
  113OSM   H11S11736  -0.198   1.893  36.772 -0.8407  0.6190  0.8366
  113OSM   H11T11737  -0.111   1.950  36.622  1.4196 -0.8955  0.2709
  113OSM   C12S11738  -0.277   2.078  36.684 -0.1534  0.1978 -0.1608
  113OSM   H12S11739  -0.251   2.178  36.643  1.3766 -1.0219 -2.3772
  113OSM   H12T11740  -0.346   2.084  36.771  1.2904  2.1041  0.9337
  113OSM   C13S11741  -0.347   2.010  36.560  0.5352 -0.2672  0.0154
  113OSM   H13S11742  -0.360   1.901  36.579 -0.4953  0.0908  1.6161
  113OSM   H13T11743  -0.281   2.012  36.471  1.7858 -0.5147  0.9149
  113OSM   C14S11744  -0.493   2.056  36.546 -0.1013 -0.3230  0.4151
  113OSM   H14S11745  -0.506   2.153  36.598 -1.1881  0.1720 -0.7338
  113OSM   H14T11746  -0.556   1.973  36.586  1.2312 -0.6718  1.9028
  113OSM   C15S11747  -0.552   2.063  36.401 -0.3249 -0.0977  0.0508
  113OSM   H15S11748  -0.554   1.958  36.366  1.6810 -0.7058  1.5924
  113OSM   H15T11749  -0.477   2.123  36.345 -1.0051 -1.3064 -2.2804
  113OSM   C16S11750  -0.686   2.141  36.401  0.5257  0.4856 -0.3081
  113OSM   H16S11751  -0.732   2.135  36.502 -0.1185 -0.7104 -0.6569
  113OSM   H16T11752  -0.751   2.101  36.321  1.9425  0.1803 -1.3301
  113OSM   C17S11753  -0.672   2.292  36.365  0.5938  1.0629  0.1931
  113OSM   H17S11754  -0.616   2.304  36.270 -0.5495 -1.2881 -0.8464
  113OSM   H17T11755  -0.609   2.327  36.450 -0.9010 -1.8673  2.7186
  113OSM   C18S11756  -0.793   2.374  36.362  0.5654 -0.4242 -0.6353
  113OSM   H18S11757  -0.799   2.426  36.460  1.9328 -0.0315 -0.7365
  113OSM   H18T11758  -0.881   2.313  36.331 -1.1766  0.1275  2.7092
  113OSM   H18U11759  -0.795   2.462  36.294 -0.1444 -0.4206 -0.6210
  113OSM    C1F11760   0.647   1.639  36.973  0.1514  0.2121 -0.6073
  113OSM     OF11761   0.698   1.584  37.071  0.7791  0.5815 -0.4139
  113OSM    C2F11762   0.604   1.556  36.859 -0.1103  0.0782  0.6985
  113OSM    H2F11763   0.696   1.504  36.825  0.2058  0.1610  1.4074
  113OSM    H2G11764   0.583   1.623  36.772  0.7462  0.8186  1.0545
  113OSM    C3F11765   0.481   1.465  36.889 -0.1035 -0.8839  0.0894
  113OSM    H3F11766   0.499   1.370  36.945 -0.3603 -2.3915 -2.2733
  113OSM    H3G11767   0.442   1.434  36.790  1.3423  2.0979 -1.5350
  113OSM    C4F11768   0.365   1.543  36.958 -0.0621 -0.6728  0.6015
  113OSM    H4F11769   0.370   1.641  36.906  0.9052 -1.6396 -1.2102
  113OSM    H4G11770   0.395   1.563  37.063 -0.1435 -0.9522  0.6775
  113OSM    C5F11771   0.231   1.471  36.941 -0.1253 -0.6357 -0.4913
  113OSM    H5F11772   0.206   1.390  37.013 -1.2182 -1.6332 -1.9264
  113OSM    H5G11773   0.226   1.417  36.844  0.2541  0.8494 -1.3791
  113OSM    C6F11774   0.112   1.577  36.933  0.1469  0.4684  0.7121
  113OSM    H6F11775   0.138   1.645  36.849  1.9017 -0.9932 -0.0108
  113OSM    H6G11776   0.086   1.633  37.026 -0.1937  1.2842  0.1413
  113OSM    C7F11777  -0.015   1.502  36.889  0.0168  0.3339 -0.4637
  113OSM    H7F11778  -0.030   1.424  36.966  0.4314 -0.6779 -1.3771
  113OSM    H7G11779  -0.001   1.458  36.788 -2.4453  0.4295 -0.9053
  113OSM    C8F11780  -0.146   1.577  36.860 -0.4241 -0.7573  1.1812
  113OSM    H8F11781  -0.135   1.648  36.775 -2.2351  0.7542  2.1237
  113OSM    H8G11782  -0.161   1.654  36.939 -1.1145 -0.0311  0.3580
  113OSM    C9F11783  -0.268   1.490  36.861 -0.0714 -0.6500  0.8061
  113OSM    H9F11784  -0.272   1.411  36.937 -1.1493 -0.8908  0.5249
  113OSM   C10F11785  -0.381   1.503  36.781 -0.4406 -0.2757  0.2088
  113OSM   H10F11786  -0.462   1.432  36.801  0.9156 -1.1404  3.3072
  113OSM   C11F11787  -0.404   1.602  36.676 -0.2382  0.1512  0.2804
  113OSM   H11F11788  -0.444   1.537  36.595  0.5741  0.7396 -0.6159
  113OSM   H11G11789  -0.313   1.656  36.643 -1.0722  1.6899  0.3936
  113OSM   C12F11790  -0.518   1.696  36.710 -0.2086 -0.2156  0.4993
  113OSM   H12F11791  -0.510   1.763  36.622  1.2989  1.3829  1.7645
  113OSM   H12G11792  -0.493   1.755  36.800 -0.8855 -0.5939  0.9483
  113OSM   C13F11793  -0.649   1.635  36.703 -0.5386 -0.0093 -0.6379
  113OSM   H13F11794  -0.664   1.563  36.786  0.9628 -1.7010 -1.7633
  113OSM   H13G11795  -0.667   1.570  36.615  0.7389  0.3609 -1.1930
  113OSM   C14F11796  -0.772   1.723  36.701 -0.6348  0.2960  0.4154
  113OSM   H14F11797  -0.770   1.779  36.605 -0.2305 -0.4692 -0.0342
  113OSM   H14G11798  -0.747   1.799  36.779  0.7760 -0.5939  0.8779
  113OSM   C15F11799  -0.905   1.657  36.723  0.5708  0.1964  0.3368
  113OSM   H15F11800  -0.898   1.605  36.821 -0.2407 -3.0122 -1.1824
  113OSM   H15G11801  -0.913   1.574  36.649 -2.5118  0.4177  0.2902
  113OSM   C16F11802  -1.029   1.744  36.709 -0.3161 -0.7074  0.6283
  113OSM   H16F11803  -1.078   1.723  36.612 -0.0931 -0.9262  0.5619
  113OSM   H16G11804  -0.985   1.846  36.713 -0.8610 -0.4533  0.2990
  113OSM   C17F11805  -1.132   1.732  36.828 -0.7677  0.2313  0.0612
  113OSM   H17F11806  -1.210   1.812  36.821 -1.6523 -0.5896  0.2994
  113OSM   H17G11807  -1.072   1.743  36.921  0.2100 -0.3581 -0.4895
  113OSM   C18F11808  -1.210   1.601  36.831 -0.3419 -0.5043 -0.5832
  113OSM   H18F11809  -1.239   1.567  36.729  1.3914  1.2435 -1.7328
  113OSM   H18G11810  -1.293   1.602  36.904 -1.5060  2.5290 -1.8091
  113OSM   H18H11811  -1.135   1.527  36.868  0.4859 -0.0115 -1.2557
  114OSM      N11812   1.127   2.199  36.047 -0.3593 -0.1668  0.5796
  114OSM    C1511813   1.094   2.263  36.178 -0.3881 -0.0641 -0.1326
  114OSM   H15A11814   1.049   2.195  36.249 -1.4067  0.1484 -0.5544
  114OSM   H15B11815   1.017   2.337  36.160 -2.8112 -2.4975 -0.4811
  114OSM   H15C11816   1.173   2.319  36.225 -1.3966  1.7707 -0.4825
  114OSM    C1411817   1.203   2.073  36.089 -0.8630 -0.3831 -0.2014
  114OSM   H14A11818   1.282   2.076  36.162 -0.1628  0.0594 -0.9706
  114OSM   H14B11819   1.243   2.031  35.998  4.2063  2.4185  0.3951
  114OSM   H14C11820   1.120   2.017  36.129 -1.0120  1.2080  1.8625
  114OSM    C1311821   1.011   2.177  35.964  0.2774 -0.5022  0.4242
  114OSM   H13A11822   0.942   2.115  36.020  1.4133 -1.3879  0.8804
  114OSM   H13B11823   1.044   2.115  35.882 -0.0162  1.7106 -1.4585
  114OSM   H13C11824   0.974   2.272  35.927  1.7504 -0.0241  0.0888
  114OSM    C1211825   1.216   2.300  35.979 -0.5858 -0.1923 -0.1910
  114OSM   H12A11826   1.285   2.339  36.052 -0.9662  0.6317 -0.2626
  114OSM   H12B11827   1.157   2.387  35.955 -1.5976 -1.5411 -3.0855
  114OSM    C1111828   1.281   2.257  35.843  0.6644 -0.4750 -0.5757
  114OSM   H11A11829   1.342   2.166  35.864  2.6426  0.6823 -1.0322
  114OSM   H11B11830   1.358   2.334  35.822 -0.1419  0.1483 -1.3310
  114OSM      P11831   1.181   2.112  35.638  0.1302  0.1426  0.1463
  114OSM    O1311832   1.083   2.013  35.692  0.1886  0.4891  0.4144
  114OSM    O1411833   1.162   2.166  35.502  0.0896 -0.2084  0.1486
  114OSM    O1111834   1.328   2.051  35.657 -0.4166  0.0368  0.0431
  114OSM    O1211835   1.187   2.235  35.732 -0.2557 -0.2059 -0.0091
  114OSM    C1S11836   1.442   2.129  35.605 -0.5305 -0.0176  0.2672
  114OSM    H1S11837   1.456   2.224  35.661 -2.2992  0.7591 -0.5441
  114OSM    H1T11838   1.417   2.175  35.507  1.0188  1.7598  0.6385
  114OSM     NF11839   1.682   2.120  35.582 -0.3601  0.0732 -0.0528
  114OSM    HNF11840   1.711   2.117  35.487 -0.1681 -5.3085 -0.1307
  114OSM    C2S11841   1.569   2.040  35.598  0.0552 -0.9683 -0.0013
  114OSM    H2S11842   1.583   1.994  35.698  1.0174 -0.8158 -0.0663
  114OSM    C3S11843   1.559   1.934  35.492  0.6969 -0.5332 -0.0644
  114OSM    H3S11844   1.582   1.993  35.400 -0.3812  4.7223  2.6433
  114OSM     O311845   1.430   1.874  35.483 -0.4753 -0.0321  0.2779
  114OSM    HO311846   1.371   1.935  35.527 -1.1515 -1.2690  1.1353
  114OSM    C4S11847   1.662   1.827  35.506  0.0904 -0.4713 -0.2375
  114OSM    H4S11848   1.651   1.760  35.593 -4.1594  1.9430  1.3402
  114OSM    C5S11849   1.752   1.792  35.413  0.1449  0.5475  0.0479
  114OSM    H5S11850   1.773   1.846  35.319  3.7461 -0.7823 -0.0690
  114OSM    C6S11851   1.841   1.671  35.433 -0.5098  0.3758 -0.2571
  114OSM    H6S11852   1.876   1.633  35.334  1.9929  1.4721  0.1180
  114OSM    H6T11853   1.785   1.588  35.481  0.2928 -0.9163 -1.4697
  114OSM    C7S11854   1.972   1.706  35.516  0.3063 -0.1343 -0.1072
  114OSM    H7S11855   2.024   1.613  35.546  0.8662  0.7376  1.7495
  114OSM    H7T11856   1.940   1.763  35.606  0.1556  0.7419 -0.7007
  114OSM    C8S11857   2.062   1.789  35.422  0.0612 -0.3132 -0.5674
  114OSM    H8S11858   2.010   1.867  35.362  0.2888  1.2141  1.1198
  114OSM    H8T11859   2.116   1.725  35.349  2.8392  0.0004  1.0335
  114OSM    C9S11860   2.160   1.882  35.502  0.1139  0.6232 -0.2695
  114OSM    H9S11861   2.094   1.942  35.569  0.0084 -0.8300  1.0062
  114OSM    H9T11862   2.206   1.959  35.438  0.0944  1.5595  0.8086
  114OSM   C10S11863   2.267   1.813  35.580  0.4469  0.1460  0.2852
  114OSM   H10S11864   2.294   1.710  35.549 -1.2152 -0.8927  2.0754
  114OSM   H10T11865   2.232   1.796  35.684  0.6387 -3.1758 -0.0624
  114OSM   C11S11866   2.401   1.897  35.602  0.8572 -0.1304  0.3414
  114OSM   H11S11867   2.450   1.867  35.697 -1.1051 -0.1196  1.4082
  114OSM   H11T11868   2.370   2.004  35.599  0.6229 -0.2116 -1.1988
  114OSM   C12S11869   2.501   1.881  35.486 -0.2070 -0.2502 -0.3403
  114OSM   H12S11870   2.451   1.915  35.392 -0.6802 -3.2475 -1.2960
  114OSM   H12T11871   2.515   1.772  35.466  0.1696  0.1539 -2.5564
  114OSM   C13S11872   2.631   1.952  35.527  0.0822 -0.6006 -0.3935
  114OSM   H13S11873   2.651   1.939  35.635 -0.0416  0.1341 -0.2750
  114OSM   H13T11874   2.617   2.059  35.501  3.3475  0.0179  0.0086
  114OSM   C14S11875   2.758   1.901  35.452 -0.4234  0.3821 -0.4952
  114OSM   H14S11876   2.725   1.908  35.347  0.9182 -1.3134 -1.0641
  114OSM   H14T11877   2.763   1.795  35.483 -6.2541  0.5194  2.2716
  114OSM   C15S11878   2.885   1.985  35.482  0.4370 -0.2254  0.2407
  114OSM   H15S11879   2.976   1.925  35.462  1.6723  0.3334  3.5405
  114OSM   H15T11880   2.895   2.010  35.590 -0.6417 -0.2619  0.3549
  114OSM   C16S11881   2.888   2.118  35.405 -0.4280  0.2363  0.0671
  114OSM   H16S11882   2.793   2.169  35.430 -0.9744  0.0384 -1.4748
  114OSM   H16T11883   2.887   2.106  35.294  1.1315  1.5795 -0.1369
  114OSM   C17S11884   3.011   2.193  35.453 -0.8873  0.1071 -0.6499
  114OSM   H17S11885   3.101   2.138  35.418 -0.8350  1.6768 -3.2659
  114OSM   H17T11886   3.009   2.210  35.563  1.5531  0.0913 -0.5412
  114OSM   C18S11887   3.009   2.337  35.396  0.1186  0.6675 -0.0990
  114OSM   H18S11888   3.003   2.345  35.285 -1.0406 -2.4038 -0.3384
  114OSM   H18T11889   3.096   2.397  35.430  0.9218 -0.4950 -0.0634
  114OSM   H18U11890   2.911   2.378  35.431 -0.9157 -0.9152 -0.9909
  114OSM    C1F11891   1.723   2.192  35.684 -0.1719 -0.4983 -0.1963
  114OSM     OF11892   1.684   2.172  35.794  1.1480 -0.0260 -0.5563
  114OSM    C2F11893   1.828   2.300  35.661 -0.3261  0.1196 -0.2924
  114OSM    H2F11894   1.822   2.370  35.747 -0.7299  0.1755 -0.3640
  114OSM    H2G11895   1.796   2.362  35.575 -0.5699  1.3101  0.6425
  114OSM    C3F11896   1.973   2.240  35.648 -0.2304 -0.2216  0.5432
  114OSM    H3F11897   1.980   2.193  35.548 -2.1640 -0.8714  0.6655
  114OSM    H3G11898   2.006   2.160  35.717 -3.1469 -2.2816 -0.2676
  114OSM    C4F11899   2.078   2.345  35.660  0.2044  0.1649 -0.0525
  114OSM    H4F11900   2.099   2.364  35.768 -2.6563 -1.0917  0.8150
  114OSM    H4G11901   2.041   2.427  35.596 -0.0778 -0.7796 -1.1123
  114OSM    C5F11902   2.206   2.301  35.585  0.3233  0.3498  0.2877
  114OSM    H5F11903   2.173   2.265  35.485 -1.3878  1.5560  0.3763
  114OSM    H5G11904   2.251   2.213  35.636  1.9489 -0.0004 -1.6270
  114OSM    C6F11905   2.321   2.402  35.562 -0.3491 -0.3571 -0.7157
  114OSM    H6F11906   2.312   2.482  35.640 -3.4663 -0.5898 -0.7184
  114OSM    H6G11907   2.314   2.468  35.473  3.5376  1.2049 -0.0705
  114OSM    C7F11908   2.451   2.324  35.573  0.6350 -0.2076 -0.2356
  114OSM    H7F11909   2.455   2.235  35.506  1.5925 -0.8132  0.5941
  114OSM    H7G11910   2.468   2.281  35.674  1.6749 -0.0085 -0.3190
  114OSM    C8F11911   2.578   2.403  35.537 -0.7854 -0.4558  0.4235
  114OSM    H8F11912   2.664   2.337  35.561  1.7679  1.5060 -2.6939
  114OSM    H8G11913   2.569   2.488  35.607 -1.9958 -1.5720  1.7039
  114OSM    C9F11914   2.580   2.441  35.390 -0.1847 -0.1375  0.3257
  114OSM    H9F11915   2.581   2.351  35.327 -1.8082 -0.5989  0.9070
  114OSM   C10F11916   2.576   2.558  35.327 -0.1049 -0.6336 -0.1434
  114OSM   H10F11917   2.575   2.570  35.217 -3.9947 -0.1341 -0.2032
  114OSM   C11F11918   2.580   2.696  35.388  0.9056  0.0205 -0.2497
  114OSM   H11F11919   2.512   2.694  35.476 -0.7970 -1.5599 -1.5177
  114OSM   H11G11920   2.533   2.771  35.320  0.4388 -0.6345 -0.6624
  114OSM   C12F11921   2.718   2.744  35.446 -0.4700 -0.6774 -0.5099
  114OSM   H12F11922   2.742   2.701  35.546  0.9112  0.8754 -0.1222
  114OSM   H12G11923   2.704   2.852  35.466 -0.8226 -0.7726 -0.2356
  114OSM   C13F11924   2.842   2.725  35.362  0.0896 -0.3027  0.4812
  114OSM   H13F11925   2.869   2.619  35.344  0.0149  0.0205 -1.6991
  114OSM   H13G11926   2.922   2.753  35.434  0.0557  0.2814  0.2954
  114OSM   C14F11927   2.848   2.799  35.225  0.8066 -0.3547 -0.2040
  114OSM   H14F11928   2.831   2.907  35.249 -1.7353 -0.3134 -1.8370
  114OSM   H14G11929   2.776   2.749  35.157  0.3498 -0.9755  0.7202
  114OSM   C15F11930   2.986   2.772  35.161  0.0897  0.5578 -0.3749
  114OSM   H15F11931   2.984   2.663  35.138 -0.0219  0.2677  0.9175
  114OSM   H15G11932   3.073   2.781  35.230 -0.8257  0.9038  0.7760
  114OSM   C16F11933   3.013   2.860  35.038 -0.0141  0.5610  0.0615
  114OSM   H16F11934   2.914   2.892  34.998  0.0413 -0.4324 -0.9101
  114OSM   H16G11935   3.052   2.787  34.964 -0.4739 -0.0490  0.4095
  114OSM   C17F11936   3.110   2.967  35.075 -0.1708  1.0311  0.5425
  114OSM   H17F11937   3.195   2.917  35.128  1.5543  2.6294 -0.5734
  114OSM   H17G11938   3.065   3.039  35.147 -1.9532  0.4210  0.0872
  114OSM   C18F11939   3.174   3.049  34.955  0.1849  0.4500 -0.1475
  114OSM   H18F11940   3.240   2.982  34.897 -0.5566  0.2943 -0.8241
  114OSM   H18G11941   3.232   3.132  35.000 -1.1004  0.0666  2.3852
  114OSM   H18H11942   3.093   3.089  34.890 -0.6128 -0.5718  0.1878
  115OSM      N11943   2.218   3.234  26.741  0.3002 -0.4042  0.2848
  115OSM    C1511944   2.144   3.213  26.870 -0.3959  0.0289 -0.1177
  115OSM   H15A11945   2.112   3.110  26.869 -1.1293  0.2130  1.1755
  115OSM   H15B11946   2.060   3.279  26.885 -1.2224 -0.7213 -1.2991
  115OSM   H15C11947   2.209   3.216  26.957 -0.4557  0.1452 -0.0769
  115OSM    C1411948   2.318   3.343  26.760  0.2860 -0.0084  0.4215
  115OSM   H14A11949   2.390   3.341  26.679 -1.9874 -0.1553 -1.6985
  115OSM   H14B11950   2.390   3.328  26.840 -0.1289 -3.7124  0.2992
  115OSM   H14C11951   2.273   3.441  26.764 -1.8827 -0.9440  0.1323
  115OSM    C1311952   2.289   3.117  26.689  0.1367  0.3437  0.4276
  115OSM   H13A11953   2.231   3.035  26.650  1.2597  0.1789 -0.9602
  115OSM   H13B11954   2.347   3.067  26.765 -1.0551 -0.9166  0.5337
  115OSM   H13C11955   2.362   3.140  26.612  0.7478 -0.8157  0.6429
  115OSM    C1211956   2.122   3.281  26.635 -0.4994 -0.2547 -0.2864
  115OSM   H12A11957   2.168   3.282  26.537 -1.2024  1.2696 -0.6266
  115OSM   H12B11958   2.094   3.382  26.661  0.0091 -0.0685 -0.4727
  115OSM    C1111959   1.990   3.201  26.622 -0.4658  0.0998 -0.3003
  115OSM   H11A11960   1.916   3.230  26.544  1.0159 -1.9739 -2.6209
  115OSM   H11B11961   1.928   3.209  26.714  2.2954 -0.7830  1.7481
  115OSM      P11962   1.955   2.948  26.680  0.0844 -0.1508 -0.0759
  115OSM    O1311963   2.002   2.822  26.621  0.0109 -0.2223  0.2180
  115OSM    O1411964   1.991   2.966  26.823  0.2927 -0.1126  0.8289
  115OSM    O1111965   1.809   2.979  26.642  0.5649 -0.5451 -0.4059
  115OSM    O1211966   2.019   3.062  26.592  0.3264  0.6668 -0.3830
  115OSM    C1S11967   1.764   2.956  26.509  0.4625  0.9319  0.5650
  115OSM    H1S11968   1.815   2.868  26.466  2.7844  2.3367  0.2385
  115OSM    H1T11969   1.794   3.047  26.452  2.3606  1.8038  2.7359
  115OSM     NF11970   1.573   2.875  26.374  0.5750  0.4312  0.1485
  115OSM    HNF11971   1.512   2.925  26.314 -2.2086 -0.2277  2.2091
  115OSM    C2S11972   1.610   2.932  26.503 -0.1992 -0.1957  0.4156
  115OSM    H2S11973   1.587   2.860  26.584 -0.0612 -0.9763 -0.2279
  115OSM    C3S11974   1.534   3.067  26.541  1.2633  0.7098 -0.2521
  115OSM    H3S11975   1.528   3.128  26.448  0.3327 -1.6501 -1.8310
  115OSM     O311976   1.588   3.139  26.650 -0.1144  0.0933 -0.7658
  115OSM    HO311977   1.672   3.093  26.659 -0.0266  0.3359 -0.2691
  115OSM    C4S11978   1.384   3.040  26.567  0.2232  0.3337  0.0532
  115OSM    H4S11979   1.320   3.031  26.478 -1.7524  0.4376  1.4022
  115OSM    C5S11980   1.316   3.024  26.681 -0.0867  0.4457 -0.4070
  115OSM    H5S11981   1.377   3.030  26.773  2.2082 -0.7183 -1.7567
  115OSM    C6S11982   1.167   3.003  26.687 -0.4351  0.3333 -0.5370
  115OSM    H6S11983   1.136   2.901  26.718 -0.8307  0.2045 -1.3408
  115OSM    H6T11984   1.122   3.007  26.586  0.3544 -1.4105 -1.0007
  115OSM    C7S11985   1.104   3.111  26.781 -0.3459  0.0595  0.2146
  115OSM    H7S11986   1.115   3.217  26.752 -1.8182  0.5713  1.3787
  115OSM    H7T11987   1.129   3.097  26.888 -1.0418  0.6057  0.4592
  115OSM    C8S11988   0.947   3.101  26.785 -0.4611  0.3370  0.4315
  115OSM    H8S11989   0.919   3.115  26.678  0.8751 -1.2345 -0.1612
  115OSM    H8T11990   0.887   3.178  26.838 -3.6764 -1.4606 -0.3201
  115OSM    C9S11991   0.899   2.970  26.839 -0.1586  1.1506 -0.8147
  115OSM    H9S11992   0.965   2.927  26.917 -1.7569  1.4134  0.7581
  115OSM    H9T11993   0.889   2.896  26.757 -1.2797 -1.2877  1.3863
  115OSM   C10S11994   0.761   2.990  26.908 -0.7523  0.2389  0.1929
  115OSM   H10S11995   0.753   3.074  26.981 -0.3751  0.8494 -0.4560
  115OSM   H10T11996   0.729   2.906  26.974 -3.6544  2.1389  1.4083
  115OSM   C11S11997   0.651   2.983  26.801 -0.5298  0.3677 -1.1700
  115OSM   H11S11998   0.653   2.876  26.771  1.4552 -0.8006  2.4924
  115OSM   H11T11999   0.670   3.041  26.708 -1.2965 -1.4097 -2.5081
  115OSM   C12S12000   0.509   3.007  26.858  0.3407  0.1613  0.1032
  115OSM   H12S12001   0.441   3.046  26.779 -0.7483  0.7655  1.3070
  115OSM   H12T12002   0.512   3.093  26.927  1.6517  1.2239 -1.2159
  115OSM   C13S12003   0.447   2.888  26.930 -0.5820 -0.2672  0.3153
  115OSM   H13S12004   0.497   2.885  27.029 -0.8501  0.8464  0.4941
  115OSM   H13T12005   0.478   2.798  26.872  0.4201 -0.4544  1.1200
  115OSM   C14S12006   0.298   2.903  26.948  0.0254  0.5116  0.5911
  115OSM   H14S12007   0.272   2.837  27.033 -0.3283 -0.5630 -0.3326
  115OSM   H14T12008   0.256   2.856  26.856  2.8601 -2.7441  0.7620
  115OSM   C15S12009   0.229   3.043  26.948 -0.1717  0.6196 -0.3310
  115OSM   H15S12010   0.272   3.108  26.868 -0.2457 -0.9582 -1.7107
  115OSM   H15T12011   0.246   3.095  27.044 -0.3324  1.7132 -0.8749
  115OSM   C16S12012   0.081   3.042  26.918  0.3002  0.4237 -0.0815
  115OSM   H16S12013   0.061   3.018  26.811  0.5772  0.2711 -0.1004
  115OSM   H16T12014   0.042   3.145  26.930 -1.8013 -0.2263 -0.8399
  115OSM   C17S12015   0.014   2.932  27.007 -0.1386  0.4902  0.1948
  115OSM   H17S12016   0.049   2.950  27.111  1.5876  2.2282 -0.6227
  115OSM   H17T12017   0.039   2.831  26.970  0.1798  0.5746  0.1792
  115OSM   C18S12018  -0.136   2.942  27.007  0.2163  0.6635 -0.4668
  115OSM   H18S12019  -0.166   3.036  27.056  2.5809  1.2206  0.0433
  115OSM   H18T12020  -0.175   2.871  27.083 -0.0578  0.5993 -0.6664
  115OSM   H18U12021  -0.180   2.929  26.905  0.0552  1.4503 -0.5023
  115OSM    C1F12022   1.604   2.752  26.338 -0.3583  0.6706 -0.2691
  115OSM     OF12023   1.658   2.677  26.425  0.1748  0.5452 -0.0561
  115OSM    C2F12024   1.583   2.715  26.195  0.3921 -0.0150 -0.0446
  115OSM    H2F12025   1.675   2.676  26.145  2.3038  2.1246  1.5951
  115OSM    H2G12026   1.555   2.806  26.137  2.6457  2.0055  1.8261
  115OSM    C3F12027   1.469   2.614  26.182  0.2413 -0.5946  0.4125
  115OSM    H3F12028   1.485   2.510  26.220  0.3449 -0.8931 -0.4412
  115OSM    H3G12029   1.474   2.605  26.072  0.9331 -1.8839  0.5265
  115OSM    C4F12030   1.337   2.665  26.231 -0.0700  0.0878 -0.7518
  115OSM    H4F12031   1.337   2.775  26.216  1.0992  0.2244  0.1601
  115OSM    H4G12032   1.329   2.645  26.340 -0.9493  1.2820 -0.5830
  115OSM    C5F12033   1.222   2.594  26.174 -0.4336  0.7833 -0.1088
  115OSM    H5F12034   1.216   2.616  26.065 -0.9602 -0.4813 -0.3524
  115OSM    H5G12035   1.135   2.640  26.225  1.1653  2.6265  1.0621
  115OSM    C6F12036   1.220   2.439  26.190  0.2708  0.3520 -0.2378
  115OSM    H6F12037   1.232   2.416  26.298  0.5156  3.0490  0.3800
  115OSM    H6G12038   1.298   2.394  26.124 -0.7937  0.2050 -1.4221
  115OSM    C7F12039   1.092   2.370  26.129 -0.0029 -0.3256 -0.3951
  115OSM    H7F12040   1.062   2.413  26.030  0.3716  0.9298  0.0162
  115OSM    H7G12041   1.015   2.384  26.208  3.8755 -3.0924  4.4090
  115OSM    C8F12042   1.113   2.215  26.110  1.0152 -0.0362 -0.5717
  115OSM    H8F12043   1.014   2.169  26.091 -0.8230  4.3044 -2.7919
  115OSM    H8G12044   1.142   2.165  26.205 -1.0482 -1.5085 -0.6384
  115OSM    C9F12045   1.190   2.175  25.996  0.1232 -0.3531 -0.4503
  115OSM    H9F12046   1.292   2.216  25.992 -0.0250  0.1692  0.7600
  115OSM   C10F12047   1.150   2.118  25.887 -0.5313 -0.3180 -0.2619
  115OSM   H10F12048   1.223   2.082  25.814 -0.7350 -3.0209  0.7571
  115OSM   C11F12049   1.008   2.075  25.854  0.9269 -0.4274  0.8429
  115OSM   H11F12050   0.928   2.104  25.925 -0.1984 -0.6981 -0.2712
  115OSM   H11G12051   1.007   1.965  25.840 -2.7893 -0.4546  0.1235
  115OSM   C12F12052   0.980   2.126  25.704 -0.3521  0.4314  0.5645
  115OSM   H12F12053   1.065   2.101  25.637 -0.1709  1.0659  0.5515
  115OSM   H12G12054   0.980   2.237  25.705 -0.0275  0.4320  1.0196
  115OSM   C13F12055   0.851   2.072  25.655  0.0304  0.3995  0.5796
  115OSM   H13F12056   0.771   2.136  25.696 -0.4393  1.1283 -1.3506
  115OSM   H13G12057   0.828   1.971  25.693  1.3513  0.0320  0.4739
  115OSM   C14F12058   0.822   2.075  25.506 -0.0711 -1.4528  0.4852
  115OSM   H14F12059   0.733   2.018  25.473  0.4617 -0.8857 -2.1674
  115OSM   H14G12060   0.913   2.017  25.475  1.6119  1.4225 -0.3112
  115OSM   C15F12061   0.813   2.215  25.448 -0.3606 -0.1457  0.1979
  115OSM   H15F12062   0.824   2.216  25.337 -2.2592  2.5560 -0.0572
  115OSM   H15G12063   0.893   2.289  25.470 -0.7613 -0.1580  1.8550
  115OSM   C16F12064   0.672   2.266  25.475  0.4152 -0.0700  0.1800
  115OSM   H16F12065   0.640   2.255  25.581 -0.3001 -0.9608 -0.1121
  115OSM   H16G12066   0.593   2.209  25.421 -0.5716 -0.4948  1.9799
  115OSM   C17F12067   0.664   2.416  25.452 -0.2938  0.1592 -0.8573
  115OSM   H17F12068   0.681   2.433  25.344  0.2545 -2.8285 -1.3479
  115OSM   H17G12069   0.746   2.450  25.518  2.0555 -3.3336 -1.6931
  115OSM   C18F12070   0.532   2.486  25.494  0.0793 -0.7007  0.8800
  115OSM   H18F12071   0.501   2.454  25.595  1.3321  1.2978  1.9831
  115OSM   H18G12072   0.447   2.451  25.432 -1.6924  1.3309  2.0513
  115OSM   H18H12073   0.529   2.597  25.483 -1.1418 -0.7729  0.2969
  116OSM      N12074   2.773   0.747  30.860 -0.1023 -0.7784  0.3656
  116OSM    C1512075   2.728   0.787  30.994  0.4880 -0.0432 -0.5068
  116OSM   H15A12076   2.640   0.848  31.003  2.0430  2.1576  1.0581
  116OSM   H15B12077   2.806   0.845  31.042 -0.6212  1.4172 -0.4274
  116OSM   H15C12078   2.721   0.698  31.054  2.4961 -0.9588 -1.5104
  116OSM    C1412079   2.884   0.642  30.880  0.7234  0.3083 -0.5136
  116OSM   H14A12080   2.968   0.688  30.929  0.2065 -0.2048  0.9029
  116OSM   H14B12081   2.911   0.597  30.785  1.0063  0.0410 -0.3114
  116OSM   H14C12082   2.859   0.559  30.945 -0.3919  0.8754 -0.1914
  116OSM    C1312083   2.659   0.670  30.797 -0.3788 -0.0460 -0.5495
  116OSM   H13A12084   2.565   0.724  30.804 -0.1575  0.9711 -3.6419
  116OSM   H13B12085   2.652   0.576  30.848  1.8425  0.7967  1.4955
  116OSM   H13C12086   2.683   0.659  30.692 -1.0687  0.7045 -0.8044
  116OSM    C1212087   2.813   0.869  30.777  0.8924  0.2819  0.5201
  116OSM   H12A12088   2.899   0.918  30.819 -0.4040  1.6440  1.7229
  116OSM   H12B12089   2.720   0.924  30.766 -0.3195 -1.1649  2.7767
  116OSM    C1112090   2.847   0.844  30.635  0.8845  0.4692  0.8060
  116OSM   H11A12091   2.772   0.789  30.574  1.1110  0.4665  0.5262
  116OSM   H11B12092   2.934   0.777  30.620  0.6387  0.2202  0.4752
  116OSM      P12093   2.845   0.992  30.423 -0.5787  0.0540  0.5018
  116OSM    O1312094   2.909   1.117  30.374  0.2506  0.6282  0.7802
  116OSM    O1412095   2.847   0.870  30.335  0.1998 -0.2528 -0.8703
  116OSM    O1112096   2.692   1.026  30.440  0.0646  0.0731 -0.2950
  116OSM    O1212097   2.887   0.965  30.571 -0.2112 -0.1845 -0.7252
  116OSM    C1S12098   2.646   1.133  30.521 -0.3677 -0.7261 -0.0187
  116OSM    H1S12099   2.658   1.227  30.463 -0.0468 -0.4333  0.5184
  116OSM    H1T12100   2.701   1.117  30.616 -1.1457 -1.1724  0.3726
  116OSM     NF12101   2.450   1.207  30.659 -0.8013 -0.0757 -0.7990
  116OSM    HNF12102   2.439   1.154  30.743  3.1481 -0.0965 -0.1106
  116OSM    C2S12103   2.493   1.117  30.549  0.0143 -0.2943 -0.7234
  116OSM    H2S12104   2.444   1.137  30.451 -1.0759 -2.4256 -0.6679
  116OSM    C3S12105   2.458   0.970  30.559 -0.5043 -0.2521 -1.2071
  116OSM    H3S12106   2.528   0.933  30.637  0.6696  0.6390 -1.8128
  116OSM     O312107   2.480   0.885  30.448 -0.7148 -0.0276  0.7486
  116OSM    HO312108   2.548   0.938  30.406 -1.5734  1.0048  0.6124
  116OSM    C4S12109   2.307   0.949  30.602 -0.6004  0.2132 -0.1358
  116OSM    H4S12110   2.294   0.920  30.707  0.5762 -2.0768 -0.5711
  116OSM    C5S12111   2.207   0.943  30.516 -0.1342  0.4195  0.7022
  116OSM    H5S12112   2.241   0.951  30.411  1.3799 -0.8356  1.0566
  116OSM    C6S12113   2.059   0.913  30.532  1.1548  0.1556  0.3397
  116OSM    H6S12114   2.026   0.823  30.476 -1.1252  1.7867 -1.1304
  116OSM    H6T12115   2.004   0.994  30.480  0.8858 -0.3157 -0.1193
  116OSM    C7S12116   2.022   0.892  30.671 -0.5355  0.2572 -0.0225
  116OSM    H7S12117   2.037   0.982  30.734 -0.1498  1.0721 -1.2473
  116OSM    H7T12118   2.078   0.805  30.710  2.8325  1.5267 -1.6369
  116OSM    C8S12119   1.876   0.853  30.695  0.7563 -0.3331 -0.1764
  116OSM    H8S12120   1.867   0.808  30.796  1.0168  1.8187  0.8663
  116OSM    H8T12121   1.856   0.778  30.616  0.4079 -0.6130  0.1761
  116OSM    C9S12122   1.775   0.964  30.697  0.2720  0.0139 -0.1744
  116OSM    H9S12123   1.802   1.037  30.618 -2.6150  2.2413  0.7338
  116OSM    H9T12124   1.800   1.013  30.794  1.6799 -1.2299  0.1224
  116OSM   C10S12125   1.634   0.915  30.669 -0.0032 -0.1177  0.3627
  116OSM   H10S12126   1.613   0.822  30.726  0.3295  0.1939  0.9983
  116OSM   H10T12127   1.645   0.888  30.562 -1.7635 -0.2507  0.1887
  116OSM   C11S12128   1.514   1.015  30.691 -1.1477 -0.1493  0.2752
  116OSM   H11S12129   1.412   0.981  30.662 -0.5482 -0.0914 -2.0926
  116OSM   H11T12130   1.526   1.103  30.623 -0.5787  0.0044  0.5679
  116OSM   C12S12131   1.505   1.064  30.841  0.7159 -0.4895  0.3198
  116OSM   H12S12132   1.573   1.143  30.879 -0.0762  0.4753 -0.2005
  116OSM   H12T12133   1.533   0.976  30.902  1.4982 -0.0603  0.5978
  116OSM   C13S12134   1.361   1.108  30.874  0.2777  0.2188 -0.3149
  116OSM   H13S12135   1.301   1.018  30.848 -1.1239  1.2250 -0.6905
  116OSM   H13T12136   1.340   1.187  30.799 -1.5679 -1.4710 -1.7035
  116OSM   C14S12137   1.335   1.149  31.022 -0.3566 -0.5274  0.8446
  116OSM   H14S12138   1.392   1.242  31.042  0.3437 -0.5749 -0.7776
  116OSM   H14T12139   1.389   1.070  31.077  2.0587  1.0485  0.8896
  116OSM   C15S12140   1.192   1.157  31.075 -0.4471  0.3984 -0.6854
  116OSM   H15S12141   1.117   1.144  30.994 -0.3504 -0.0093 -0.7144
  116OSM   H15T12142   1.158   1.253  31.118  0.2862 -0.2746  1.5859
  116OSM   C16S12143   1.167   1.055  31.187 -0.2847 -0.1316 -0.0694
  116OSM   H16S12144   1.260   1.043  31.246  0.1516 -1.5046 -0.9760
  116OSM   H16T12145   1.142   0.959  31.136  0.2140 -0.3061  0.0085
  116OSM   C17S12146   1.058   1.102  31.293 -0.5965  0.1808 -0.0476
  116OSM   H17S12147   1.098   1.202  31.320  0.2547 -0.8721  3.0804
  116OSM   H17T12148   1.065   1.047  31.389  1.0116  1.3081  0.5294
  116OSM   C18S12149   0.916   1.115  31.241 -0.3754  0.1223 -0.1575
  116OSM   H18S12150   0.857   1.161  31.323  1.4065 -0.7760  1.7427
  116OSM   H18T12151   0.872   1.016  31.218 -2.3218  0.1246  3.0279
  116OSM   H18U12152   0.921   1.178  31.150  0.3336 -1.8580 -1.5478
  116OSM    C1F12153   2.456   1.339  30.656  0.6392 -0.3675  0.5654
  116OSM     OF12154   2.497   1.396  30.559 -0.4077 -0.4760  0.2701
  116OSM    C2F12155   2.425   1.419  30.780  0.3979 -0.1920  0.3118
  116OSM    H2F12156   2.475   1.519  30.783  1.1522 -0.5900  1.6929
  116OSM    H2G12157   2.482   1.371  30.861  0.8536  1.6792  1.1661
  116OSM    C3F12158   2.273   1.441  30.813 -0.0444  0.1512 -0.2010
  116OSM    H3F12159   2.216   1.490  30.731 -1.7829 -0.3741  0.6396
  116OSM    H3G12160   2.277   1.519  30.892  1.4884  0.3977 -0.4828
  116OSM    C4F12161   2.203   1.321  30.882  0.2386 -0.5030 -0.1636
  116OSM    H4F12162   2.271   1.296  30.966 -1.5814 -0.2362  1.4780
  116OSM    H4G12163   2.206   1.228  30.822 -3.4680 -0.5060 -0.5691
  116OSM    C5F12164   2.056   1.350  30.923  0.0697 -0.2251 -0.5977
  116OSM    H5F12165   2.033   1.455  30.950  1.0059 -0.5227  1.5901
  116OSM    H5G12166   2.029   1.284  31.009 -0.5072  1.6941  0.7746
  116OSM    C6F12167   1.966   1.325  30.807  0.1644 -0.2823 -0.3694
  116OSM    H6F12168   1.987   1.224  30.765  0.6424 -1.0604  1.6057
  116OSM    H6G12169   1.990   1.396  30.726 -0.8806 -0.9027 -1.2509
  116OSM    C7F12170   1.814   1.334  30.832 -0.2879  0.5736  0.5998
  116OSM    H7F12171   1.782   1.241  30.883  1.8487 -0.6130 -0.0616
  116OSM    H7G12172   1.774   1.326  30.729 -1.3688 -2.5713  1.1747
  116OSM    C8F12173   1.772   1.470  30.890 -0.3286 -0.1263 -0.5390
  116OSM    H8F12174   1.829   1.543  30.828 -1.8125 -1.5898 -3.8616
  116OSM    H8G12175   1.810   1.471  30.994  0.4537  0.3631 -0.8225
  116OSM    C9F12176   1.621   1.496  30.883  0.0027 -0.0120  0.1248
  116OSM    H9F12177   1.576   1.464  30.788  0.2734  2.1837 -0.8172
  116OSM   C10F12178   1.544   1.561  30.973 -0.2659 -0.2316  0.4037
  116OSM   H10F12179   1.435   1.556  30.955 -0.1028  0.6031 -0.9717
  116OSM   C11F12180   1.582   1.615  31.101 -0.3518 -0.6590 -0.2939
  116OSM   H11F12181   1.688   1.646  31.100 -0.6652  0.4767 -0.8950
  116OSM   H11G12182   1.568   1.545  31.186  1.5008  1.9991  2.4070
  116OSM   C12F12183   1.502   1.740  31.141 -0.5479 -0.1622  0.1509
  116OSM   H12F12184   1.517   1.814  31.059 -0.4575 -1.8273 -1.3920
  116OSM   H12G12185   1.543   1.775  31.238 -0.7372 -0.9814  0.5339
  116OSM   C13F12186   1.350   1.721  31.165  0.8322 -0.2717  0.1032
  116OSM   H13F12187   1.317   1.626  31.119 -0.1983  0.4754 -0.7520
  116OSM   H13G12188   1.289   1.802  31.119  0.1486 -1.3323 -0.8899
  116OSM   C14F12189   1.306   1.697  31.305  0.1830 -0.6151 -0.2314
  116OSM   H14F12190   1.290   1.786  31.371  0.7885 -0.6641 -0.0154
  116OSM   H14G12191   1.380   1.636  31.361 -0.0547  0.8109  1.7717
  116OSM   C15F12192   1.176   1.616  31.313  0.5726  0.4536 -0.2613
  116OSM   H15F12193   1.137   1.623  31.417  1.4153  0.6692  0.0536
  116OSM   H15G12194   1.200   1.513  31.280  1.2268  0.7446 -0.7119
  116OSM   C16F12195   1.055   1.667  31.227 -0.0599 -0.1919  0.5669
  116OSM   H16F12196   1.069   1.665  31.117 -0.5003  1.6453  0.4482
  116OSM   H16G12197   1.051   1.776  31.245  0.1441 -0.0907  0.0310
  116OSM   C17F12198   0.917   1.606  31.256  0.8524 -0.3281  0.3824
  116OSM   H17F12199   0.835   1.672  31.218  0.5739 -1.2783 -0.7165
  116OSM   H17G12200   0.902   1.606  31.366  0.8232  1.9741  0.4277
  116OSM   C18F12201   0.904   1.457  31.211 -0.4099  0.3247 -0.5999
  116OSM   H18F12202   1.003   1.408  31.225 -0.8204 -0.1111  0.9324
  116OSM   H18G12203   0.870   1.448  31.105  0.4711  2.4904 -1.1301
  116OSM   H18H12204   0.835   1.407  31.282  1.8396 -1.8007  0.2480
  117OSM      N12205   1.204   2.058  22.353 -0.2350 -0.0270  0.3659
  117OSM    C1512206   1.058   2.034  22.333  0.1784  0.4809 -0.3990
  117OSM   H15A12207   1.002   2.074  22.417  0.2943 -1.3906  0.6455
  117OSM   H15B12208   1.032   1.929  22.344 -1.6928  0.7070 -2.0149
  117OSM   H15C12209   1.023   2.066  22.236  0.3725 -1.2593 -1.0789
  117OSM    C1412210   1.273   2.004  22.230 -0.8585  0.6113  0.4159
  117OSM   H14A12211   1.233   2.049  22.140 -2.9356  0.6121  1.2646
  117OSM   H14B12212   1.270   1.896  22.235 -0.3654  0.5945  0.3495
  117OSM   H14C12213   1.380   2.015  22.234  0.3501 -6.5789  1.1660
  117OSM    C1312214   1.234   2.201  22.368 -0.1307 -0.5683  0.2704
  117OSM   H13A12215   1.333   2.229  22.333  0.5120  0.8720  2.9648
  117OSM   H13B12216   1.245   2.232  22.471  0.8524  0.1554 -0.0333
  117OSM   H13C12217   1.166   2.260  22.308  1.7500 -1.2931 -2.8107
  117OSM    C1212218   1.263   1.983  22.478  0.4604  0.1049  0.3845
  117OSM   H12A12219   1.371   1.988  22.479  0.4714 -0.0642 -0.2213
  117OSM   H12B12220   1.227   1.882  22.466  2.0981 -0.2602 -2.0707
  117OSM    C1112221   1.209   2.039  22.610 -0.0574 -0.8466 -0.7457
  117OSM   H11A12222   1.220   2.148  22.623 -1.4718 -0.5873 -1.5483
  117OSM   H11B12223   1.288   1.995  22.675 -0.1633  0.3503  0.2316
  117OSM      P12224   1.033   1.862  22.688 -0.4975  0.4580 -0.5390
  117OSM    O1312225   0.887   1.850  22.731 -0.4517  0.4780 -0.0684
  117OSM    O1412226   1.086   1.770  22.590 -0.6733  0.0206  0.8928
  117OSM    O1112227   1.122   1.836  22.813 -0.1137 -0.3747  0.1438
  117OSM    O1212228   1.075   2.009  22.649 -0.1791  0.2749 -0.2721
  117OSM    C1S12229   1.110   1.920  22.926  0.7463  0.1753  0.3917
  117OSM    H1S12230   1.007   1.952  22.950  0.9802  0.5433  0.9531
  117OSM    H1T12231   1.175   2.010  22.917 -1.2772  1.5263 -1.5856
  117OSM     NF12232   1.138   1.919  23.173  0.2345  0.4057  0.0779
  117OSM    HNF12233   1.214   1.976  23.201 -0.4901  2.2719 -1.5166
  117OSM    C2S12234   1.155   1.841  23.050 -0.3503  0.3049 -0.5561
  117OSM    H2S12235   1.085   1.755  23.060 -0.4609  0.6002  1.9038
  117OSM    C3S12236   1.302   1.775  23.045 -0.1701 -0.2110  0.1617
  117OSM    H3S12237   1.365   1.866  23.040 -1.4755  0.6928 -0.5019
  117OSM     O312238   1.339   1.699  22.927 -0.0247  0.3788 -0.3160
  117OSM    HO312239   1.262   1.711  22.872 -1.1070  0.6424  1.1939
  117OSM    C4S12240   1.342   1.705  23.167  0.2676 -0.4914  0.1355
  117OSM    H4S12241   1.394   1.772  23.237 -1.7080  1.8202 -0.4712
  117OSM    C5S12242   1.324   1.573  23.197  0.6578 -0.1158  0.4829
  117OSM    H5S12243   1.259   1.517  23.129 -2.1236  0.5419  2.4408
  117OSM    C6S12244   1.379   1.487  23.307  0.0419  0.2402 -0.6104
  117OSM    H6S12245   1.457   1.427  23.255 -0.2720  0.9713 -1.9590
  117OSM    H6T12246   1.305   1.419  23.353  0.5394  0.7630  1.0459
  117OSM    C7S12247   1.435   1.554  23.437 -0.0765  0.3534 -0.2645
  117OSM    H7S12248   1.365   1.630  23.477  0.9069  0.6348  1.0105
  117OSM    H7T12249   1.532   1.600  23.410  0.3134  1.3893  2.5202
  117OSM    C8S12250   1.459   1.445  23.545  0.1564 -0.2087  0.1243
  117OSM    H8S12251   1.546   1.385  23.509  1.3231  1.5173 -0.0624
  117OSM    H8T12252   1.368   1.386  23.568  0.5399 -0.8318  0.0699
  117OSM    C9S12253   1.499   1.515  23.676 -0.0869 -0.2264  0.5825
  117OSM    H9S12254   1.440   1.607  23.695  4.2127  2.8028  0.5810
  117OSM    H9T12255   1.605   1.544  23.661  0.6044 -1.7445  2.2079
  117OSM   C10S12256   1.492   1.420  23.792 -0.8883 -0.6350 -0.0481
  117OSM   H10S12257   1.563   1.337  23.776 -0.1112 -0.6334  2.8921
  117OSM   H10T12258   1.389   1.379  23.805 -1.8036  0.6514 -2.5064
  117OSM   C11S12259   1.517   1.490  23.931 -0.4550  0.3588  0.4470
  117OSM   H11S12260   1.442   1.569  23.951  0.4835  1.4945 -0.3625
  117OSM   H11T12261   1.616   1.540  23.927 -0.0508 -0.4211  0.5273
  117OSM   C12S12262   1.525   1.397  24.052  0.9876  0.2268  0.2175
  117OSM   H12S12263   1.595   1.315  24.023 -0.4685 -0.6019 -1.0922
  117OSM   H12T12264   1.423   1.354  24.051  0.2513  1.7054 -3.1721
  117OSM   C13S12265   1.549   1.469  24.187  0.6125 -0.5505 -0.2528
  117OSM   H13S12266   1.455   1.522  24.215  2.0080  2.3814 -0.7900
  117OSM   H13T12267   1.638   1.534  24.179 -1.3423  2.3383 -0.2265
  117OSM   C14S12268   1.559   1.370  24.302 -0.2040 -0.1972 -0.0187
  117OSM   H14S12269   1.665   1.361  24.336 -0.1352  2.2633  0.6073
  117OSM   H14T12270   1.528   1.271  24.261 -1.2876  0.7760 -1.6863
  117OSM   C15S12271   1.489   1.411  24.430  0.5706  0.1981  0.1648
  117OSM   H15S12272   1.379   1.403  24.421  0.6597  1.3406 -3.4217
  117OSM   H15T12273   1.491   1.520  24.449  2.4084  0.2773 -0.3289
  117OSM   C16S12274   1.538   1.335  24.551  0.2556 -1.1990  0.3265
  117OSM   H16S12275   1.509   1.394  24.641 -0.9504  0.5116 -1.1268
  117OSM   H16T12276   1.648   1.327  24.557  0.2642 -0.3285  1.7770
  117OSM   C17S12277   1.490   1.188  24.562  0.7919 -0.7296  0.3204
  117OSM   H17S12278   1.535   1.140  24.651  1.1763  0.9473  1.0793
  117OSM   H17T12279   1.521   1.132  24.472  1.8269 -0.0424  0.2288
  117OSM   C18S12280   1.336   1.176  24.563 -0.7502 -0.5784  0.3338
  117OSM   H18S12281   1.278   1.231  24.487 -2.0884  1.6347  2.7963
  117OSM   H18T12282   1.300   1.214  24.661 -0.3369  1.0444 -0.1160
  117OSM   H18U12283   1.316   1.067  24.558  0.3632 -0.8083  0.6590
  117OSM    C1F12284   1.016   1.946  23.219 -0.2214  0.0099 -0.4426
  117OSM     OF12285   0.912   1.886  23.177 -0.7529  0.1615 -0.1618
  117OSM    C2F12286   1.008   2.059  23.320 -0.0168 -0.2007  0.5522
  117OSM    H2F12287   1.097   2.125  23.314  0.8761 -1.5197 -1.7757
  117OSM    H2G12288   1.004   2.014  23.422  0.1565  1.5163  1.3568
  117OSM    C3F12289   0.880   2.146  23.301  0.4501  0.5646  0.1188
  117OSM    H3F12290   0.796   2.075  23.313  2.0883 -1.1453  2.3908
  117OSM    H3G12291   0.890   2.174  23.194  0.3189 -0.9701 -0.3068
  117OSM    C4F12292   0.871   2.265  23.383 -0.6595 -0.1152  0.7459
  117OSM    H4F12293   0.774   2.317  23.380 -0.4987  0.3710  2.6707
  117OSM    H4G12294   0.930   2.345  23.332 -1.3126  0.8710  1.5009
  117OSM    C5F12295   0.890   2.268  23.533  0.1922 -0.6446 -0.0009
  117OSM    H5F12296   0.994   2.243  23.562 -0.1672  0.6151  2.6152
  117OSM    H5G12297   0.817   2.201  23.585 -3.1709  1.6928 -1.3248
  117OSM    C6F12298   0.851   2.406  23.601 -0.4177  1.4525 -0.6090
  117OSM    H6F12299   0.743   2.433  23.591  0.2588  3.5636 -2.9488
  117OSM    H6G12300   0.915   2.481  23.550  2.0143 -0.3993 -0.4747
  117OSM    C7F12301   0.889   2.416  23.752 -0.5149  0.0199  0.4118
  117OSM    H7F12302   0.890   2.524  23.778  0.9935 -0.3087  1.8929
  117OSM    H7G12303   0.993   2.378  23.760  0.0914  1.0315 -1.7851
  117OSM    C8F12304   0.794   2.340  23.841  0.2283 -0.6322  0.0410
  117OSM    H8F12305   0.815   2.231  23.840 -3.3979 -1.4569 -0.4406
  117OSM    H8G12306   0.688   2.358  23.814 -0.3815 -2.5465  0.9602
  117OSM    C9F12307   0.817   2.386  23.989  0.1073 -1.0210 -0.3026
  117OSM    H9F12308   0.765   2.478  24.020 -0.1383 -1.0068 -0.7526
  117OSM   C10F12309   0.891   2.328  24.083  0.3708  0.0910  0.2034
  117OSM   H10F12310   0.876   2.353  24.189  2.4059  0.1769  0.5098
  117OSM   C11F12311   0.983   2.215  24.063  0.1152 -0.1257  0.0945
  117OSM   H11F12312   1.028   2.214  23.961  0.4730 -2.9144  0.2160
  117OSM   H11G12313   0.922   2.124  24.078  1.4567 -0.8648  1.2467
  117OSM   C12F12314   1.101   2.229  24.161  0.7716  0.1764 -0.1867
  117OSM   H12F12315   1.163   2.317  24.138  1.5480  0.0404  1.2726
  117OSM   H12G12316   1.172   2.149  24.130 -2.1773 -2.7557 -0.0045
  117OSM   C13F12317   1.064   2.216  24.312  1.1604 -0.4969  0.1290
  117OSM   H13F12318   1.127   2.149  24.375 -1.9738 -2.0224  1.8965
  117OSM   H13G12319   0.959   2.181  24.324 -0.9561  4.5400 -1.1712
  117OSM   C14F12320   1.075   2.356  24.365  0.1724 -0.0172 -0.2817
  117OSM   H14F12321   0.985   2.420  24.347  0.1838  0.7019  1.8711
  117OSM   H14G12322   1.167   2.402  24.323  0.5409 -1.1340 -0.7094
  117OSM   C15F12323   1.080   2.353  24.517  0.2224 -0.3824  0.5091
  117OSM   H15F12324   1.169   2.292  24.542 -0.1240 -1.6661 -1.2133
  117OSM   H15G12325   0.994   2.293  24.555  0.8711  0.3816  3.5021
  117OSM   C16F12326   1.065   2.491  24.584 -0.4429 -0.3606  0.1864
  117OSM   H16F12327   0.980   2.549  24.544  0.4919  2.5188  2.0674
  117OSM   H16G12328   1.158   2.542  24.551 -1.4146  0.4677 -1.3762
  117OSM   C17F12329   1.055   2.476  24.735 -0.2655 -0.2308 -0.3299
  117OSM   H17F12330   0.954   2.443  24.765 -0.7135  0.1953 -1.3184
  117OSM   H17G12331   1.119   2.393  24.772  0.8136  0.6227 -0.2354
  117OSM   C18F12332   1.073   2.599  24.820 -0.7550  0.0368 -0.4387
  117OSM   H18F12333   1.061   2.552  24.920 -0.0265 -1.4483 -1.0213
  117OSM   H18G12334   0.997   2.678  24.801 -0.2169  1.0336  1.3337
  117OSM   H18H12335   1.174   2.639  24.797 -0.4760 -0.4548 -0.0752
  118OSM      N12336   3.283   0.372  30.523 -0.1921  0.0053 -0.1948
  118OSM    C1512337   3.332   0.502  30.582  0.6011 -0.3011 -0.4372
  118OSM   H15A12338   3.341   0.499  30.689 -1.1149  0.4792 -0.2400
  118OSM   H15B12339   3.259   0.579  30.562  0.6485  0.7510  2.8478
  118OSM   H15C12340   3.425   0.528  30.534 -0.4721  2.1039 -1.3757
  118OSM    C1412341   3.298   0.371  30.377 -0.8607  0.5865  0.6711
  118OSM   H14A12342   3.243   0.287  30.338 -1.5689  0.8705  1.0526
  118OSM   H14B12343   3.403   0.358  30.351 -0.6454 -0.4770  1.9269
  118OSM   H14C12344   3.259   0.463  30.337 -0.6849  1.0360  1.4954
  118OSM    C1312345   3.355   0.251  30.575 -0.3378 -0.0126  0.2225
  118OSM   H13A12346   3.452   0.235  30.530 -1.3818 -2.2475 -1.4411
  118OSM   H13B12347   3.303   0.164  30.538 -2.1801  1.0213  0.2679
  118OSM   H13C12348   3.349   0.245  30.683 -0.8899 -0.2569  0.1824
  118OSM    C1212349   3.141   0.351  30.559 -0.5722 -0.6787  0.6626
  118OSM   H12A12350   3.148   0.350  30.667  1.7114  0.8281  0.5762
  118OSM   H12B12351   3.109   0.255  30.520 -0.6240  0.6489 -2.9952
  118OSM    C1112352   3.034   0.463  30.532 -0.0145 -0.0218  0.0008
  118OSM   H11A12353   3.053   0.551  30.597  0.5252 -0.5174  0.5258
  118OSM   H11B12354   2.941   0.422  30.575  0.2914 -0.3729  0.3341
  118OSM      P12355   2.949   0.380  30.299 -0.1513  0.1127  0.3027
  118OSM    O1312356   2.973   0.415  30.157 -0.0955  0.5909 -0.3253
  118OSM    O1412357   2.979   0.245  30.340  0.1940 -0.1162  0.6491
  118OSM    O1112358   2.803   0.422  30.327 -0.0633 -0.1948 -0.2635
  118OSM    O1212359   3.024   0.479  30.393  0.2570 -0.8276 -0.5429
  118OSM    C1S12360   2.749   0.555  30.302  0.0421 -0.0005  1.1797
  118OSM    H1S12361   2.804   0.601  30.217  1.3213 -1.7153  1.0460
  118OSM    H1T12362   2.756   0.629  30.385 -0.8630  0.6387  0.7033
  118OSM     NF12363   2.527   0.658  30.237  0.8993  0.0171 -0.0491
  118OSM    HNF12364   2.490   0.722  30.304 -1.9479  2.8511 -3.8951
  118OSM    C2S12365   2.593   0.547  30.291 -0.1526  0.5109 -0.1401
  118OSM    H2S12366   2.574   0.459  30.225  4.5172  0.0490 -1.2369
  118OSM    C3S12367   2.541   0.500  30.435  0.1981 -0.0984 -0.4002
  118OSM    H3S12368   2.542   0.593  30.497 -4.1017  0.1936 -0.5254
  118OSM     O312369   2.624   0.389  30.492  0.1752 -0.7885 -0.0340
  118OSM    HO312370   2.694   0.387  30.426  1.8225  1.3511  1.4996
  118OSM    C4S12371   2.397   0.458  30.421  0.1436  0.4290 -0.1369
  118OSM    H4S12372   2.377   0.353  30.394  0.2350  1.1142 -3.1628
  118OSM    C5S12373   2.287   0.538  30.441 -0.1074 -0.2150 -0.2201
  118OSM    H5S12374   2.301   0.637  30.487 -0.4612  0.4796 -1.5632
  118OSM    C6S12375   2.141   0.493  30.433  0.1299  0.1346 -0.6680
  118OSM    H6S12376   2.069   0.567  30.391 -0.1472 -1.0615 -2.4060
  118OSM    H6T12377   2.102   0.471  30.534  0.4068  2.9059  0.1152
  118OSM    C7S12378   2.103   0.374  30.341 -0.8290 -0.0069 -0.8266
  118OSM    H7S12379   2.177   0.294  30.363 -3.2849 -1.9017  1.2624
  118OSM    H7T12380   2.093   0.392  30.232 -0.6103 -0.2014 -0.8806
  118OSM    C8S12381   1.972   0.305  30.388 -0.5895  0.5503 -0.7448
  118OSM    H8S12382   1.978   0.288  30.498  2.6501 -2.7079 -1.2326
  118OSM    H8T12383   1.968   0.201  30.348  0.8989  0.4625 -0.7115
  118OSM    C9S12384   1.840   0.365  30.351  0.1703 -0.3670 -0.6445
  118OSM    H9S12385   1.765   0.284  30.354 -0.5865  0.2936 -1.1644
  118OSM    H9T12386   1.854   0.403  30.247 -1.2686 -0.0783 -0.7540
  118OSM   C10S12387   1.795   0.480  30.446 -0.9501  0.7225  0.7330
  118OSM   H10S12388   1.709   0.538  30.405  0.4501  1.1270 -1.8488
  118OSM   H10T12389   1.872   0.559  30.461 -1.3830  1.6026 -1.3083
  118OSM   C11S12390   1.758   0.442  30.589  0.2405  1.1551  0.1089
  118OSM   H11S12391   1.723   0.528  30.651  1.5054 -0.1478  2.7771
  118OSM   H11T12392   1.847   0.394  30.635 -0.1002  0.8575  0.4637
  118OSM   C12S12393   1.645   0.340  30.612  0.9881 -0.2876  0.0936
  118OSM   H12S12394   1.670   0.235  30.586 -1.8597 -1.5946  2.1714
  118OSM   H12T12395   1.556   0.375  30.556  0.3891  0.5496  1.5290
  118OSM   C13S12396   1.589   0.339  30.756  0.1060  0.2243  0.4598
  118OSM   H13S12397   1.573   0.443  30.792  1.2597  0.8019 -0.6274
  118OSM   H13T12398   1.675   0.302  30.816  0.9579 -0.1691 -0.9683
  118OSM   C14S12399   1.483   0.238  30.768  0.4377  0.0504 -0.7488
  118OSM   H14S12400   1.511   0.139  30.727  0.6891 -0.2340  0.0872
  118OSM   H14T12401   1.397   0.272  30.707  0.2684 -1.3953 -1.3548
  118OSM   C15S12402   1.436   0.206  30.910 -0.0893  0.1905 -0.2829
  118OSM   H15S12403   1.522   0.160  30.962  0.6304  1.1812 -0.5676
  118OSM   H15T12404   1.355   0.131  30.904  0.2761 -0.1973 -0.4197
  118OSM   C16S12405   1.382   0.333  30.979  0.0918  0.7815 -0.1229
  118OSM   H16S12406   1.461   0.397  31.022 -0.0837  1.0893 -0.2562
  118OSM   H16T12407   1.327   0.297  31.068  2.7422  2.0329  2.1613
  118OSM   C17S12408   1.288   0.409  30.889 -0.2074  0.2435 -0.0058
  118OSM   H17S12409   1.214   0.337  30.848  0.8840  0.6148 -2.8503
  118OSM   H17T12410   1.345   0.457  30.806 -0.2901  1.0536  0.3884
  118OSM   C18S12411   1.222   0.528  30.966  0.3565 -0.8189  0.4081
  118OSM   H18S12412   1.138   0.566  30.904  0.4606 -0.1138  0.6830
  118OSM   H18T12413   1.286   0.616  30.989 -1.0690  0.8075 -1.4907
  118OSM   H18U12414   1.179   0.504  31.066 -1.2446 -0.0338 -0.0466
  118OSM    C1F12415   2.547   0.692  30.109  0.1212  0.3352 -0.2480
  118OSM     OF12416   2.614   0.619  30.036  0.0694 -0.4475  0.2905
  118OSM    C2F12417   2.486   0.823  30.069  0.3466 -0.7283 -0.4432
  118OSM    H2F12418   2.493   0.825  29.958 -0.8071  1.5476 -0.5267
  118OSM    H2G12419   2.552   0.908  30.096  3.1301 -2.3928 -1.5450
  118OSM    C3F12420   2.337   0.842  30.110 -0.5361 -0.0899 -0.1641
  118OSM    H3F12421   2.303   0.944  30.084  1.1818  0.3208 -0.8952
  118OSM    H3G12422   2.321   0.829  30.219 -0.7754 -2.0477 -0.3859
  118OSM    C4F12423   2.249   0.735  30.035 -0.1325 -0.4630 -0.6563
  118OSM    H4F12424   2.297   0.637  30.053 -2.4383 -1.5661 -0.2569
  118OSM    H4G12425   2.249   0.735  29.924  1.3004 -0.2725 -0.6779
  118OSM    C5F12426   2.106   0.742  30.081  0.3296 -0.1677 -0.3969
  118OSM    H5F12427   2.054   0.834  30.050  1.2304  1.7072  3.1007
  118OSM    H5G12428   2.091   0.757  30.190  1.8914  0.8258 -0.2829
  118OSM    C6F12429   2.028   0.617  30.034 -0.8313 -0.2456  0.1542
  118OSM    H6F12430   1.921   0.635  30.058 -0.6824 -1.5682  1.9981
  118OSM    H6G12431   2.060   0.532  30.097 -2.2483 -0.0162  1.2298
  118OSM    C7F12432   2.047   0.582  29.887 -0.1069 -0.0217 -0.3890
  118OSM    H7F12433   2.124   0.504  29.869 -2.3613 -2.7262  0.8883
  118OSM    H7G12434   2.069   0.671  29.825  0.5979  1.3595  1.7496
  118OSM    C8F12435   1.919   0.520  29.829  0.1823  0.1722  0.2286
  118OSM    H8F12436   1.833   0.589  29.835  0.5879  0.5783  2.2664
  118OSM    H8G12437   1.894   0.444  29.907  2.2351  1.0111  1.7819
  118OSM    C9F12438   1.952   0.454  29.698  0.5692  0.3809 -0.3235
  118OSM    H9F12439   1.994   0.353  29.693  0.6356  0.4697 -2.3127
  118OSM   C10F12440   1.926   0.507  29.575  0.8608 -0.0480  0.1231
  118OSM   H10F12441   1.960   0.457  29.483 -0.2495  2.4885 -1.7945
  118OSM   C11F12442   1.862   0.645  29.553 -0.0343  0.1885 -0.1152
  118OSM   H11F12443   1.920   0.705  29.479  1.5991 -0.8794  0.2442
  118OSM   H11G12444   1.870   0.702  29.648  1.2948 -0.1212 -0.0242
  118OSM   C12F12445   1.709   0.626  29.521  0.0037 -0.0588  0.5608
  118OSM   H12F12446   1.665   0.607  29.621 -1.0228  2.4433  0.6612
  118OSM   H12G12447   1.668   0.541  29.462 -1.5665  1.7494 -1.0704
  118OSM   C13F12448   1.646   0.756  29.474  0.1440  0.7626 -0.0942
  118OSM   H13F12449   1.706   0.761  29.380  0.4860  0.0802  0.0796
  118OSM   H13G12450   1.666   0.848  29.533  1.4431  1.6698 -1.8393
  118OSM   C14F12451   1.492   0.751  29.465 -0.0387  0.1995 -0.7510
  118OSM   H14F12452   1.457   0.646  29.455 -0.4046  0.2308  0.1373
  118OSM   H14G12453   1.448   0.808  29.380 -1.5855 -1.7927 -1.3688
  118OSM   C15F12454   1.428   0.814  29.593 -0.8081 -0.3314  0.1131
  118OSM   H15F12455   1.455   0.920  29.577  0.3421 -1.0308 -3.5151
  118OSM   H15G12456   1.475   0.779  29.687 -0.3251  0.3234  0.1157
  118OSM   C16F12457   1.275   0.810  29.595 -0.0654  0.4404  0.1777
  118OSM   H16F12458   1.240   0.830  29.699 -1.2826  0.7668 -0.2842
  118OSM   H16G12459   1.248   0.708  29.562 -0.8933  0.9913 -0.8948
  118OSM   C17F12460   1.204   0.901  29.490 -1.1491 -0.0705 -1.2399
  118OSM   H17F12461   1.253   0.888  29.391  2.4724 -4.1527  0.7718
  118OSM   H17G12462   1.214   1.004  29.530 -1.9536 -1.4613  3.1010
  118OSM   C18F12463   1.058   0.867  29.475 -0.3832 -0.7864 -0.0109
  118OSM   H18F12464   1.042   0.765  29.433 -1.5635 -0.4427 -0.4321
  118OSM   H18G12465   1.004   0.933  29.404 -0.1767 -2.1541 -1.5099
  118OSM   H18H12466   1.016   0.883  29.576 -0.9452 -0.1497 -0.3323
  119OSM      N12467   0.272   0.242  30.886  0.3575 -0.5375 -0.4632
  119OSM    C1512468   0.394   0.275  30.961 -0.2774 -0.2078  0.5017
  119OSM   H15A12469   0.428   0.190  31.019 -0.3516 -1.2739 -0.9708
  119OSM   H15B12470   0.370   0.361  31.022 -2.4291 -0.1978 -0.2741
  119OSM   H15C12471   0.478   0.315  30.907  0.6920 -1.1739  1.2482
  119OSM    C1412472   0.221   0.368  30.824 -0.5477 -0.4875  0.1473
  119OSM   H14A12473   0.114   0.358  30.811 -0.5207  0.7232 -1.1959
  119OSM   H14B12474   0.281   0.390  30.738  0.0365 -0.5401  0.5343
  119OSM   H14C12475   0.232   0.449  30.895  0.6828 -1.6986  1.4028
  119OSM    C1312476   0.297   0.137  30.776  0.0710 -0.5379 -0.3470
  119OSM   H13A12477   0.343   0.053  30.825 -1.5662 -1.5479 -0.4653
  119OSM   H13B12478   0.372   0.172  30.707  0.1804 -1.9762 -0.9886
  119OSM   H13C12479   0.209   0.114  30.717 -1.4009  0.3967  1.3694
  119OSM    C1212480   0.166   0.190  30.985 -0.6689  0.2570 -0.1036
  119OSM   H12A12481   0.136   0.270  31.050 -0.7564 -0.8686  1.2876
  119OSM   H12B12482   0.225   0.123  31.046 -0.9505 -0.2298 -0.3610
  119OSM    C1112483   0.042   0.113  30.926 -0.7733  1.3841  0.0507
  119OSM   H11A12484   0.002   0.042  31.001  2.4913 -0.8197 -0.1008
  119OSM   H11B12485   0.074   0.048  30.842 -2.6203  1.3572 -0.6857
  119OSM      P12486  -0.132   0.312  30.959 -0.2930  0.3696 -0.2347
  119OSM    O1312487  -0.027   0.413  30.982  0.6147 -0.2853  0.7527
  119OSM    O1412488  -0.243   0.364  30.885  1.0336  0.2845 -0.4373
  119OSM    O1112489  -0.182   0.247  31.088 -0.3834 -0.4174 -0.4682
  119OSM    O1212490  -0.065   0.188  30.881 -0.0827 -0.0835 -0.5527
  119OSM    C1S12491  -0.315   0.201  31.116 -0.2119 -0.5825  0.2933
  119OSM    H1S12492  -0.393   0.215  31.038  1.1002 -0.1170 -0.9916
  119OSM    H1T12493  -0.357   0.244  31.209 -1.2186 -1.2994  0.1910
  119OSM     NF12494  -0.460   0.001  31.177  0.2667 -0.2123  0.0380
  119OSM    HNF12495  -0.483  -0.022  31.271  2.8646  2.5294  1.5442
  119OSM    C2S12496  -0.325   0.045  31.152 -0.4918 -1.0947  0.1081
  119OSM    H2S12497  -0.301  -0.003  31.055 -0.1633  0.0021 -0.3715
  119OSM    C3S12498  -0.224   0.007  31.262 -0.4124  0.3791 -0.4047
  119OSM    H3S12499  -0.247   0.057  31.358 -0.6687  0.4196 -0.4879
  119OSM     O312500  -0.090   0.042  31.230 -0.3251 -0.0585  0.1736
  119OSM    HO312501  -0.095   0.105  31.158 -1.0504  0.9399  1.0701
  119OSM    C4S12502  -0.236  -0.146  31.295  0.0998  0.4091  1.2946
  119OSM    H4S12503  -0.335  -0.169  31.337 -0.6307 -1.0086 -1.0002
  119OSM    C5S12504  -0.155  -0.236  31.236  0.3905  0.4528  0.1957
  119OSM    H5S12505  -0.072  -0.211  31.168  0.7781 -2.1128 -0.3992
  119OSM    C6S12506  -0.172  -0.387  31.259  0.2122 -0.1331 -0.4743
  119OSM    H6S12507  -0.105  -0.426  31.338 -2.1604 -1.3056  1.0694
  119OSM    H6T12508  -0.154  -0.450  31.170 -2.6319 -0.5011 -0.8790
  119OSM    C7S12509  -0.311  -0.429  31.297 -0.0817  0.4333  0.1627
  119OSM    H7S12510  -0.390  -0.418  31.220  0.5876 -0.6619 -0.7178
  119OSM    H7T12511  -0.347  -0.367  31.382 -0.4354  2.5107 -1.4485
  119OSM    C8S12512  -0.316  -0.575  31.355 -0.0387  0.6735 -0.3029
  119OSM    H8S12513  -0.246  -0.587  31.440 -0.9569 -1.9651  0.1730
  119OSM    H8T12514  -0.276  -0.648  31.282 -1.4467 -0.0417 -0.4028
  119OSM    C9S12515  -0.457  -0.597  31.418 -0.2487  0.2259 -0.0766
  119OSM    H9S12516  -0.539  -0.591  31.344 -0.0471  0.6603 -0.2654
  119OSM    H9T12517  -0.475  -0.513  31.488 -2.2925 -1.1975  1.2108
  119OSM   C10S12518  -0.468  -0.738  31.491  0.1815 -0.1642 -0.2908
  119OSM   H10S12519  -0.376  -0.759  31.550 -0.0308  0.1596  0.1671
  119OSM   H10T12520  -0.475  -0.817  31.414 -1.0521  0.3447 -0.7273
  119OSM   C11S12521  -0.594  -0.747  31.584  0.3729 -0.4882  0.1260
  119OSM   H11S12522  -0.696  -0.735  31.541 -0.3054 -1.1608  1.5038
  119OSM   H11T12523  -0.581  -0.667  31.660  1.3332 -1.2099  0.7348
  119OSM   C12S12524  -0.604  -0.886  31.658  0.2363 -0.2158  0.8754
  119OSM   H12S12525  -0.514  -0.900  31.722  1.4323  1.1230 -0.4044
  119OSM   H12T12526  -0.602  -0.973  31.589  1.1557 -0.3655  1.0761
  119OSM   C13S12527  -0.722  -0.884  31.761 -0.3978 -0.3445 -0.2745
  119OSM   H13S12528  -0.818  -0.860  31.711  0.5339  0.4441 -1.7714
  119OSM   H13T12529  -0.700  -0.798  31.829 -1.8892  1.6698 -2.1899
  119OSM   C14S12530  -0.754  -1.016  31.826  0.4719  0.0385  0.0547
  119OSM   H14S12531  -0.686  -1.029  31.913 -0.1314 -0.6375  0.4436
  119OSM   H14T12532  -0.724  -1.100  31.760  0.7028  1.0625 -1.1683
  119OSM   C15S12533  -0.899  -1.005  31.877  0.5513  0.8944  0.6733
  119OSM   H15S12534  -0.933  -1.107  31.906  0.3626  0.2366 -1.6164
  119OSM   H15T12535  -0.971  -0.981  31.796 -2.1142  1.2167  2.9797
  119OSM   C16S12536  -0.909  -0.904  31.984 -0.0117 -0.2690 -0.2616
  119OSM   H16S12537  -0.895  -0.799  31.948 -1.4411  0.5099  1.2759
  119OSM   H16T12538  -0.837  -0.931  32.064 -1.1912 -1.3901  0.4485
  119OSM   C17S12539  -1.040  -0.907  32.062 -0.1471 -0.9166  0.2139
  119OSM   H17S12540  -1.051  -1.011  32.099  0.6404 -1.0552  0.0867
  119OSM   H17T12541  -1.117  -0.885  31.984  1.3100 -1.0386 -1.3204
  119OSM   C18S12542  -1.059  -0.812  32.183  0.0117 -0.1875  0.5077
  119OSM   H18S12543  -1.044  -0.704  32.159  2.6754  0.0429  2.7431
  119OSM   H18T12544  -0.973  -0.829  32.251 -0.4025 -0.4583  0.9762
  119OSM   H18U12545  -1.150  -0.834  32.244  0.1266 -0.2245  0.6653
  119OSM    C1F12546  -0.558  -0.007  31.092 -0.3891 -0.5622 -0.3205
  119OSM     OF12547  -0.536   0.010  30.977 -0.1478 -1.0149  0.4193
  119OSM    C2F12548  -0.694  -0.016  31.156 -0.5283  0.4677  0.6249
  119OSM    H2F12549  -0.716   0.056  31.237 -0.1951  0.8766  0.3595
  119OSM    H2G12550  -0.697  -0.114  31.207  1.2456 -0.2354 -0.4992
  119OSM    C3F12551  -0.810  -0.015  31.053 -0.5832  0.0330 -0.3801
  119OSM    H3F12552  -0.786  -0.088  30.972 -0.3471 -0.1072 -0.1860
  119OSM    H3G12553  -0.823   0.087  31.010 -1.1218 -0.7668 -2.1978
  119OSM    C4F12554  -0.943  -0.060  31.118 -0.1047 -0.5381  0.0005
  119OSM    H4F12555  -0.938  -0.162  31.163  1.2285 -0.6565 -0.3712
  119OSM    H4G12556  -1.003  -0.080  31.027 -3.8653  0.8846  1.9770
  119OSM    C5F12557  -1.023   0.035  31.201  0.2991 -0.1380 -0.5959
  119OSM    H5F12558  -1.035   0.135  31.156 -0.9195 -1.0534 -2.4219
  119OSM    H5G12559  -0.963   0.046  31.294 -2.5302 -1.0837  1.4573
  119OSM    C6F12560  -1.168  -0.008  31.249 -0.7199 -0.4253  0.1852
  119OSM    H6F12561  -1.150  -0.096  31.315 -0.0921 -1.3690 -1.1882
  119OSM    H6G12562  -1.228  -0.043  31.163 -3.1971  0.5925  1.4090
  119OSM    C7F12563  -1.235   0.106  31.332  0.1724 -0.1329 -0.9373
  119OSM    H7F12564  -1.258   0.191  31.265  3.5466  0.8707 -0.9758
  119OSM    H7G12565  -1.174   0.147  31.414 -0.2206 -0.0817 -0.6665
  119OSM    C8F12566  -1.365   0.060  31.401  0.2172 -0.7446  0.1417
  119OSM    H8F12567  -1.339  -0.005  31.487  0.7872 -0.2461  0.3458
  119OSM    H8G12568  -1.425  -0.006  31.334  0.2954 -1.8875  1.1618
  119OSM    C9F12569  -1.438   0.178  31.460  0.0463  0.8739  0.2532
  119OSM    H9F12570  -1.498   0.236  31.389 -0.6206  0.1339  0.2014
  119OSM   C10F12571  -1.437   0.232  31.581 -0.3275  0.0052 -1.0561
  119OSM   H10F12572  -1.496   0.322  31.603 -1.3291 -1.0268  0.7268
  119OSM   C11F12573  -1.373   0.167  31.702 -0.6815 -0.3117 -0.3786
  119OSM   H11F12574  -1.326   0.073  31.666 -2.1619 -1.2321  0.0033
  119OSM   H11G12575  -1.454   0.144  31.775 -0.2867 -0.3023  0.0663
  119OSM   C12F12576  -1.262   0.252  31.768 -0.4270 -0.7099 -0.0411
  119OSM   H12F12577  -1.325   0.342  31.789 -2.1950 -1.6681 -1.0295
  119OSM   H12G12578  -1.194   0.282  31.685  2.5396  1.5036  2.9122
  119OSM   C13F12579  -1.195   0.182  31.882 -0.9244  0.1363  1.0184
  119OSM   H13F12580  -1.180   0.076  31.853 -0.5144  0.6576 -0.8755
  119OSM   H13G12581  -1.262   0.174  31.969 -0.3121 -0.4265  1.4472
  119OSM   C14F12582  -1.077   0.260  31.930 -0.0415 -0.7993 -0.8358
  119OSM   H14F12583  -1.051   0.348  31.867  0.6423  0.6924  1.4001
  119OSM   H14G12584  -0.998   0.181  31.933  0.8268 -0.1055  4.6844
  119OSM   C15F12585  -1.079   0.315  32.080  0.4540  0.0705  0.0926
  119OSM   H15F12586  -0.974   0.337  32.109  1.2660 -1.2787 -1.6512
  119OSM   H15G12587  -1.126   0.230  32.134 -0.5461  0.2809 -0.4342
  119OSM   C16F12588  -1.155   0.448  32.102 -0.3117 -0.3820  0.2570
  119OSM   H16F12589  -1.256   0.451  32.055  0.7211  0.8574 -2.0849
  119OSM   H16G12590  -1.097   0.518  32.038 -1.5822 -1.0207 -1.6810
  119OSM   C17F12591  -1.157   0.495  32.247 -0.0444  0.0478 -0.0455
  119OSM   H17F12592  -1.173   0.604  32.264  0.4099  0.2657 -0.9607
  119OSM   H17G12593  -1.054   0.489  32.289 -0.2464  0.9338  0.6123
  119OSM   C18F12594  -1.251   0.408  32.336  0.5174  1.0334  0.0761
  119OSM   H18F12595  -1.238   0.299  32.322 -0.5771  0.8963  0.0125
  119OSM   H18G12596  -1.358   0.423  32.308 -0.1214 -1.6251  0.7844
  119OSM   H18H12597  -1.238   0.432  32.444  2.4435  1.3423 -0.1893
  120OSM      N12598   3.083   2.487  30.334 -0.4919 -0.0242  0.2437
  120OSM    C1512599   3.002   2.375  30.401 -0.8809  0.7950 -0.0446
  120OSM   H15A12600   2.939   2.318  30.335 -0.6707  2.7334 -2.0324
  120OSM   H15B12601   2.931   2.411  30.474 -1.0334  1.6071 -0.5738
  120OSM   H15C12602   3.069   2.307  30.452  0.1256  0.2009 -2.0538
  120OSM    C1412603   3.006   2.569  30.256  0.3321 -0.3230 -1.0733
  120OSM   H14A12604   3.076   2.636  30.208  1.0287  1.3244  2.0015
  120OSM   H14B12605   2.937   2.629  30.314  1.2700 -1.5276  1.3864
  120OSM   H14C12606   2.955   2.509  30.181 -0.3730 -0.3964 -0.5504
  120OSM    C1312607   3.142   2.578  30.441  0.4518  0.4924  0.4475
  120OSM   H13A12608   3.066   2.631  30.497 -0.4136  0.0205 -0.2564
  120OSM   H13B12609   3.210   2.646  30.392  2.9737 -3.0475 -1.3586
  120OSM   H13C12610   3.203   2.525  30.512  1.2115 -0.6897 -1.0208
  120OSM    C1212611   3.187   2.417  30.253  0.1233  0.1113  0.1482
  120OSM   H12A12612   3.233   2.496  30.196  0.4304 -0.6229 -0.6498
  120OSM   H12B12613   3.142   2.366  30.169  0.7994  0.0203 -0.1687
  120OSM    C1112614   3.295   2.324  30.316 -0.6871 -0.0283 -0.3847
  120OSM   H11A12615   3.323   2.396  30.396 -1.2962  1.2397 -1.2849
  120OSM   H11B12616   3.381   2.297  30.252  1.0317  2.3150  0.7950
  120OSM      P12617   3.187   2.085  30.281  0.2948 -0.6787  0.1800
  120OSM    O1312618   3.232   2.114  30.140  0.1909 -0.1742 -0.5120
  120OSM    O1412619   3.234   1.958  30.338 -0.2931  0.3066 -0.0066
  120OSM    O1112620   3.029   2.090  30.286  0.1127  0.1806  0.0203
  120OSM    O1212621   3.224   2.207  30.372 -0.4423 -0.0894 -0.0582
  120OSM    C1S12622   2.952   2.033  30.397 -0.2049  0.2312  0.5022
  120OSM    H1S12623   2.970   2.070  30.500 -0.3467  0.3804  0.4742
  120OSM    H1T12624   2.967   1.923  30.408 -1.5188  0.2070  2.9392
  120OSM     NF12625   2.740   1.979  30.481  0.1392 -0.2751 -0.0775
  120OSM    HNF12626   2.730   1.880  30.480 -0.6909 -0.2374  1.5521
  120OSM    C2S12627   2.801   2.042  30.374  0.8432 -0.0980  0.9649
  120OSM    H2S12628   2.773   2.149  30.365 -0.6968 -0.6506 -2.6205
  120OSM    C3S12629   2.770   1.980  30.235  0.4052 -0.3253  0.9837
  120OSM    H3S12630   2.818   1.880  30.237  0.3117 -0.3682  2.9205
  120OSM     O312631   2.833   2.043  30.124 -0.4886  0.0449 -0.5499
  120OSM    HO312632   2.908   2.093  30.158 -1.1006  1.2127 -0.8371
  120OSM    C4S12633   2.628   1.946  30.209 -0.5089 -0.4887 -0.4566
  120OSM    H4S12634   2.595   1.845  30.238 -0.5931 -0.7687 -1.4989
  120OSM    C5S12635   2.535   2.036  30.165 -0.6709  0.5729  0.0545
  120OSM    H5S12636   2.568   2.141  30.166 -1.3972  0.8073  1.4903
  120OSM    C6S12637   2.390   1.996  30.145 -0.4031  0.9350 -0.1897
  120OSM    H6S12638   2.379   1.967  30.038 -0.0075  0.1445 -0.0230
  120OSM    H6T12639   2.336   2.092  30.155 -0.2153  1.2227 -1.7479
  120OSM    C7S12640   2.335   1.883  30.243  0.6303 -0.5057  0.3612
  120OSM    H7S12641   2.357   1.910  30.348  0.8250 -0.0915  0.2137
  120OSM    H7T12642   2.382   1.787  30.214 -1.7088 -1.8199  0.6901
  120OSM    C8S12643   2.185   1.864  30.244  0.5722 -0.6796 -0.4057
  120OSM    H8S12644   2.147   1.846  30.141  0.5647 -0.9098 -0.3626
  120OSM    H8T12645   2.146   1.963  30.279  0.4422 -1.7751  2.9367
  120OSM    C9S12646   2.138   1.749  30.335 -0.1174  0.1563 -0.5472
  120OSM    H9S12647   2.196   1.663  30.296  1.5187  0.9928 -0.0773
  120OSM    H9T12648   2.031   1.735  30.312 -0.5980  2.7505 -0.2643
  120OSM   C10S12649   2.170   1.784  30.483  0.4901 -0.3641 -0.3590
  120OSM   H10S12650   2.178   1.894  30.498  0.5835 -0.6701  2.2485
  120OSM   H10T12651   2.272   1.746  30.508  1.4660  1.9784 -0.4762
  120OSM   C11S12652   2.060   1.730  30.577 -0.3334  0.6164  0.2080
  120OSM   H11S12653   2.105   1.717  30.678  0.2591 -0.0041 -0.1194
  120OSM   H11T12654   2.030   1.631  30.536  1.7776  0.4359 -1.0675
  120OSM   C12S12655   1.943   1.829  30.577 -0.5424 -0.4221  0.5269
  120OSM   H12S12656   1.915   1.860  30.474  1.5818 -1.0967 -0.2911
  120OSM   H12T12657   1.987   1.920  30.623  0.7425 -0.0398 -1.3861
  120OSM   C13S12658   1.825   1.785  30.654 -0.0040  0.4963  0.5602
  120OSM   H13S12659   1.843   1.806  30.762  1.3221  0.9893  0.2591
  120OSM   H13T12660   1.816   1.674  30.655  2.5878  0.2222  0.4607
  120OSM   C14S12661   1.708   1.875  30.616 -1.3048  0.2359  0.1855
  120OSM   H14S12662   1.695   1.864  30.506 -1.0150  0.3990  0.1336
  120OSM   H14T12663   1.725   1.984  30.630  1.4308  0.2033 -1.9895
  120OSM   C15S12664   1.583   1.835  30.693 -0.4452 -0.1702 -0.5049
  120OSM   H15S12665   1.603   1.836  30.802 -0.3295  0.2553 -0.5265
  120OSM   H15T12666   1.549   1.730  30.682 -0.7640 -0.4451  2.3755
  120OSM   C16S12667   1.447   1.907  30.657 -0.6547 -0.2965  0.5740
  120OSM   H16S12668   1.359   1.848  30.690 -0.6782 -1.2927 -1.1504
  120OSM   H16T12669   1.440   1.922  30.547  0.9420 -1.3833  0.2835
  120OSM   C17S12670   1.434   2.047  30.710  0.6418 -0.7048 -0.3615
  120OSM   H17S12671   1.518   2.105  30.666 -0.6484  0.8038 -0.9515
  120OSM   H17T12672   1.456   2.038  30.818  1.4311 -2.8505 -0.6551
  120OSM   C18S12673   1.299   2.117  30.674 -0.4022  0.4881 -0.2300
  120OSM   H18S12674   1.216   2.061  30.723 -0.0826 -1.1099 -1.4505
  120OSM   H18T12675   1.283   2.115  30.564 -0.6043  1.0668 -0.2174
  120OSM   H18U12676   1.315   2.222  30.705  1.8810  0.6137 -1.6356
  120OSM    C1F12677   2.731   2.056  30.592 -0.4110  0.9258 -0.0474
  120OSM     OF12678   2.753   2.178  30.592 -0.1388  0.0637  0.2043
  120OSM    C2F12679   2.675   1.988  30.720  0.5064 -0.4027  0.1262
  120OSM    H2F12680   2.660   2.051  30.810 -0.9923  0.1625 -0.4838
  120OSM    H2G12681   2.748   1.908  30.746  1.0592  0.0671  0.0398
  120OSM    C3F12682   2.530   1.931  30.702  0.5503  0.5370 -0.5022
  120OSM    H3F12683   2.525   1.873  30.608  1.0149 -1.3303  0.5753
  120OSM    H3G12684   2.465   2.020  30.687  1.0468  1.4724  2.3306
  120OSM    C4F12685   2.478   1.866  30.833  0.0222  0.2551  0.2539
  120OSM    H4F12686   2.493   1.943  30.911 -0.6849  1.0566 -0.3929
  120OSM    H4G12687   2.542   1.776  30.850  0.3581  0.4015 -0.2170
  120OSM    C5F12688   2.337   1.816  30.835 -0.7539  0.2454  0.1098
  120OSM    H5F12689   2.330   1.740  30.915 -0.3008 -0.7147 -0.7371
  120OSM    H5G12690   2.320   1.766  30.737  2.2609 -0.8203  0.0331
  120OSM    C6F12691   2.233   1.922  30.856 -0.4511 -0.7544 -0.0058
  120OSM    H6F12692   2.170   1.928  30.764 -0.6579 -0.5065  0.1511
  120OSM    H6G12693   2.282   2.021  30.867  1.3682 -1.7475  1.2334
  120OSM    C7F12694   2.160   1.903  30.990 -0.4609 -0.0955  1.1853
  120OSM    H7F12695   2.234   1.908  31.073 -0.4907 -1.2054  1.2850
  120OSM    H7G12696   2.110   1.805  31.007  0.1455 -0.4242  1.1036
  120OSM    C8F12697   2.067   2.020  31.025  0.2593  0.0539  0.0512
  120OSM    H8F12698   2.109   2.120  31.002  0.7546  0.0575  0.9200
  120OSM    H8G12699   2.043   2.006  31.133 -1.7832  0.4600 -0.3081
  120OSM    C9F12700   1.948   2.011  30.937  0.5290  0.2873 -0.5959
  120OSM    H9F12701   1.976   1.964  30.841 -1.5661 -1.4253 -0.4570
  120OSM   C10F12702   1.819   2.059  30.948  0.2183 -0.9442  0.4082
  120OSM   H10F12703   1.753   2.032  30.864  0.4023 -1.5994  0.4750
  120OSM   C11F12704   1.753   2.141  31.056 -0.2486 -0.1627 -0.1502
  120OSM   H11F12705   1.744   2.249  31.031 -0.7650 -0.0132  0.6360
  120OSM   H11G12706   1.819   2.137  31.146  3.0193 -1.0905 -2.4225
  120OSM   C12F12707   1.617   2.077  31.082 -0.4771  0.0628  0.2695
  120OSM   H12F12708   1.644   1.994  31.150 -0.6419 -0.2081  0.0077
  120OSM   H12G12709   1.562   2.047  30.990 -1.0708  3.2751 -0.5635
  120OSM   C13F12710   1.519   2.168  31.160 -0.0486  0.5078 -0.5762
  120OSM   H13F12711   1.516   2.269  31.114 -0.6693  0.4905 -0.5913
  120OSM   H13G12712   1.559   2.183  31.262 -0.1667 -1.1528 -0.2501
  120OSM   C14F12713   1.384   2.098  31.176  0.2205 -0.1674  0.0790
  120OSM   H14F12714   1.399   1.995  31.136 -0.9761  0.6078 -2.5630
  120OSM   H14G12715   1.311   2.146  31.109 -1.1037 -2.4764 -0.2534
  120OSM   C15F12716   1.325   2.099  31.318  0.0505  0.4757 -0.1993
  120OSM   H15F12717   1.404   2.046  31.377 -1.5601 -0.1640  1.4934
  120OSM   H15G12718   1.234   2.035  31.314 -0.6519  1.4684 -0.3888
  120OSM   C16F12719   1.276   2.235  31.377  0.3167  0.2597  0.4624
  120OSM   H16F12720   1.186   2.268  31.320  0.6305 -0.6103 -0.5531
  120OSM   H16G12721   1.354   2.312  31.357 -1.9384  1.9962 -2.5780
  120OSM   C17F12722   1.234   2.223  31.524  0.2500 -0.4565  0.2635
  120OSM   H17F12723   1.312   2.161  31.573  2.1549 -0.0263 -2.0448
  120OSM   H17G12724   1.133   2.177  31.530 -1.6964  3.3962  0.4740
  120OSM   C18F12725   1.213   2.358  31.595  0.6457  0.2084 -0.4237
  120OSM   H18F12726   1.136   2.416  31.540 -0.7749 -1.3209 -0.1513
  120OSM   H18G12727   1.311   2.411  31.600 -0.7563  2.8933  2.1644
  120OSM   H18H12728   1.186   2.347  31.703  0.3997 -2.4259 -0.6879
  121OSM      N12729   1.927   3.075  22.566  0.0510 -0.6309  0.2394
  121OSM    C1512730   2.075   3.052  22.557 -0.6071  0.8395 -0.2784
  121OSM   H15A12731   2.103   2.961  22.507 -1.3548  0.8372 -0.7115
  121OSM   H15B12732   2.116   3.036  22.656  1.6981  1.2517 -1.1057
  121OSM   H15C12733   2.129   3.131  22.508  0.8214  1.9820  2.8487
  121OSM    C1412734   1.896   3.148  22.691 -0.3412 -0.1494 -0.2224
  121OSM   H14A12735   1.792   3.175  22.702 -1.0639 -2.7157 -0.1718
  121OSM   H14B12736   1.947   3.243  22.699  0.6742 -0.5550 -1.5826
  121OSM   H14C12737   1.934   3.088  22.773 -1.1675 -0.8767 -0.3551
  121OSM    C1312738   1.887   3.161  22.445  0.6473  0.0012 -0.6990
  121OSM   H13A12739   1.951   3.247  22.445 -0.1399  0.6816  1.6951
  121OSM   H13B12740   1.787   3.195  22.468  0.0941 -2.5779  1.2346
  121OSM   H13C12741   1.890   3.109  22.350 -0.6672 -0.3532 -0.5793
  121OSM    C1212742   1.855   2.948  22.570  0.4903  0.2195  0.8805
  121OSM   H12A12743   1.749   2.969  22.581  0.3161 -0.3206  0.2666
  121OSM   H12B12744   1.883   2.898  22.662 -0.2237  2.1837  2.2499
  121OSM    C1112745   1.862   2.854  22.448 -0.1009  0.1321  0.4120
  121OSM   H11A12746   1.832   2.907  22.354  1.4408 -0.4956 -0.4846
  121OSM   H11B12747   1.789   2.772  22.460 -0.3247  0.2672  0.0163
  121OSM      P12748   2.044   2.672  22.480 -0.4023 -0.4635  0.5071
  121OSM    O1312749   1.964   2.567  22.412  0.2611  0.0560 -0.2481
  121OSM    O1412750   2.190   2.658  22.469  0.9736  0.2485 -0.2280
  121OSM    O1112751   1.999   2.686  22.633  0.1539  0.3740  0.5479
  121OSM    O1212752   1.994   2.809  22.423  0.3365 -0.1096  0.7647
  121OSM    C1S12753   2.103   2.690  22.736  0.4623  0.2790 -0.1948
  121OSM    H1S12754   2.182   2.759  22.699  1.4697 -0.0507  1.2698
  121OSM    H1T12755   2.145   2.588  22.750  0.4789 -0.0723 -2.3864
  121OSM     NF12756   2.151   2.764  22.964 -0.0006 -0.3399  0.2547
  121OSM    HNF12757   2.203   2.709  23.030  2.4814  2.3455  0.7737
  121OSM    C2S12758   2.046   2.729  22.875  0.4820  0.0530  0.3642
  121OSM    H2S12759   1.989   2.819  22.845  1.0178  0.1727 -0.3436
  121OSM    C3S12760   1.938   2.631  22.927 -0.7114 -0.3209 -0.4014
  121OSM    H3S12761   1.993   2.539  22.957 -0.8376 -0.0181  0.7816
  121OSM     O312762   1.846   2.585  22.827  0.0386 -0.1170 -0.1219
  121OSM    HO312763   1.902   2.597  22.749  1.5246 -0.0922  0.9062
  121OSM    C4S12764   1.875   2.684  23.057  0.2737  0.0502  0.5865
  121OSM    H4S12765   1.926   2.657  23.151 -0.1191 -1.4832  0.3796
  121OSM    C5S12766   1.751   2.742  23.057  0.2778 -0.1722  0.1110
  121OSM    H5S12767   1.692   2.754  22.965 -0.0329 -3.2648 -0.1747
  121OSM    C6S12768   1.675   2.773  23.177 -0.3411  0.1502  0.0532
  121OSM    H6S12769   1.582   2.712  23.173 -0.3157 -0.0378  1.7834
  121OSM    H6T12770   1.638   2.877  23.165  2.0593  0.9605 -0.8921
  121OSM    C7S12771   1.734   2.752  23.317 -0.0812 -0.6824 -0.2009
  121OSM    H7S12772   1.815   2.827  23.329  0.1563 -0.9696  0.0075
  121OSM    H7T12773   1.781   2.653  23.334  2.1319  0.5667  1.6172
  121OSM    C8S12774   1.627   2.774  23.419  0.4801 -0.0459 -0.7531
  121OSM    H8S12775   1.553   2.692  23.420 -0.3549  0.6843  0.2957
  121OSM    H8T12776   1.566   2.861  23.387  2.1142  0.6744 -2.0794
  121OSM    C9S12777   1.673   2.799  23.565 -0.2568 -0.0349  0.2054
  121OSM    H9S12778   1.782   2.822  23.566 -0.3150  0.2336  0.6752
  121OSM    H9T12779   1.663   2.697  23.607 -0.2904  0.4058  1.2965
  121OSM   C10S12780   1.582   2.880  23.643 -0.7885  0.7894 -0.9853
  121OSM   H10S12781   1.483   2.830  23.644 -2.2406  3.5032 -1.3708
  121OSM   H10T12782   1.570   2.981  23.598  1.8547  1.1334 -1.0983
  121OSM   C11S12783   1.627   2.907  23.791 -0.1994 -0.5690 -0.2554
  121OSM   H11S12784   1.702   2.988  23.796 -0.8135 -0.0718  3.1033
  121OSM   H11T12785   1.676   2.814  23.829 -2.8250 -2.1525 -0.4389
  121OSM   C12S12786   1.519   2.963  23.878  0.4106 -0.5063 -0.3297
  121OSM   H12S12787   1.440   2.886  23.889  0.4296 -0.3042  1.4716
  121OSM   H12T12788   1.478   3.058  23.838 -1.3701 -0.8553  0.5631
  121OSM   C13S12789   1.566   3.013  24.017 -0.2453  0.0882  0.0912
  121OSM   H13S12790   1.643   3.092  24.008 -1.9716  1.8421  0.0221
  121OSM   H13T12791   1.609   2.934  24.082 -0.1182  0.5107  0.5354
  121OSM   C14S12792   1.462   3.090  24.102  0.9275  0.0874  0.0692
  121OSM   H14S12793   1.388   3.016  24.138 -1.2916  2.1975  0.0960
  121OSM   H14T12794   1.415   3.160  24.030  2.4851  0.2011 -0.8794
  121OSM   C15S12795   1.519   3.178  24.217  0.0034  0.0015  0.8041
  121OSM   H15S12796   1.618   3.217  24.186 -1.0033  1.1078 -1.3475
  121OSM   H15T12797   1.524   3.122  24.312  0.2277 -1.9200 -0.2856
  121OSM   C16S12798   1.440   3.309  24.230  0.0073 -0.5267 -0.3771
  121OSM   H16S12799   1.339   3.284  24.269 -0.3910  2.0054  0.4133
  121OSM   H16T12800   1.429   3.365  24.135  0.1934  1.2377  0.5974
  121OSM   C17S12801   1.508   3.406  24.324 -0.3145  0.0221  0.5037
  121OSM   H17S12802   1.450   3.500  24.329  0.4134  0.5451 -0.5800
  121OSM   H17T12803   1.608   3.423  24.278 -0.3823 -1.7619 -0.4105
  121OSM   C18S12804   1.523   3.359  24.470  0.5280 -0.2799 -0.1403
  121OSM   H18S12805   1.427   3.321  24.511  1.2544 -0.2123  1.7176
  121OSM   H18T12806   1.558   3.451  24.522 -0.5721  0.0008  0.1180
  121OSM   H18U12807   1.599   3.281  24.494  2.1316  1.0133 -0.8064
  121OSM    C1F12808   2.213   2.886  22.944 -0.3221  0.9866  0.2994
  121OSM     OF12809   2.163   2.968  22.870 -0.0244  0.2377 -0.4977
  121OSM    C2F12810   2.343   2.904  23.005 -0.1414 -0.1384  0.4176
  121OSM    H2F12811   2.338   2.928  23.114  2.2697 -1.2827  0.8501
  121OSM    H2G12812   2.378   2.985  22.937 -2.8196  0.0395 -0.8723
  121OSM    C3F12813   2.447   2.788  22.997 -0.1254  0.8716 -0.4166
  121OSM    H3F12814   2.455   2.754  22.891 -0.2412 -1.1777  0.1895
  121OSM    H3G12815   2.433   2.694  23.054 -0.4340  0.2698 -1.4504
  121OSM    C4F12816   2.596   2.822  23.031 -0.1885  0.3813 -0.5738
  121OSM    H4F12817   2.609   2.901  23.109  0.5642 -2.4209  2.3562
  121OSM    H4G12818   2.635   2.868  22.938  1.2090  0.8282  0.1984
  121OSM    C5F12819   2.693   2.706  23.062  0.6193  0.2965  0.3988
  121OSM    H5F12820   2.800   2.736  23.063  1.1698 -1.4001 -1.1770
  121OSM    H5G12821   2.698   2.625  22.986  0.6646  1.0631 -0.4245
  121OSM    C6F12822   2.673   2.634  23.195  0.4809  0.4548  0.1758
  121OSM    H6F12823   2.764   2.573  23.215 -0.2325 -0.8765 -0.4608
  121OSM    H6G12824   2.590   2.567  23.165  1.1002  0.3695 -1.4888
  121OSM    C7F12825   2.643   2.727  23.310  0.2059 -0.3285 -0.1477
  121OSM    H7F12826   2.628   2.659  23.396  0.5993  2.0136  1.9015
  121OSM    H7G12827   2.548   2.782  23.294  0.8908  0.3938 -2.1205
  121OSM    C8F12828   2.754   2.832  23.354 -0.1383  0.0158 -0.3478
  121OSM    H8F12829   2.717   2.895  23.438 -0.2181 -2.1784  1.3421
  121OSM    H8G12830   2.778   2.888  23.262  0.6978 -2.1447 -1.5085
  121OSM    C9F12831   2.884   2.765  23.395 -0.1365  0.4836  0.2778
  121OSM    H9F12832   2.925   2.693  23.322 -1.2436 -0.4172  0.5128
  121OSM   C10F12833   2.960   2.781  23.505 -0.2258  0.1701 -0.0921
  121OSM   H10F12834   3.051   2.722  23.525 -1.7564 -1.3844  3.1997
  121OSM   C11F12835   2.916   2.871  23.616 -0.4800  0.0433  0.6280
  121OSM   H11F12836   2.866   2.962  23.577  0.3796  0.0977 -0.3968
  121OSM   H11G12837   2.995   2.915  23.681  0.6088 -0.3424 -0.3847
  121OSM   C12F12838   2.809   2.805  23.713 -0.3822  0.0265  0.3315
  121OSM   H12F12839   2.865   2.717  23.750  0.7864 -0.2753 -1.9354
  121OSM   H12G12840   2.717   2.762  23.667  1.6902 -0.8766 -3.4351
  121OSM   C13F12841   2.780   2.888  23.839  0.4253  0.1278  0.7263
  121OSM   H13F12842   2.706   2.832  23.900  0.0936  0.4139  0.5892
  121OSM   H13G12843   2.739   2.988  23.813  1.8661  1.1778  2.3230
  121OSM   C14F12844   2.898   2.898  23.937  0.5977  0.0389  0.0165
  121OSM   H14F12845   2.974   2.958  23.883  0.5467  0.9566  0.9246
  121OSM   H14G12846   2.931   2.796  23.967  1.4269 -0.0908 -1.2558
  121OSM   C15F12847   2.878   2.974  24.069 -0.0506  0.1139  0.1813
  121OSM   H15F12848   2.836   3.075  24.045 -1.7130 -0.5412  0.1804
  121OSM   H15G12849   2.978   2.983  24.116 -1.1229 -1.5580  3.0615
  121OSM   C16F12850   2.775   2.914  24.167 -0.6268  0.2062 -0.2147
  121OSM   H16F12851   2.673   2.912  24.124 -0.3502  0.0138 -0.8773
  121OSM   H16G12852   2.783   2.967  24.264 -0.8843 -1.6459  0.8633
  121OSM   C17F12853   2.801   2.763  24.198  0.0185 -0.0848 -0.2140
  121OSM   H17F12854   2.910   2.762  24.220  0.0535  0.5968 -0.3345
  121OSM   H17G12855   2.778   2.703  24.108 -2.1342 -1.1274  0.9502
  121OSM   C18F12856   2.722   2.707  24.315 -0.1707 -1.2243  0.5817
  121OSM   H18F12857   2.613   2.706  24.293 -0.3727  0.1757  1.3841
  121OSM   H18G12858   2.744   2.777  24.399  1.4594  0.5433 -1.2281
  121OSM   H18H12859   2.757   2.603  24.332 -1.4562 -2.2964 -2.5849
  122OSM      N12860   2.440   0.454  27.874  0.0460  0.1135 -0.4480
  122OSM    C1512861   2.376   0.570  27.814  0.1122 -0.1855  0.3016
  122OSM   H15A12862   2.289   0.549  27.753  0.5056 -1.5854  0.1658
  122OSM   H15B12863   2.435   0.616  27.736  0.5417 -0.6873  0.3258
  122OSM   H15C12864   2.360   0.650  27.884  2.3686  0.5287  0.0862
  122OSM    C1412865   2.571   0.493  27.936 -0.5724  0.0200 -0.2027
  122OSM   H14A12866   2.647   0.502  27.859  0.8911 -3.4811  0.6446
  122OSM   H14B12867   2.614   0.421  28.004  0.0996  1.9832  1.5665
  122OSM   H14C12868   2.564   0.587  27.988  0.0897  0.7294 -1.3587
  122OSM    C1312869   2.345   0.390  27.975  0.0864 -0.3995 -0.5869
  122OSM   H13A12870   2.391   0.303  28.021 -1.3592 -1.1477 -0.4908
  122OSM   H13B12871   2.248   0.360  27.940  0.0990 -1.0232 -0.1189
  122OSM   H13C12872   2.335   0.460  28.057 -0.6048 -1.7775  0.5530
  122OSM    C1212873   2.463   0.358  27.762 -0.7146 -0.6467 -0.7378
  122OSM   H12A12874   2.367   0.357  27.712 -0.5527  0.6820 -1.1200
  122OSM   H12B12875   2.480   0.261  27.806  0.0574 -0.4006 -0.4779
  122OSM    C1112876   2.569   0.388  27.654 -0.6556 -0.6025  0.2683
  122OSM   H11A12877   2.564   0.490  27.611 -0.2898 -0.7874 -0.2322
  122OSM   H11B12878   2.565   0.315  27.570  0.1190 -1.2587  0.7796
  122OSM      P12879   2.772   0.244  27.768  0.5507 -0.3296 -0.1769
  122OSM    O1312880   2.913   0.272  27.798 -0.0436 -0.6110  0.0920
  122OSM    O1412881   2.692   0.185  27.880  0.1914 -0.1194  0.3115
  122OSM    O1112882   2.765   0.149  27.637  0.2400 -0.0406 -0.0957
  122OSM    O1212883   2.704   0.379  27.711  0.1317 -0.2682 -0.2727
  122OSM    C1S12884   2.796   0.203  27.503 -0.3993 -0.1908 -0.3618
  122OSM    H1S12885   2.804   0.312  27.487 -0.1121 -0.5739 -3.7232
  122OSM    H1T12886   2.715   0.176  27.432 -0.5531 -1.0441  0.1262
  122OSM     NF12887   2.939   0.184  27.294 -0.3622 -0.7395 -0.2373
  122OSM    HNF12888   2.950   0.110  27.227  2.2255 -0.2762 -0.4210
  122OSM    C2S12889   2.918   0.138  27.429 -0.4638  0.2702 -0.4393
  122OSM    H2S12890   3.008   0.156  27.492  0.7500 -3.6289 -0.8121
  122OSM    C3S12891   2.901  -0.018  27.434 -0.9674  1.2923  0.0846
  122OSM    H3S12892   2.827  -0.053  27.359 -1.1483 -1.6720  1.5180
  122OSM     O312893   2.857  -0.076  27.559 -0.1022  0.2250 -0.3244
  122OSM    HO312894   2.823   0.005  27.598  2.3977  1.5290 -0.6459
  122OSM    C4S12895   3.038  -0.074  27.408  0.7215 -0.4025 -0.3118
  122OSM    H4S12896   3.055  -0.097  27.301  1.6017 -0.4985 -0.1575
  122OSM    C5S12897   3.134  -0.109  27.488  0.2761  0.1834 -0.0458
  122OSM    H5S12898   3.124  -0.100  27.597  1.9877 -0.3139  0.1804
  122OSM    C6S12899   3.268  -0.179  27.450  0.9655 -0.2862 -0.3824
  122OSM    H6S12900   3.344  -0.100  27.433 -0.3853  1.4620  1.2229
  122OSM    H6T12901   3.255  -0.236  27.355 -0.3124  2.4746 -1.9860
  122OSM    C7S12902   3.320  -0.271  27.559 -0.0985 -0.2595  0.6850
  122OSM    H7S12903   3.237  -0.330  27.602  1.2819 -1.4803  1.7474
  122OSM    H7T12904   3.379  -0.219  27.637  1.8161 -2.0115  0.5198
  122OSM    C8S12905   3.417  -0.377  27.499 -0.6569 -0.3111 -0.2828
  122OSM    H8S12906   3.352  -0.428  27.425 -1.2188 -0.2996  0.1896
  122OSM    H8T12907   3.438  -0.450  27.580 -0.9899  0.0702  0.1544
  122OSM    C9S12908   3.554  -0.327  27.451  0.4519 -0.2578 -0.5667
  122OSM    H9S12909   3.605  -0.289  27.542  0.7552 -0.1342 -0.7859
  122OSM    H9T12910   3.534  -0.259  27.366 -2.3400 -0.9855 -0.5969
  122OSM   C10S12911   3.652  -0.425  27.390  0.9613  1.2730 -0.5714
  122OSM   H10S12912   3.648  -0.425  27.279 -0.7846 -1.0624 -0.5903
  122OSM   H10T12913   3.614  -0.524  27.425 -1.8756  3.2071  2.5616
  122OSM   C11S12914   3.799  -0.410  27.431 -0.6550 -0.4374 -0.2239
  122OSM   H11S12915   3.802  -0.391  27.540  0.9984  0.7727 -0.4397
  122OSM   H11T12916   3.849  -0.322  27.384 -2.9292  0.0843 -1.8222
  122OSM   C12S12917   3.875  -0.537  27.392 -0.3988 -0.2653  0.3358
  122OSM   H12S12918   3.867  -0.557  27.283  1.5821 -3.0796  0.6260
  122OSM   H12T12919   3.840  -0.632  27.437  2.1004 -0.5345  1.8688
  122OSM   C13S12920   4.023  -0.530  27.427 -0.8009  0.6081  0.2383
  122OSM   H13S12921   4.035  -0.538  27.537 -0.1326 -0.9695  0.0722
  122OSM   H13T12922   4.070  -0.433  27.399 -0.0502  0.3528  0.6039
  122OSM   C14S12923   4.098  -0.644  27.348 -0.3633  0.3380 -0.9812
  122OSM   H14S12924   4.100  -0.614  27.241  0.3903  4.0784 -0.0893
  122OSM   H14T12925   4.049  -0.741  27.368 -2.2665  1.0757 -1.8404
  122OSM   C15S12926   4.242  -0.641  27.406 -0.2863  0.1549 -0.7118
  122OSM   H15S12927   4.254  -0.668  27.513 -2.5926  0.3166 -0.3457
  122OSM   H15T12928   4.260  -0.532  27.402  0.1036  0.1567  0.6481
  122OSM   C16S12929   4.351  -0.734  27.339 -0.0172 -0.6826  0.4656
  122OSM   H16S12930   4.380  -0.679  27.247 -1.9939  1.2492  0.9137
  122OSM   H16T12931   4.301  -0.826  27.303  1.0986  0.3067 -4.2104
  122OSM   C17S12932   4.479  -0.759  27.421  0.0962  0.9478 -0.5306
  122OSM   H17S12933   4.451  -0.829  27.503  1.5233 -0.4870 -1.1965
  122OSM   H17T12934   4.496  -0.663  27.474 -0.7552  0.5477  0.5021
  122OSM   C18S12935   4.599  -0.804  27.340 -0.8875  0.8167 -0.1304
  122OSM   H18S12936   4.640  -0.717  27.284  0.8935  0.7763  1.0244
  122OSM   H18T12937   4.571  -0.874  27.259  0.9463 -1.3952  1.0358
  122OSM   H18U12938   4.676  -0.842  27.411 -0.4244  3.2257  0.7823
  122OSM    C1F12939   2.985   0.310  27.276  0.0841  0.2423  0.8030
  122OSM     OF12940   3.017   0.375  27.371 -0.2152  0.3455  0.0027
  122OSM    C2F12941   3.022   0.345  27.136  0.6886  0.1281  0.6910
  122OSM    H2F12942   2.931   0.352  27.072 -0.0832 -0.7099  1.6615
  122OSM    H2G12943   3.084   0.259  27.102  2.1592  1.2662  0.3996
  122OSM    C3F12944   3.094   0.476  27.122 -0.1635  0.3215 -0.3745
  122OSM    H3F12945   3.042   0.558  27.177  0.6941 -0.0092  0.9688
  122OSM    H3G12946   3.084   0.513  27.017 -1.0121  2.6053  0.4400
  122OSM    C4F12947   3.247   0.481  27.154  0.2577 -0.5130 -0.2550
  122OSM    H4F12948   3.276   0.451  27.257 -0.8705  1.3155  0.6447
  122OSM    H4G12949   3.265   0.591  27.155 -0.7043 -0.3474 -0.0870
  122OSM    C5F12950   3.344   0.405  27.057  0.5380  0.5322  0.0202
  122OSM    H5F12951   3.419   0.475  27.015 -1.7732  2.9936 -0.3254
  122OSM    H5G12952   3.278   0.370  26.975 -0.1656 -0.0182  0.8034
  122OSM    C6F12953   3.407   0.277  27.122  0.7962  0.1062  0.1923
  122OSM    H6F12954   3.475   0.301  27.207  1.2170 -2.2573  0.5745
  122OSM    H6G12955   3.475   0.228  27.049 -0.6685 -1.6859 -0.0243
  122OSM    C7F12956   3.313   0.166  27.160  0.2244 -0.0472 -0.2779
  122OSM    H7F12957   3.240   0.139  27.080  0.4231  2.6898 -1.5041
  122OSM    H7G12958   3.266   0.195  27.256 -2.2127 -0.3830 -1.2887
  122OSM    C8F12959   3.393   0.030  27.199  0.5441 -0.8675  0.3406
  122OSM    H8F12960   3.326  -0.053  27.231 -3.1203  2.6401  2.8575
  122OSM    H8G12961   3.444   0.069  27.290 -1.7008 -0.8966  1.6820
  122OSM    C9F12962   3.496  -0.022  27.101  0.4652  0.7693  0.3761
  122OSM    H9F12963   3.447  -0.088  27.027  0.0112  0.1378  1.2189
  122OSM   C10F12964   3.630  -0.012  27.090  0.0555 -0.2696  0.1068
  122OSM   H10F12965   3.694  -0.070  27.021  1.2127  0.6185  0.4000
  122OSM   C11F12966   3.709   0.085  27.168 -0.4147  0.1026 -0.4201
  122OSM   H11F12967   3.649   0.154  27.230 -1.3842 -0.4327 -0.7477
  122OSM   H11G12968   3.766   0.152  27.100  2.1610  0.3363  1.7896
  122OSM   C12F12969   3.821   0.030  27.260 -0.1349 -1.0682  0.6454
  122OSM   H12F12970   3.765  -0.029  27.335 -0.5276 -0.9103  0.4756
  122OSM   H12G12971   3.886   0.111  27.300  0.8247 -2.4758  2.0563
  122OSM   C13F12972   3.920  -0.070  27.197  0.4490 -0.6024 -0.2802
  122OSM   H13F12973   3.933  -0.041  27.090  0.5822 -0.9885 -0.3699
  122OSM   H13G12974   3.867  -0.167  27.194 -0.5507 -0.2476  2.6399
  122OSM   C14F12975   4.044  -0.098  27.277 -0.6851 -0.4573  0.0088
  122OSM   H14F12976   4.005  -0.155  27.365  0.8204  0.6893  1.4882
  122OSM   H14G12977   4.096  -0.008  27.316 -1.8390  1.0629 -1.7813
  122OSM   C15F12978   4.146  -0.183  27.199  0.0448 -0.3554  0.2826
  122OSM   H15F12979   4.177  -0.112  27.119 -1.1481 -0.5948 -0.4112
  122OSM   H15G12980   4.092  -0.266  27.148 -0.3152 -1.3740  2.2267
  122OSM   C16F12981   4.266  -0.230  27.280  0.2340  0.4172  0.2182
  122OSM   H16F12982   4.241  -0.290  27.370 -1.0603  2.3254  1.2151
  122OSM   H16G12983   4.315  -0.132  27.299 -0.8435  0.8114  1.1470
  122OSM   C17F12984   4.360  -0.316  27.196 -0.0330 -0.3494  0.2102
  122OSM   H17F12985   4.419  -0.259  27.121 -0.8011  0.2009  0.0203
  122OSM   H17G12986   4.304  -0.396  27.143 -0.9420  0.8851 -0.7486
  122OSM   C18F12987   4.465  -0.375  27.298 -0.2278  0.0114 -0.3919
  122OSM   H18F12988   4.523  -0.450  27.239  0.8647  0.0563  0.5816
  122OSM   H18G12989   4.418  -0.419  27.388 -2.6545 -1.1404 -2.1081
  122OSM   H18H12990   4.539  -0.297  27.327 -0.6693  0.7296 -1.1627
  123OSM      N12991   3.131   0.211  29.918 -0.2596  0.4272 -0.5594
  123OSM    C1512992   3.009   0.234  29.835  0.1916  0.0938 -0.4293
  123OSM   H15A12993   2.941   0.152  29.818 -3.3515  3.0480 -1.6483
  123OSM   H15B12994   3.036   0.257  29.733 -0.9842  0.3960 -0.6841
  123OSM   H15C12995   2.952   0.314  29.880  0.4301 -1.4716  3.0235
  123OSM    C1412996   3.220   0.122  29.847  0.5105 -0.0754  0.4875
  123OSM   H14A12997   3.308   0.097  29.905  1.1729 -0.0230 -0.4650
  123OSM   H14B12998   3.267   0.163  29.759  2.1979  0.1368  1.4453
  123OSM   H14C12999   3.184   0.022  29.826  0.9070  0.0871 -1.1655
  123OSM    C1313000   3.196   0.341  29.943 -0.2637  0.6130 -0.2204
  123OSM   H13A13001   3.275   0.323  30.015 -1.5207 -2.8820  0.4990
  123OSM   H13B13002   3.124   0.411  29.984 -0.6141  0.1853 -0.0947
  123OSM   H13C13003   3.224   0.384  29.848 -0.9399  2.4609  0.3728
  123OSM    C1213004   3.084   0.150  30.044  0.7082  0.1576 -0.4058
  123OSM   H12A13005   3.016   0.221  30.089  2.3837  1.4268  0.2225
  123OSM   H12B13006   3.167   0.142  30.113 -0.4901 -0.6543  1.0221
  123OSM    C1113007   3.019   0.005  30.035 -0.1740 -0.2551 -0.1610
  123OSM   H11A13008   3.005  -0.011  30.144 -1.2522 -1.1552 -0.4095
  123OSM   H11B13009   3.093  -0.070  30.001 -0.9873 -0.9164 -0.5132
  123OSM      P13010   2.765  -0.028  30.036  0.1332 -0.0258  0.1287
  123OSM    O1313011   2.659  -0.050  29.939  0.4201  0.3864  0.2678
  123OSM    O1413012   2.788  -0.141  30.134  0.0375 -0.3028 -0.3072
  123OSM    O1113013   2.731   0.103  30.117 -0.7162  0.1824  0.5725
  123OSM    O1213014   2.900  -0.002  29.959 -0.1652 -0.0792  0.4366
  123OSM    C1S13015   2.690   0.219  30.040 -0.4922  0.9300 -0.2313
  123OSM    H1S13016   2.752   0.228  29.948  2.7966  0.0913  1.7025
  123OSM    H1T13017   2.724   0.309  30.096  1.8869 -0.4775  0.7504
  123OSM     NF13018   2.525   0.362  29.923 -0.0059 -0.6022 -0.5271
  123OSM    HNF13019   2.524   0.452  29.964  1.2198 -0.0056 -1.7337
  123OSM    C2S13020   2.545   0.240  30.003  0.0929 -0.2723 -0.1274
  123OSM    H2S13021   2.504   0.158  29.940 -1.5680  1.2098 -1.0763
  123OSM    C3S13022   2.456   0.221  30.131  0.3223 -0.1724  0.4378
  123OSM    H3S13023   2.499   0.292  30.204  0.8718  0.8375 -0.8315
  123OSM     O313024   2.470   0.097  30.201  0.2912 -0.4899  0.1877
  123OSM    HO313025   2.544   0.053  30.159  0.2247 -1.3535  0.9353
  123OSM    C4S13026   2.311   0.244  30.094  0.1208 -0.0856 -0.2842
  123OSM    H4S13027   2.269   0.337  30.134 -1.5594 -0.7990 -0.2864
  123OSM    C5S13028   2.232   0.166  30.022 -1.1258 -0.2649  0.1792
  123OSM    H5S13029   2.273   0.078  29.971 -1.1677 -0.0727 -0.1935
  123OSM    C6S13030   2.086   0.190  29.997 -0.4684  0.0464  0.1687
  123OSM    H6S13031   2.066   0.176  29.889  0.4085  0.5311 -0.0689
  123OSM    H6T13032   2.053   0.290  30.031 -0.2844  0.2526 -0.2416
  123OSM    C7S13033   1.991   0.084  30.060 -0.6407 -0.1566 -0.3080
  123OSM    H7S13034   2.013   0.084  30.169 -0.5474  0.6692 -0.3197
  123OSM    H7T13035   2.019  -0.010  30.008 -0.4944 -0.3055  0.0328
  123OSM    C8S13036   1.841   0.101  30.042  0.0746 -0.2699 -0.1696
  123OSM    H8S13037   1.810   0.173  30.121  1.4505  0.1802 -0.0070
  123OSM    H8T13038   1.796   0.001  30.063  0.7080 -0.4638  0.3129
  123OSM    C9S13039   1.796   0.149  29.906  0.1754  0.8039 -1.3106
  123OSM    H9S13040   1.841   0.083  29.830  2.2213 -0.5014  0.8835
  123OSM    H9T13041   1.839   0.251  29.892 -0.9156  1.3591 -0.7623
  123OSM   C10S13042   1.650   0.186  29.898 -0.4973 -0.0522 -0.4069
  123OSM   H10S13043   1.637   0.254  29.984  0.3059  1.3544 -1.3526
  123OSM   H10T13044   1.580   0.100  29.901  0.9806 -1.2869  0.0964
  123OSM   C11S13045   1.603   0.247  29.764 -0.8197 -0.2282 -0.0201
  123OSM   H11S13046   1.645   0.350  29.757  0.1126 -0.6437 -0.6949
  123OSM   H11T13047   1.492   0.260  29.768 -1.0343 -1.4889 -1.1392
  123OSM   C12S13048   1.644   0.166  29.644  0.4190  0.7637 -0.9094
  123OSM   H12S13049   1.610   0.062  29.665 -2.4365  1.7749  0.0291
  123OSM   H12T13050   1.753   0.150  29.642  0.3111 -1.1577  2.1286
  123OSM   C13S13051   1.585   0.225  29.519  0.5093  0.5759  0.7273
  123OSM   H13S13052   1.620   0.159  29.436 -0.2990 -2.3491  2.5569
  123OSM   H13T13053   1.632   0.325  29.506 -1.3585  1.3102 -0.8186
  123OSM   C14S13054   1.433   0.252  29.499 -0.1200 -0.0841 -0.7211
  123OSM   H14S13055   1.398   0.322  29.577 -0.2634 -1.2512  0.2900
  123OSM   H14T13056   1.374   0.162  29.528 -0.4942  0.8492  1.6824
  123OSM   C15S13057   1.403   0.310  29.359 -0.3172 -0.2480 -0.0650
  123OSM   H15S13058   1.436   0.242  29.278  1.7913  0.0850  0.4538
  123OSM   H15T13059   1.461   0.405  29.354 -0.2614 -0.3574 -2.3272
  123OSM   C16S13060   1.254   0.309  29.335 -1.1578  0.0823 -0.4390
  123OSM   H16S13061   1.208   0.210  29.360  0.3652 -0.2435  1.3716
  123OSM   H16T13062   1.229   0.307  29.227 -2.4462 -0.4174 -0.1553
  123OSM   C17S13063   1.186   0.434  29.395 -0.5320  0.0212  0.6273
  123OSM   H17S13064   1.230   0.520  29.342 -3.3427  0.8694 -0.5351
  123OSM   H17T13065   1.216   0.436  29.502  0.3218 -2.4099  0.5014
  123OSM   C18S13066   1.032   0.441  29.374 -0.0911 -0.6350 -1.1701
  123OSM   H18S13067   0.986   0.361  29.436  1.8858 -2.3460 -1.7915
  123OSM   H18T13068   1.013   0.430  29.265  1.8342  1.3017 -1.7651
  123OSM   H18U13069   0.993   0.541  29.404  0.6057 -0.0914 -2.0362
  123OSM    C1F13070   2.558   0.370  29.799 -0.5459  0.9280  0.0566
  123OSM     OF13071   2.579   0.271  29.731 -0.7088  0.1996  0.2539
  123OSM    C2F13072   2.584   0.502  29.733  0.1610  0.4106 -0.1888
  123OSM    H2F13073   2.692   0.510  29.709  0.7314 -1.1608  1.5713
  123OSM    H2G13074   2.563   0.578  29.811  2.1111 -0.4903  1.2998
  123OSM    C3F13075   2.491   0.533  29.619 -1.0771 -0.0136 -0.7733
  123OSM    H3F13076   2.490   0.450  29.544  3.0413  0.6946 -1.8903
  123OSM    H3G13077   2.523   0.628  29.571 -1.0900 -0.3935 -1.5419
  123OSM    C4F13078   2.349   0.562  29.668  0.3707  0.4730 -0.1310
  123OSM    H4F13079   2.355   0.603  29.771  0.6517 -0.3251  0.1809
  123OSM    H4G13080   2.290   0.468  29.675  0.8026  0.1238 -0.9650
  123OSM    C5F13081   2.278   0.648  29.561  0.4315 -0.1966 -0.4653
  123OSM    H5F13082   2.168   0.651  29.575  0.4549 -1.4144  0.0941
  123OSM    H5G13083   2.288   0.614  29.455 -2.1592 -0.3107 -0.7380
  123OSM    C6F13084   2.314   0.806  29.561  0.0405  0.9592 -0.7176
  123OSM    H6F13085   2.241   0.839  29.484  0.7546 -0.4674 -2.0705
  123OSM    H6G13086   2.414   0.841  29.528  0.1252  0.5790 -0.8752
  123OSM    C7F13087   2.281   0.865  29.695 -0.1931  0.1405  0.9875
  123OSM    H7F13088   2.357   0.839  29.772  0.0471  0.0053  0.7061
  123OSM    H7G13089   2.183   0.818  29.719  0.0280  0.2177  2.1189
  123OSM    C8F13090   2.260   1.015  29.693 -0.7743  0.0909  0.3742
  123OSM    H8F13091   2.196   1.033  29.605 -0.8392 -1.8259 -0.0262
  123OSM    H8G13092   2.354   1.071  29.674 -0.5565 -0.5053 -0.3467
  123OSM    C9F13093   2.176   1.060  29.814  0.0868 -0.4903  0.0409
  123OSM    H9F13094   2.231   1.099  29.901  1.0537  0.6009 -1.0158
  123OSM   C10F13095   2.039   1.060  29.818 -0.1272  0.6121  0.5177
  123OSM   H10F13096   1.991   1.102  29.908 -1.8800 -2.2097  1.0307
  123OSM   C11F13097   1.946   1.005  29.707 -0.5660 -0.3597  0.1651
  123OSM   H11F13098   1.939   0.894  29.707 -0.1699 -0.3895 -0.3049
  123OSM   H11G13099   1.980   1.044  29.608 -1.8552  1.1383  0.2744
  123OSM   C12F13100   1.805   1.059  29.710 -0.3629  0.6689  0.4820
  123OSM   H12F13101   1.759   1.017  29.618 -0.4453 -0.0530  0.8540
  123OSM   H12G13102   1.806   1.170  29.710 -2.3473  0.8606 -3.1534
  123OSM   C13F13103   1.728   1.001  29.826 -0.4050  0.4275 -0.3474
  123OSM   H13F13104   1.779   0.990  29.924 -2.0833  2.4924  0.8450
  123OSM   H13G13105   1.693   0.899  29.797  3.4475 -0.8910 -0.9821
  123OSM   C14F13106   1.614   1.097  29.876  0.1312 -1.2054  0.5940
  123OSM   H14F13107   1.548   1.100  29.787 -0.0879  1.6371  0.7623
  123OSM   H14G13108   1.660   1.197  29.878  0.7907 -1.4925 -0.0860
  123OSM   C15F13109   1.562   1.052  30.007  0.7284  0.4883  0.2755
  123OSM   H15F13110   1.616   1.103  30.089  0.0268 -0.6021  1.4526
  123OSM   H15G13111   1.564   0.941  30.019 -3.7660 -0.2197 -2.9854
  123OSM   C16F13112   1.410   1.099  30.031  0.6901  0.0320 -0.0413
  123OSM   H16F13113   1.406   1.210  30.026 -0.7095  0.0053  0.1909
  123OSM   H16G13114   1.373   1.073  30.132 -1.6959  3.3988  0.0998
  123OSM   C17F13115   1.311   1.022  29.935  0.4569  0.3546  0.8885
  123OSM   H17F13116   1.328   0.914  29.951  1.3621 -0.2082 -2.9460
  123OSM   H17G13117   1.334   1.031  29.827 -1.4440  0.0821  0.4264
  123OSM   C18F13118   1.163   1.071  29.957  0.3400 -0.1610 -0.3526
  123OSM   H18F13119   1.090   1.006  29.904  0.0828  1.3362 -1.9141
  123OSM   H18G13120   1.145   1.169  29.907 -1.4528 -0.8205 -1.1026
  123OSM   H18H13121   1.120   1.082  30.059  0.8065  1.0763 -0.2806
  124OSM      N13122   2.927   2.056  28.972 -0.0064  0.5902  0.1879
  124OSM    C1513123   2.907   2.040  29.117  0.1573 -0.3028  0.1694
  124OSM   H15A13124   2.900   1.935  29.143 -0.1985 -0.4764 -0.6022
  124OSM   H15B13125   2.812   2.078  29.151 -0.1761  0.8806 -1.9411
  124OSM   H15C13126   2.983   2.087  29.178  0.0361  0.0806  0.0245
  124OSM    C1413127   3.034   1.959  28.941 -0.2211  0.6594 -0.8046
  124OSM   H14A13128   2.999   1.857  28.945  1.7894 -0.1705 -2.4393
  124OSM   H14B13129   3.107   1.966  29.021 -3.1796  1.3060  2.0631
  124OSM   H14C13130   3.080   1.982  28.846  2.5141  4.4432  1.1555
  124OSM    C1313131   2.800   2.016  28.903  0.2154  0.1298  0.1170
  124OSM   H13A13132   2.802   2.037  28.797  0.0964  2.2249  0.5029
  124OSM   H13B13133   2.719   2.076  28.940 -0.1189  0.1033 -0.5562
  124OSM   H13C13134   2.781   1.911  28.923 -1.2058  0.1529 -0.9246
  124OSM    C1213135   2.974   2.196  28.944  0.2839 -0.6503  0.8974
  124OSM   H12A13136   3.065   2.220  28.995  1.5811  1.8965 -2.2850
  124OSM   H12B13137   2.914   2.278  28.980  1.4864  1.3111 -1.3001
  124OSM    C1113138   3.002   2.239  28.797  1.2953  0.4735  0.0769
  124OSM   H11A13139   3.063   2.158  28.754  0.6196 -0.4002  0.7251
  124OSM   H11B13140   3.059   2.334  28.805 -1.6395  2.6685 -2.4442
  124OSM      P13141   2.851   2.378  28.640  0.3119 -0.1760 -0.1467
  124OSM    O1313142   2.913   2.495  28.700  0.1937 -0.6963 -0.6714
  124OSM    O1413143   2.865   2.368  28.494 -0.2490 -0.7150 -0.0992
  124OSM    O1113144   2.697   2.396  28.675 -0.6730 -0.1735 -0.2615
  124OSM    O1213145   2.887   2.246  28.713  0.8976  0.0689 -0.0676
  124OSM    C1S13146   2.617   2.294  28.733 -0.2021  0.0965  0.5442
  124OSM    H1S13147   2.657   2.259  28.831  1.0566  0.8622  0.3221
  124OSM    H1T13148   2.631   2.200  28.676 -1.2463 -1.2758  2.4397
  124OSM     NF13149   2.394   2.219  28.793  0.1660  0.1692 -0.9652
  124OSM    HNF13150   2.341   2.169  28.725  0.1726  0.9996 -1.5984
  124OSM    C2S13151   2.462   2.335  28.747 -0.6568  0.0050  0.2905
  124OSM    H2S13152   2.454   2.425  28.812 -0.5871  0.2376 -0.0234
  124OSM    C3S13153   2.416   2.386  28.600 -0.3482 -0.0206 -0.4797
  124OSM    H3S13154   2.450   2.308  28.528 -0.3875 -0.5192  0.0377
  124OSM     O313155   2.485   2.503  28.552  0.2424 -0.3392  0.2985
  124OSM    HO313156   2.559   2.505  28.613 -2.4665 -0.2278  3.8577
  124OSM    C4S13157   2.267   2.400  28.569  0.2993 -0.1131  0.5738
  124OSM    H4S13158   2.232   2.303  28.530  0.8065 -1.1467  2.5452
  124OSM    C5S13159   2.184   2.512  28.580 -0.0452  0.4197 -0.0971
  124OSM    H5S13160   2.229   2.601  28.626  2.5315 -0.7673 -0.1045
  124OSM    C6S13161   2.044   2.514  28.548  0.8647 -0.6559  0.2341
  124OSM    H6S13162   2.026   2.609  28.494 -0.8029 -2.2473 -2.1924
  124OSM    H6T13163   1.978   2.508  28.637 -0.2524 -1.4949 -0.6296
  124OSM    C7S13164   2.006   2.405  28.456  0.5110  0.2565  0.1067
  124OSM    H7S13165   2.022   2.314  28.517 -1.1627  0.4792  0.9271
  124OSM    H7T13166   2.065   2.396  28.363  1.4448  1.0386  0.6028
  124OSM    C8S13167   1.854   2.403  28.418 -0.0770  0.1392 -0.4978
  124OSM    H8S13168   1.801   2.465  28.494  0.7882 -0.1226  0.3455
  124OSM    H8T13169   1.821   2.297  28.416 -0.5546  0.3001 -2.1085
  124OSM    C9S13170   1.836   2.442  28.270  0.2507 -0.5516 -0.0736
  124OSM    H9S13171   1.843   2.347  28.212  2.2538  0.5048 -1.6995
  124OSM    H9T13172   1.919   2.501  28.227 -1.0701  1.5292  0.0960
  124OSM   C10S13173   1.711   2.519  28.226  0.3183 -0.1257  0.2250
  124OSM   H10S13174   1.720   2.527  28.115  1.0478 -0.2547  0.2723
  124OSM   H10T13175   1.708   2.623  28.267  1.8560  0.6231 -1.4218
  124OSM   C11S13176   1.581   2.442  28.243  0.1468  0.2133  0.3543
  124OSM   H11S13177   1.499   2.513  28.221 -0.1066  0.2446  1.3719
  124OSM   H11T13178   1.569   2.428  28.352  0.3232 -0.3477  0.3047
  124OSM   C12S13179   1.555   2.302  28.183 -0.7352  1.2192 -0.1413
  124OSM   H12S13180   1.636   2.237  28.221 -0.8356  1.3354  0.2808
  124OSM   H12T13181   1.564   2.298  28.073  1.1154 -0.5884  0.0130
  124OSM   C13S13182   1.420   2.233  28.217 -0.2035 -0.2353 -0.3013
  124OSM   H13S13183   1.353   2.321  28.200  2.7801  2.0722 -0.9485
  124OSM   H13T13184   1.423   2.207  28.325  3.0265 -0.9591 -0.4725
  124OSM   C14S13185   1.388   2.112  28.129  0.0968  0.5297 -0.0918
  124OSM   H14S13186   1.469   2.038  28.146  0.2700  0.5467 -0.7768
  124OSM   H14T13187   1.403   2.137  28.021  1.0972  3.9036  0.7259
  124OSM   C15S13188   1.251   2.059  28.159 -0.6758 -1.0609 -0.3459
  124OSM   H15S13189   1.179   2.130  28.113  0.2994 -0.2215 -0.6122
  124OSM   H15T13190   1.254   2.056  28.270 -0.5731  2.6086 -0.1025
  124OSM   C16S13191   1.227   1.922  28.106  0.0216  0.0341 -0.5826
  124OSM   H16S13192   1.310   1.850  28.125 -1.0323 -1.7127 -2.2456
  124OSM   H16T13193   1.211   1.942  27.998 -0.1248 -1.0466 -0.7729
  124OSM   C17S13194   1.098   1.853  28.169 -1.0334 -0.1692 -0.3113
  124OSM   H17S13195   1.014   1.925  28.160  0.0208  1.1834  0.2724
  124OSM   H17T13196   1.126   1.839  28.275  0.4911  0.5456 -0.5860
  124OSM   C18S13197   1.066   1.713  28.108 -0.1151 -0.6546  0.2637
  124OSM   H18S13198   0.979   1.665  28.159  1.2118  0.0297  3.4054
  124OSM   H18T13199   1.150   1.642  28.111  3.1975  2.9571  2.0744
  124OSM   H18U13200   1.032   1.718  28.002 -1.3761 -0.6063  0.6470
  124OSM    C1F13201   2.414   2.174  28.919 -0.1296 -0.1848 -0.0069
  124OSM     OF13202   2.489   2.236  28.991 -0.5967 -0.5151 -0.1176
  124OSM    C2F13203   2.355   2.040  28.965  0.5056  0.4044 -0.3034
  124OSM    H2F13204   2.449   1.982  28.981 -0.7927 -1.9078 -0.6579
  124OSM    H2G13205   2.299   1.991  28.883  0.1478 -2.6486  1.5855
  124OSM    C3F13206   2.273   2.059  29.094 -0.1745 -0.1303  0.1183
  124OSM    H3F13207   2.324   2.112  29.177  0.3943  1.2929 -1.0946
  124OSM    H3G13208   2.251   1.955  29.129  0.7836 -0.2650  0.3569
  124OSM    C4F13209   2.136   2.127  29.075  0.5853  0.6040 -0.0020
  124OSM    H4F13210   2.162   2.224  29.027 -1.2691  0.0841 -2.1960
  124OSM    H4G13211   2.099   2.151  29.177  1.8849  0.2523  0.5802
  124OSM    C5F13212   2.036   2.050  28.989  0.1515 -0.9891 -0.2973
  124OSM    H5F13213   1.981   1.985  29.059  1.3855  0.5673  2.2560
  124OSM    H5G13214   2.093   1.990  28.915 -0.3692 -1.3524 -0.4082
  124OSM    C6F13215   1.939   2.143  28.920 -0.1437  0.5368 -0.5953
  124OSM    H6F13216   1.977   2.234  28.867  0.0941 -0.1751 -1.6712
  124OSM    H6G13217   1.872   2.174  29.003 -0.1556 -2.4783  0.6269
  124OSM    C7F13218   1.842   2.060  28.829 -0.2423 -0.1980 -0.1291
  124OSM    H7F13219   1.793   1.986  28.896 -1.4695  2.3172  1.9249
  124OSM    H7G13220   1.910   2.003  28.762  0.3144  0.5857 -0.2377
  124OSM    C8F13221   1.741   2.150  28.754 -0.5149  0.2350 -0.8381
  124OSM    H8F13222   1.702   2.091  28.668  0.7732 -0.8411 -0.7166
  124OSM    H8G13223   1.808   2.228  28.712  1.4831 -1.7188 -1.5075
  124OSM    C9F13224   1.638   2.211  28.844 -0.3472  0.1545 -0.5499
  124OSM    H9F13225   1.682   2.273  28.923  0.2690  0.0198 -0.7803
  124OSM   C10F13226   1.506   2.212  28.828 -0.2514  0.5299 -0.2967
  124OSM   H10F13227   1.441   2.258  28.905 -0.7979 -0.5773 -0.0806
  124OSM   C11F13228   1.423   2.150  28.713  0.3274 -0.4854 -0.4475
  124OSM   H11F13229   1.489   2.149  28.623  1.3108  1.5959  0.1814
  124OSM   H11G13230   1.341   2.220  28.687 -0.7605 -1.6450 -0.1961
  124OSM   C12F13231   1.373   2.003  28.743 -0.0695 -0.7158 -0.1437
  124OSM   H12F13232   1.457   1.940  28.778  1.3097  1.5284  0.7906
  124OSM   H12G13233   1.323   1.968  28.649 -0.7955  0.1670 -0.1064
  124OSM   C13F13234   1.268   2.010  28.848 -0.0496  0.5449  0.0274
  124OSM   H13F13235   1.187   2.079  28.816 -1.1824 -0.2468  1.0762
  124OSM   H13G13236   1.320   2.050  28.938  0.8511 -1.0072  0.2223
  124OSM   C14F13237   1.215   1.881  28.899  0.5159 -0.0260 -0.0950
  124OSM   H14F13238   1.291   1.800  28.893 -1.4068 -1.8135 -2.0317
  124OSM   H14G13239   1.132   1.852  28.831  0.7060  0.2822 -0.4623
  124OSM   C15F13240   1.148   1.879  29.044 -0.4569  0.6159  0.3635
  124OSM   H15F13241   1.233   1.919  29.104 -1.5090  0.6611  1.8658
  124OSM   H15G13242   1.137   1.772  29.070  0.7066  0.1718 -0.8711
  124OSM   C16F13243   1.022   1.967  29.049 -0.2802  0.2040  0.3806
  124OSM   H16F13244   1.036   2.057  28.986  1.4406  1.9469  3.0461
  124OSM   H16G13245   1.009   2.004  29.153 -2.8584  0.5234 -0.0023
  124OSM   C17F13246   0.897   1.879  29.020 -0.6290  0.1717  0.1271
  124OSM   H17F13247   0.886   1.802  29.099  1.6010 -0.3106  0.0416
  124OSM   H17G13248   0.917   1.814  28.932  0.2320 -0.8523  1.0481
  124OSM   C18F13249   0.774   1.961  28.997 -0.8624  0.0449 -0.5378
  124OSM   H18F13250   0.778   2.025  28.906  0.1567  0.6724 -0.0732
  124OSM   H18G13251   0.755   2.037  29.076 -2.2305  0.8102 -1.5526
  124OSM   H18H13252   0.678   1.905  29.000 -0.2448 -1.0204 -0.5607
  125OSM      N13253   2.550   3.211  27.245 -0.0167 -0.1479 -0.2781
  125OSM    C1513254   2.522   3.299  27.366  0.5106  0.3695 -0.4339
  125OSM   H15A13255   2.512   3.403  27.336 -0.3174  0.3080 -0.4033
  125OSM   H15B13256   2.609   3.295  27.430  0.5386  0.9849 -0.4287
  125OSM   H15C13257   2.425   3.275  27.406  0.5060 -0.2770 -0.8166
  125OSM    C1413258   2.546   3.062  27.278  0.3052  0.0013  0.5299
  125OSM   H14A13259   2.497   3.041  27.371  0.1090 -1.3107  0.1511
  125OSM   H14B13260   2.650   3.033  27.270 -0.1141 -1.1609 -1.4679
  125OSM   H14C13261   2.500   2.998  27.204  0.6644 -1.1760  1.2976
  125OSM    C1313262   2.435   3.237  27.149 -1.0611  0.1216  0.3993
  125OSM   H13A13263   2.449   3.161  27.074  0.5146 -1.7648  2.4657
  125OSM   H13B13264   2.452   3.336  27.110 -1.1991  1.4180  3.3248
  125OSM   H13C13265   2.334   3.237  27.189 -1.4424 -1.1897 -0.5023
  125OSM    C1213266   2.688   3.249  27.195  0.0305  0.3859 -0.0923
  125OSM   H12A13267   2.753   3.214  27.273  2.6434 -0.0829 -2.3112
  125OSM   H12B13268   2.688   3.357  27.185 -0.1040  0.3709 -0.2638
  125OSM    C1113269   2.740   3.177  27.063  0.0418  0.0461  0.3254
  125OSM   H11A13270   2.742   3.067  27.077 -0.2222 -0.1110 -0.7772
  125OSM   H11B13271   2.846   3.212  27.058 -0.6177  2.3381  1.1302
  125OSM      P13272   2.714   3.347  26.870 -0.0847 -0.3306  0.3610
  125OSM    O1313273   2.625   3.385  26.756  0.0209  0.4748  0.2938
  125OSM    O1413274   2.744   3.454  26.972 -0.3808  0.3380  0.3370
  125OSM    O1113275   2.854   3.304  26.811  0.8712  0.1298  0.5083
  125OSM    O1213276   2.668   3.214  26.944 -0.4399 -0.3474 -0.3666
  125OSM    C1S13277   2.862   3.216  26.704  0.3970  0.8264  0.3581
  125OSM    H1S13278   2.790   3.232  26.621  0.4986 -2.5230 -0.5138
  125OSM    H1T13279   2.829   3.117  26.743 -2.2546  1.4056 -0.1756
  125OSM     NF13280   3.011   3.147  26.522  0.1319 -1.0341 -0.7520
  125OSM    HNF13281   3.070   3.067  26.516  1.0890 -0.8032  3.0784
  125OSM    C2S13282   3.004   3.216  26.647 -0.1486  0.0595 -0.4734
  125OSM    H2S13283   3.026   3.324  26.635 -0.4902  0.1792 -0.0518
  125OSM    C3S13284   3.100   3.165  26.763  0.0503 -0.6116 -0.0472
  125OSM    H3S13285   3.074   3.059  26.783 -0.5482 -1.3349 -3.9105
  125OSM     O313286   3.096   3.241  26.887  0.2352  0.0583  0.7034
  125OSM    HO313287   3.013   3.288  26.874  0.1804  0.9462  3.6705
  125OSM    C4S13288   3.236   3.169  26.705  0.2034 -0.1303  0.2292
  125OSM    H4S13289   3.254   3.083  26.638 -0.3727  0.1374 -0.2850
  125OSM    C5S13290   3.330   3.267  26.701 -0.4336 -0.2373  0.1185
  125OSM    H5S13291   3.300   3.366  26.736 -0.4994 -0.0425 -0.4836
  125OSM    C6S13292   3.466   3.265  26.634  0.2622  0.4315 -0.0422
  125OSM    H6S13293   3.545   3.231  26.705  0.3704 -0.5879 -0.6240
  125OSM    H6T13294   3.486   3.371  26.608  0.7394  0.8818  2.0065
  125OSM    C7S13295   3.487   3.171  26.509  0.5707  0.4800  0.3259
  125OSM    H7S13296   3.409   3.183  26.431  2.1092  1.7836 -1.0758
  125OSM    H7T13297   3.469   3.064  26.531  0.5415  0.1862 -1.0552
  125OSM    C8S13298   3.623   3.194  26.448 -0.1920 -0.5867 -0.5622
  125OSM    H8S13299   3.688   3.184  26.537 -2.7377 -0.2649  1.4776
  125OSM    H8T13300   3.623   3.295  26.403  0.2675  0.4693  1.6900
  125OSM    C9S13301   3.670   3.083  26.344 -0.4757 -0.6659  0.1846
  125OSM    H9S13302   3.743   3.127  26.272  0.1785 -0.8725  0.7077
  125OSM    H9T13303   3.582   3.060  26.280  0.0696  1.1673 -1.3193
  125OSM   C10S13304   3.729   2.956  26.415  0.1320  0.0855 -0.8723
  125OSM   H10S13305   3.646   2.895  26.455 -0.2763  0.1195 -1.6487
  125OSM   H10T13306   3.803   2.992  26.490 -2.8605  0.1905  2.2208
  125OSM   C11S13307   3.795   2.873  26.309  0.1006 -0.2010  0.5410
  125OSM   H11S13308   3.884   2.926  26.270  0.0247 -0.7365 -0.3750
  125OSM   H11T13309   3.716   2.869  26.232  0.6730 -2.1422 -0.0053
  125OSM   C12S13310   3.814   2.725  26.354  0.5880  0.3318 -0.0374
  125OSM   H12S13311   3.714   2.689  26.387  1.0586  0.3022  1.4014
  125OSM   H12T13312   3.887   2.731  26.437 -0.6519  1.4553  1.0032
  125OSM   C13S13313   3.863   2.631  26.239  1.0922  0.4553 -0.8546
  125OSM   H13S13314   3.774   2.634  26.173  0.9454 -0.8665 -0.7598
  125OSM   H13T13315   3.888   2.528  26.275  2.1198  0.5712 -1.2225
  125OSM   C14S13316   3.989   2.683  26.163  0.4048 -0.2014  0.0144
  125OSM   H14S13317   4.071   2.699  26.236  2.2163  1.1800 -2.1767
  125OSM   H14T13318   3.957   2.775  26.110  2.1693  1.5049  1.7221
  125OSM   C15S13319   4.038   2.597  26.042  0.6485  0.2820 -0.0651
  125OSM   H15S13320   4.100   2.665  25.981  0.9447 -0.0169 -0.1024
  125OSM   H15T13321   3.951   2.571  25.977  1.0067 -0.1851 -0.3658
  125OSM   C16S13322   4.118   2.473  26.090  0.6054 -0.9240  0.7893
  125OSM   H16S13323   4.041   2.393  26.104 -1.2177  0.5013 -0.6123
  125OSM   H16T13324   4.171   2.490  26.186 -1.6940 -0.5454  2.0853
  125OSM   C17S13325   4.223   2.420  25.993  0.8231 -0.1344  0.6637
  125OSM   H17S13326   4.274   2.331  26.036 -2.5849 -2.2840  0.6096
  125OSM   H17T13327   4.300   2.497  25.971  2.7259 -2.3999 -1.0173
  125OSM   C18S13328   4.155   2.392  25.855  0.3662 -0.1769 -0.1477
  125OSM   H18S13329   4.146   2.483  25.792 -0.8306 -0.7346 -0.8294
  125OSM   H18T13330   4.055   2.345  25.867  0.0838  0.8226  1.6947
  125OSM   H18U13331   4.225   2.330  25.795  2.1068  0.1017  1.5254
  125OSM    C1F13332   2.937   3.169  26.416 -0.3288 -0.1783  0.1457
  125OSM     OF13333   2.880   3.275  26.394  0.3761 -0.4018 -0.3709
  125OSM    C2F13334   2.944   3.069  26.307 -0.1208  0.4585  0.6622
  125OSM    H2F13335   2.842   3.065  26.264 -0.8638  2.4996  2.0656
  125OSM    H2G13336   2.973   2.969  26.345  1.6179  1.8209  3.2362
  125OSM    C3F13337   3.033   3.119  26.190  0.4622 -0.3259 -0.4804
  125OSM    H3F13338   3.024   3.229  26.175 -2.7489 -0.6085 -1.3476
  125OSM    H3G13339   2.997   3.092  26.088  1.4725  0.8949 -1.1899
  125OSM    C4F13340   3.184   3.076  26.204  0.3080 -0.1129  0.2476
  125OSM    H4F13341   3.191   2.968  26.227 -0.2584  0.3700  2.9999
  125OSM    H4G13342   3.225   3.131  26.291  3.1115 -0.4459 -0.7611
  125OSM    C5F13343   3.278   3.119  26.085  0.2789  1.1599  0.4521
  125OSM    H5F13344   3.383   3.116  26.120  0.3093 -0.2550  0.2971
  125OSM    H5G13345   3.262   3.227  26.063  1.5516  1.1155 -0.8605
  125OSM    C6F13346   3.253   3.029  25.968 -0.2368  0.0827  0.2303
  125OSM    H6F13347   3.144   3.030  25.946 -0.6456  0.7558  2.0626
  125OSM    H6G13348   3.268   2.922  25.994 -2.5544 -0.7597 -1.5474
  125OSM    C7F13349   3.320   3.069  25.847 -0.5408 -0.1855 -0.7898
  125OSM    H7F13350   3.424   3.048  25.880 -0.8017  0.4863  0.4959
  125OSM    H7G13351   3.307   3.173  25.809 -0.3036 -0.6312 -2.1708
  125OSM    C8F13352   3.263   2.985  25.736 -0.5958  0.2846 -0.0161
  125OSM    H8F13353   3.154   3.002  25.735 -0.8426 -1.1884  0.1518
  125OSM    H8G13354   3.278   2.876  25.754  0.5422  0.1237 -1.7068
  125OSM    C9F13355   3.323   3.015  25.600  0.0376 -0.0590 -0.1659
  125OSM    H9F13356   3.387   2.934  25.562  0.4556 -0.6209  1.6044
  125OSM   C10F13357   3.278   3.113  25.522 -0.8898 -0.5034  0.7612
  125OSM   H10F13358   3.333   3.129  25.429 -2.4709  3.6685  0.3208
  125OSM   C11F13359   3.166   3.216  25.550 -0.5291  0.1622  0.2195
  125OSM   H11F13360   3.129   3.220  25.654 -1.4537 -0.7037 -0.0589
  125OSM   H11G13361   3.071   3.190  25.498 -0.3848 -0.2333  0.1542
  125OSM   C12F13362   3.217   3.357  25.505  0.1924 -0.2860 -0.2457
  125OSM   H12F13363   3.313   3.388  25.552  0.1838  0.3363 -0.6322
  125OSM   H12G13364   3.131   3.423  25.528 -0.2469 -0.5585 -1.0706
  125OSM   C13F13365   3.222   3.365  25.348  0.1720 -0.6363  0.1266
  125OSM   H13F13366   3.119   3.337  25.317 -1.5189  3.7720  1.0204
  125OSM   H13G13367   3.301   3.294  25.313  0.2415 -0.1820 -0.6528
  125OSM   C14F13368   3.257   3.507  25.310 -0.3494 -0.0131 -0.1744
  125OSM   H14F13369   3.357   3.525  25.354 -0.2597 -1.8297  0.4612
  125OSM   H14G13370   3.191   3.587  25.350  0.5857  2.0264 -2.5137
  125OSM   C15F13371   3.274   3.512  25.156  0.1295  0.4302  0.0456
  125OSM   H15F13372   3.175   3.498  25.106 -0.1719 -0.8204  0.9491
  125OSM   H15G13373   3.347   3.432  25.132  1.6711  1.5064  0.9500
  125OSM   C16F13374   3.364   3.623  25.100  0.3075 -0.3190 -1.3715
  125OSM   H16F13375   3.454   3.613  25.164 -1.4037 -2.7061  0.8823
  125OSM   H16G13376   3.327   3.723  25.130 -0.9643 -1.2813  0.4891
  125OSM   C17F13377   3.386   3.612  24.944 -0.2643 -0.0555 -0.2989
  125OSM   H17F13378   3.294   3.624  24.883 -0.9577  2.9636  1.1192
  125OSM   H17G13379   3.427   3.511  24.924  2.8728  1.2133 -0.9759
  125OSM   C18F13380   3.487   3.716  24.896  0.1664  0.3574 -0.3243
  125OSM   H18F13381   3.468   3.816  24.940  0.6816  1.2218 -1.9962
  125OSM   H18G13382   3.482   3.716  24.785  2.4449 -1.2652 -0.5131
  125OSM   H18H13383   3.588   3.683  24.930  0.3955  1.1437 -0.2106
  126OSM      N13384   3.251   1.012  30.583 -0.7911 -0.7572  0.5532
  126OSM    C1513385   3.387   1.073  30.615 -0.3126 -0.0017 -0.4002
  126OSM   H15A13386   3.452   1.034  30.538  2.2724 -0.5499  1.9299
  126OSM   H15B13387   3.399   1.036  30.715 -1.0406 -1.8458 -0.9499
  126OSM   H15C13388   3.389   1.181  30.617  2.8985  0.0214 -0.3133
  126OSM    C1413389   3.196   1.055  30.451 -0.6556  0.3744  0.8468
  126OSM   H14A13390   3.111   0.997  30.418 -1.1342  0.6190  1.6467
  126OSM   H14B13391   3.267   1.025  30.375 -1.3326  0.1310  0.3024
  126OSM   H14C13392   3.158   1.156  30.455 -0.1190  0.6203  0.0657
  126OSM    C1313393   3.269   0.868  30.570 -0.2221 -0.0036  0.1748
  126OSM   H13A13394   3.308   0.826  30.661  0.2521  0.1056  0.0275
  126OSM   H13B13395   3.328   0.842  30.483 -0.0320  0.3535  0.1940
  126OSM   H13C13396   3.171   0.823  30.562  0.0896 -0.7618  0.5129
  126OSM    C1213397   3.147   1.052  30.685  0.6310 -0.2228  0.4911
  126OSM   H12A13398   3.052   1.011  30.652  1.5504 -0.4314 -2.1837
  126OSM   H12B13399   3.126   1.158  30.684  1.6730 -0.0080  0.0084
  126OSM    C1113400   3.173   1.021  30.833  0.4279 -0.1038 -0.0047
  126OSM   H11A13401   3.261   1.086  30.851  0.1367  0.1006  0.7216
  126OSM   H11B13402   3.198   0.915  30.851 -0.8748 -0.1643  1.7209
  126OSM      P13403   3.040   1.028  31.063 -0.1039 -0.0451 -0.0894
  126OSM    O1313404   2.962   1.138  31.122  0.1510 -0.3191 -0.8569
  126OSM    O1413405   2.987   0.888  31.079 -0.7425  0.1020 -0.2827
  126OSM    O1113406   3.181   1.035  31.123  0.2027 -0.6599  0.3039
  126OSM    O1213407   3.053   1.059  30.903 -0.4822  0.1995 -0.3728
  126OSM    C1S13408   3.243   1.163  31.138  0.0087 -0.3492 -0.0585
  126OSM    H1S13409   3.182   1.234  31.198  0.8654 -2.1239  3.1410
  126OSM    H1T13410   3.267   1.215  31.043  1.4501 -2.0985 -0.6918
  126OSM     NF13411   3.440   1.268  31.245 -0.1957 -0.1311 -0.3381
  126OSM    HNF13412   3.529   1.296  31.209  0.8191 -0.2535  1.8809
  126OSM    C2S13413   3.381   1.143  31.203  0.9673  0.7727 -0.0769
  126OSM    H2S13414   3.378   1.068  31.285 -2.3710  0.1539 -0.6545
  126OSM    C3S13415   3.467   1.081  31.088 -0.1673 -0.8091 -0.1832
  126OSM    H3S13416   3.462   1.141  30.995  1.4715 -1.9890 -1.0690
  126OSM     O313417   3.423   0.950  31.063 -0.7663 -0.0147 -0.0031
  126OSM    HO313418   3.337   0.943  31.104 -0.7707  0.0880  0.0062
  126OSM    C4S13419   3.617   1.075  31.121 -0.1068 -0.4095 -0.7933
  126OSM    H4S13420   3.645   1.022  31.213 -1.7179 -0.5246 -0.3267
  126OSM    C5S13421   3.718   1.140  31.063  0.4758  0.3638  0.1978
  126OSM    H5S13422   3.703   1.215  30.984  1.4980  0.4898  0.1054
  126OSM    C6S13423   3.863   1.123  31.114  0.1340  0.0019 -0.5642
  126OSM    H6S13424   3.925   1.083  31.032  0.6323  0.2819 -0.3286
  126OSM    H6T13425   3.871   1.054  31.201 -2.0045 -1.1047 -1.1568
  126OSM    C7S13426   3.920   1.264  31.151  0.1824  0.5745 -0.3713
  126OSM    H7S13427   3.922   1.329  31.061 -1.2845 -0.3439 -1.1075
  126OSM    H7T13428   4.025   1.245  31.184  0.4658  1.4556 -0.7426
  126OSM    C8S13429   3.853   1.330  31.275  0.2148  0.2234  0.3687
  126OSM    H8S13430   3.861   1.261  31.362  1.9205 -2.8732 -2.0412
  126OSM    H8T13431   3.745   1.352  31.261  0.0827  0.7176  1.9798
  126OSM    C9S13432   3.912   1.470  31.285  0.3327  0.1861 -0.7380
  126OSM    H9S13433   3.911   1.494  31.177 -0.5337  0.4657 -0.6766
  126OSM    H9T13434   4.014   1.467  31.330  0.3333  0.5768 -0.7125
  126OSM   C10S13435   3.808   1.559  31.360 -0.2018 -0.1484 -0.9980
  126OSM   H10S13436   3.784   1.523  31.462  1.6198 -2.0165 -1.1643
  126OSM   H10T13437   3.710   1.542  31.309 -0.1183  0.7713 -1.4851
  126OSM   C11S13438   3.851   1.700  31.354 -0.0384 -0.5746 -0.0018
  126OSM   H11S13439   3.776   1.774  31.391  0.4765 -0.3504  0.6107
  126OSM   H11T13440   3.872   1.727  31.248  2.3956 -4.0717 -0.5589
  126OSM   C12S13441   3.979   1.742  31.427 -0.2554 -0.2840 -0.6353
  126OSM   H12S13442   3.990   1.849  31.397  1.0646 -0.7734 -2.0624
  126OSM   H12T13443   4.065   1.688  31.382  0.1805 -1.1445  1.1447
  126OSM   C13S13444   3.973   1.707  31.577 -0.2375 -0.1167 -0.0534
  126OSM   H13S13445   3.954   1.598  31.591  0.6585 -0.1419  1.0779
  126OSM   H13T13446   3.887   1.765  31.617 -0.9199 -0.7933 -0.4936
  126OSM   C14S13447   4.110   1.713  31.657 -0.3216 -0.3441  0.7691
  126OSM   H14S13448   4.172   1.794  31.613 -0.3208 -0.7355  0.0359
  126OSM   H14T13449   4.169   1.620  31.640 -0.1906 -0.5018  2.0123
  126OSM   C15S13450   4.075   1.737  31.806 -0.0126  0.5215  0.2109
  126OSM   H15S13451   4.016   1.651  31.845  0.0299 -0.0219 -0.9060
  126OSM   H15T13452   4.002   1.819  31.820  0.7183  0.8852  2.3068
  126OSM   C16S13453   4.198   1.763  31.891  0.6931 -0.3010  0.6301
  126OSM   H16S13454   4.233   1.863  31.855 -0.4111  0.7738  2.4135
  126OSM   H16T13455   4.271   1.686  31.856  2.6853  0.9470  1.8171
  126OSM   C17S13456   4.168   1.753  32.035  0.2029 -0.2393  0.1863
  126OSM   H17S13457   4.116   1.657  32.055 -2.4080  0.7332 -1.3753
  126OSM   H17T13458   4.093   1.829  32.064  0.4434  0.4845 -0.9911
  126OSM   C18S13459   4.293   1.775  32.117  0.2434  0.6390 -0.2661
  126OSM   H18S13460   4.368   1.701  32.082 -2.9362 -2.8664 -0.2969
  126OSM   H18T13461   4.281   1.765  32.227  1.8666 -4.3689 -0.3018
  126OSM   H18U13462   4.345   1.871  32.100  0.9434  0.6084  1.4802
  126OSM    C1F13463   3.380   1.346  31.341 -0.1051  0.2736  0.5558
  126OSM     OF13464   3.267   1.308  31.380 -0.0488 -0.4958  0.6223
  126OSM    C2F13465   3.455   1.461  31.388 -0.0786 -0.5071 -0.3046
  126OSM    H2F13466   3.462   1.541  31.311  1.3596  0.0292  0.3352
  126OSM    H2G13467   3.561   1.433  31.406 -0.3832 -0.1057  2.6999
  126OSM    C3F13468   3.391   1.535  31.510 -0.0448  0.3233 -0.6933
  126OSM    H3F13469   3.367   1.466  31.594 -1.0125  0.5509 -0.7782
  126OSM    H3G13470   3.293   1.586  31.499  0.4705  2.4010  2.8956
  126OSM    C4F13471   3.492   1.638  31.553  0.2138  0.0265 -0.3800
  126OSM    H4F13472   3.532   1.700  31.470 -0.3993  0.7904 -0.1112
  126OSM    H4G13473   3.586   1.595  31.594  1.4921  2.4379 -0.5672
  126OSM    C5F13474   3.419   1.726  31.663 -0.9907 -0.1664 -0.0472
  126OSM    H5F13475   3.438   1.678  31.761  2.9902  2.0003  0.4327
  126OSM    H5G13476   3.311   1.715  31.640 -0.6336  1.2484 -2.9999
  126OSM    C6F13477   3.459   1.874  31.644 -0.6967  0.2006 -0.2754
  126OSM    H6F13478   3.373   1.929  31.688 -0.5473 -0.4563  0.8757
  126OSM    H6G13479   3.486   1.896  31.539 -1.0372  0.0804 -0.3852
  126OSM    C7F13480   3.585   1.913  31.730  0.5178  1.6475 -0.9272
  126OSM    H7F13481   3.679   1.861  31.701  0.9436 -0.1001  2.8674
  126OSM    H7G13482   3.559   1.885  31.835 -0.1079 -0.9229 -1.6960
  126OSM    C8F13483   3.610   2.063  31.722 -0.2614  0.3404 -0.0807
  126OSM    H8F13484   3.705   2.094  31.771  1.2077  2.6849 -3.9379
  126OSM    H8G13485   3.531   2.113  31.781  0.4426  0.6505  0.6252
  126OSM    C9F13486   3.602   2.123  31.581  0.3566 -0.0476  0.6266
  126OSM    H9F13487   3.518   2.101  31.513  1.5540  0.3025 -1.0332
  126OSM   C10F13488   3.692   2.202  31.532 -0.0668  0.4223 -0.3121
  126OSM   H10F13489   3.680   2.224  31.425 -1.1300  0.1664 -0.2612
  126OSM   C11F13490   3.816   2.256  31.602  0.1727 -0.5471  0.2338
  126OSM   H11F13491   3.797   2.266  31.711  2.2032  1.2388  0.4768
  126OSM   H11G13492   3.829   2.364  31.580 -2.7930  0.0430  0.8675
  126OSM   C12F13493   3.948   2.185  31.604  0.4664 -0.5560  0.1094
  126OSM   H12F13494   3.976   2.158  31.500 -1.8236  0.1647 -0.7458
  126OSM   H12G13495   3.945   2.094  31.667 -0.8806 -2.3873 -2.4021
  126OSM   C13F13496   4.068   2.264  31.656  0.2887 -0.5977  0.1846
  126OSM   H13F13497   4.151   2.189  31.658  0.6677 -0.1792  0.3075
  126OSM   H13G13498   4.034   2.308  31.753 -3.9714 -2.3608 -0.2949
  126OSM   C14F13499   4.108   2.381  31.558 -0.2723  0.4067  0.2982
  126OSM   H14F13500   4.017   2.430  31.518  0.3290  0.3084 -1.2378
  126OSM   H14G13501   4.160   2.332  31.473  0.1477  2.5099 -0.7252
  126OSM   C15F13502   4.201   2.484  31.623  0.1822  0.3131 -0.4799
  126OSM   H15F13503   4.299   2.433  31.638 -1.1890 -1.8388  2.2481
  126OSM   H15G13504   4.160   2.513  31.723 -1.6704 -1.2901 -0.7046
  126OSM   C16F13505   4.213   2.616  31.552 -0.3144 -0.3456  0.6760
  126OSM   H16F13506   4.120   2.674  31.572  0.5491  1.7586 -1.0121
  126OSM   H16G13507   4.227   2.594  31.444  2.7393 -1.2467  1.1608
  126OSM   C17F13508   4.336   2.699  31.602  0.3785  0.2603 -0.1231
  126OSM   H17F13509   4.435   2.650  31.584  0.5840 -0.2737  2.1691
  126OSM   H17G13510   4.322   2.714  31.711 -2.7178  0.8012 -0.5192
  126OSM   C18F13511   4.353   2.837  31.530 -0.2342  0.4507 -0.4621
  126OSM   H18F13512   4.460   2.867  31.540 -0.4270  0.7938  0.7297
  126OSM   H18G13513   4.286   2.916  31.570 -0.7576  0.3680 -1.1630
  126OSM   H18H13514   4.345   2.827  31.420  0.7421  2.4414 -0.7687
  127OSM      N13515   2.718   1.402  26.996 -0.8903  0.8972  0.8147
  127OSM    C1513516   2.827   1.495  26.934 -0.2028  0.0224 -0.1510
  127OSM   H15A13517   2.857   1.461  26.836  1.3831 -1.2059  0.7148
  127OSM   H15B13518   2.916   1.494  26.995 -1.2918  0.6395  1.5057
  127OSM   H15C13519   2.789   1.595  26.921 -0.5157  0.1261  1.4016
  127OSM    C1413520   2.586   1.412  26.921 -0.4269  0.6287  0.0855
  127OSM   H14A13521   2.554   1.515  26.931  0.9900  0.9439  1.6355
  127OSM   H14B13522   2.507   1.350  26.961  1.9695 -3.1547 -0.5707
  127OSM   H14C13523   2.598   1.368  26.823  1.7136 -0.3412  0.7361
  127OSM    C1313524   2.764   1.254  26.979 -0.3193 -0.6156  0.7106
  127OSM   H13A13525   2.693   1.184  27.021 -0.8518 -0.4060  0.1743
  127OSM   H13B13526   2.859   1.240  27.029  1.6335 -1.4664 -2.9042
  127OSM   H13C13527   2.787   1.228  26.877  2.1094 -1.4094  1.3895
  127OSM    C1213528   2.692   1.428  27.138  0.3605 -0.4259 -1.0543
  127OSM   H12A13529   2.650   1.339  27.182 -1.7302  1.1701  0.3466
  127OSM   H12B13530   2.622   1.508  27.153  0.3836 -0.8533  1.9437
  127OSM    C1113531   2.820   1.447  27.226 -0.5382  0.6825  1.0479
  127OSM   H11A13532   2.858   1.551  27.219 -0.7069  0.6651 -0.2552
  127OSM   H11B13533   2.901   1.376  27.200 -1.3301  0.7631 -2.0601
  127OSM      P13534   2.749   1.287  27.429  0.1593  0.0945  0.1309
  127OSM    O1313535   2.696   1.294  27.566  0.3506  0.3087 -0.2880
  127OSM    O1413536   2.669   1.209  27.337  0.6041 -0.3510  0.4845
  127OSM    O1113537   2.896   1.240  27.437  0.1767 -0.3537  0.0366
  127OSM    O1213538   2.784   1.430  27.366 -0.2001 -0.3106  0.3239
  127OSM    C1S13539   2.950   1.124  27.370 -0.3230 -0.3971  0.2485
  127OSM    H1S13540   2.894   1.086  27.283  1.9365 -1.3515 -0.8676
  127OSM    H1T13541   2.952   1.037  27.440 -1.2951 -0.1677  0.5762
  127OSM     NF13542   3.140   1.052  27.230 -0.1279  0.2856 -0.5814
  127OSM    HNF13543   3.182   0.973  27.272  2.4264  2.7792  2.0471
  127OSM    C2S13544   3.104   1.147  27.331 -0.4034 -0.2223  0.0866
  127OSM    H2S13545   3.103   1.248  27.286 -1.1370  0.8665  2.4027
  127OSM    C3S13546   3.185   1.151  27.461 -0.5119 -1.0621  0.8355
  127OSM    H3S13547   3.206   1.045  27.484  2.8428 -0.9168 -0.9089
  127OSM     O313548   3.122   1.208  27.574  0.2816  0.2122  0.6510
  127OSM    HO313549   3.029   1.203  27.554  0.3514 -2.2505  0.6085
  127OSM    C4S13550   3.323   1.202  27.437  0.4241 -0.6991 -0.3742
  127OSM    H4S13551   3.400   1.125  27.421  2.6841  1.6969 -1.6227
  127OSM    C5S13552   3.354   1.334  27.453 -0.7290  0.1906 -0.2006
  127OSM    H5S13553   3.276   1.408  27.476  0.1281  0.0833  3.7555
  127OSM    C6S13554   3.484   1.391  27.409 -0.8598 -0.1453 -0.0516
  127OSM    H6S13555   3.542   1.434  27.494  0.2924  2.0555 -1.8352
  127OSM    H6T13556   3.466   1.475  27.339  1.7257  1.3899  0.9498
  127OSM    C7S13557   3.578   1.297  27.341  0.5393  0.1744  0.0385
  127OSM    H7S13558   3.526   1.244  27.258 -3.2596  0.1200  2.2106
  127OSM    H7T13559   3.607   1.225  27.421  0.1810  1.0436  0.9830
  127OSM    C8S13560   3.709   1.356  27.298  0.5632  0.4457  0.0876
  127OSM    H8S13561   3.751   1.422  27.377 -1.9907  0.0819  1.8752
  127OSM    H8T13562   3.700   1.430  27.215 -1.7695 -0.6003 -0.6614
  127OSM    C9S13563   3.822   1.253  27.247  0.0383 -0.3072  0.0122
  127OSM    H9S13564   3.782   1.209  27.154 -1.0906 -0.6740  0.6455
  127OSM    H9T13565   3.829   1.173  27.324 -2.0916  0.4261  1.0521
  127OSM   C10S13566   3.957   1.313  27.225  0.0788 -0.4377  0.0854
  127OSM   H10S13567   4.004   1.343  27.321  3.9149 -1.1302 -1.3636
  127OSM   H10T13568   3.945   1.413  27.177  0.7948  0.0969  0.9793
  127OSM   C11S13569   4.059   1.228  27.148 -0.3300 -0.4630 -0.4543
  127OSM   H11S13570   4.071   1.123  27.184  0.5157  0.3097  1.6976
  127OSM   H11T13571   4.161   1.269  27.163  0.1911 -0.9520 -2.3974
  127OSM   C12S13572   4.043   1.218  27.000  0.0889 -1.1115  0.1615
  127OSM   H12S13573   4.059   1.318  26.956  0.3488 -0.5209  1.5335
  127OSM   H12T13574   3.939   1.188  26.977 -0.6973  1.0353  0.7449
  127OSM   C13S13575   4.131   1.124  26.927  0.2279 -0.4329 -0.0598
  127OSM   H13S13576   4.118   1.153  26.821 -0.8840  0.4613  0.3067
  127OSM   H13T13577   4.091   1.020  26.926  0.3588 -0.5106 -2.5918
  127OSM   C14S13578   4.287   1.130  26.958  0.1523  0.1999 -0.0042
  127OSM   H14S13579   4.293   1.097  27.063  0.6215 -1.8715 -0.6295
  127OSM   H14T13580   4.314   1.237  26.950 -0.4832  0.2600 -2.2179
  127OSM   C15S13581   4.371   1.041  26.871 -0.0252 -0.0899  0.9163
  127OSM   H15S13582   4.364   1.077  26.766  3.0203 -0.4716  0.4790
  127OSM   H15T13583   4.323   0.941  26.858  2.0745 -0.7846 -3.2940
  127OSM   C16S13584   4.522   1.047  26.897 -0.0210 -0.4135 -0.5301
  127OSM   H16S13585   4.552   1.153  26.913 -0.2757 -0.3875 -0.2103
  127OSM   H16T13586   4.574   1.016  26.805 -1.5080  1.6891 -2.1740
  127OSM   C17S13587   4.568   0.980  27.025 -0.5088  0.4792  0.0592
  127OSM   H17S13588   4.526   0.878  27.011  1.0590 -0.1128 -0.5817
  127OSM   H17T13589   4.521   1.018  27.118  0.0404  0.3454  0.3957
  127OSM   C18S13590   4.726   0.963  27.046  0.8771 -0.0343  0.2620
  127OSM   H18S13591   4.771   1.057  27.085  1.0940 -0.3325  0.7298
  127OSM   H18T13592   4.759   0.923  26.948  1.0667  0.6485  0.0389
  127OSM   H18U13593   4.748   0.891  27.128  1.2141  0.3856  0.5464
  127OSM    C1F13594   3.088   1.067  27.111 -0.0906 -0.2686  0.9037
  127OSM     OF13595   3.034   1.170  27.075 -0.0783  0.7171  0.3861
  127OSM    C2F13596   3.094   0.943  27.024  0.7296  0.0540 -0.3368
  127OSM    H2F13597   2.989   0.907  27.021  0.5653 -1.0933  5.8964
  127OSM    H2G13598   3.137   0.860  27.085  0.5205 -0.3421 -0.7220
  127OSM    C3F13599   3.172   0.963  26.884 -0.0138  0.0494 -0.2502
  127OSM    H3F13600   3.269   1.011  26.911  0.1205 -0.5389  0.3203
  127OSM    H3G13601   3.115   1.035  26.821 -1.4505 -2.7864 -2.3921
  127OSM    C4F13602   3.190   0.841  26.803  0.2682 -0.3698 -0.7082
  127OSM    H4F13603   3.224   0.889  26.708 -0.8192 -0.2962 -1.0728
  127OSM    H4G13604   3.099   0.779  26.789  1.6111 -2.2196 -1.7209
  127OSM    C5F13605   3.300   0.752  26.857 -0.0865 -0.5732 -0.3234
  127OSM    H5F13606   3.263   0.683  26.936 -0.0313 -0.0150  0.2044
  127OSM    H5G13607   3.379   0.817  26.901 -0.7289  0.5731 -0.8290
  127OSM    C6F13608   3.354   0.649  26.752 -0.5411  0.4479 -0.6521
  127OSM    H6F13609   3.435   0.594  26.804  1.1848  3.5680  0.2554
  127OSM    H6G13610   3.400   0.707  26.670  1.2734 -1.4242 -1.0236
  127OSM    C7F13611   3.246   0.569  26.684  0.6004  0.6364  0.0869
  127OSM    H7F13612   3.198   0.628  26.604 -0.5075  1.2386  1.1584
  127OSM    H7G13613   3.165   0.540  26.754 -0.6389 -0.6514 -1.7857
  127OSM    C8F13614   3.296   0.425  26.638 -0.0674 -0.3647  0.0469
  127OSM    H8F13615   3.205   0.368  26.609 -0.6185 -0.0319  1.0611
  127OSM    H8G13616   3.333   0.385  26.734  0.4818  2.1967  0.9870
  127OSM    C9F13617   3.399   0.448  26.532  0.1526  0.4628  0.1644
  127OSM    H9F13618   3.383   0.522  26.452 -0.1145 -2.9127 -3.1903
  127OSM   C10F13619   3.515   0.396  26.541 -0.5734  0.5547  0.0681
  127OSM   H10F13620   3.578   0.394  26.450 -2.3016  2.2119 -1.2559
  127OSM   C11F13621   3.561   0.307  26.658  0.2380 -0.4027 -0.3416
  127OSM   H11F13622   3.485   0.253  26.718  1.8620  0.5008  2.7941
  127OSM   H11G13623   3.608   0.376  26.731 -0.0890 -0.1864 -0.3320
  127OSM   C12F13624   3.666   0.197  26.627  0.0664 -0.0055  0.2265
  127OSM   H12F13625   3.750   0.228  26.562 -1.4096  1.7234 -0.9734
  127OSM   H12G13626   3.609   0.121  26.569  0.9309 -0.4446 -0.0608
  127OSM   C13F13627   3.708   0.114  26.755 -0.0444 -0.3129  0.4691
  127OSM   H13F13628   3.619   0.069  26.804 -1.1893 -1.3808 -2.3896
  127OSM   H13G13629   3.764   0.186  26.819 -2.0535  1.0389  0.8002
  127OSM   C14F13630   3.797  -0.004  26.714  0.4185 -0.1785  0.5935
  127OSM   H14F13631   3.777  -0.022  26.606  0.1710  0.6808  0.4894
  127OSM   H14G13632   3.750  -0.091  26.765 -1.1500 -1.1956 -2.3063
  127OSM   C15F13633   3.944   0.029  26.729 -0.0050 -0.2757 -0.4219
  127OSM   H15F13634   3.972   0.018  26.835 -0.2946 -0.5014 -0.3688
  127OSM   H15G13635   3.958   0.134  26.694 -1.3476  0.1246  0.1678
  127OSM   C16F13636   4.051  -0.056  26.655 -0.7292  0.5859 -0.0945
  127OSM   H16F13637   4.040  -0.062  26.544  0.8980  3.5420 -0.5159
  127OSM   H16G13638   4.021  -0.152  26.702 -1.8594  1.8777  1.9405
  127OSM   C17F13639   4.194  -0.035  26.688 -0.5986 -0.3531 -0.2359
  127OSM   H17F13640   4.251  -0.121  26.646  1.9934  0.1899  1.9228
  127OSM   H17G13641   4.217  -0.033  26.796  3.3804  3.6080 -0.8765
  127OSM   C18F13642   4.260   0.084  26.616 -0.2595 -0.0174  0.2174
  127OSM   H18F13643   4.364   0.095  26.652  0.6559 -2.3225 -1.4736
  127OSM   H18G13644   4.199   0.177  26.620 -1.5196 -0.7593 -0.8128
  127OSM   H18H13645   4.262   0.069  26.506  1.9530 -1.1611  0.3496
  128OSM      N13646   0.702   1.462  22.596 -0.3841 -0.4730  0.3933
  128OSM    C1513647   0.782   1.575  22.540  0.4387 -0.8867  0.9127
  128OSM   H15A13648   0.796   1.654  22.612 -0.2087 -0.3780  0.4790
  128OSM   H15B13649   0.742   1.616  22.449  0.6762  0.0591  1.2210
  128OSM   H15C13650   0.880   1.537  22.512 -0.1688 -1.0208 -1.1418
  128OSM    C1413651   0.768   1.400  22.715 -0.8365  0.3104 -0.1456
  128OSM   H14A13652   0.695   1.334  22.758  1.5716 -1.4496  1.5044
  128OSM   H14B13653   0.788   1.476  22.789 -2.0290 -0.6933  1.2544
  128OSM   H14C13654   0.852   1.343  22.676 -2.7292 -1.0613 -2.4433
  128OSM    C1313655   0.576   1.529  22.642  0.3256  0.2302 -0.3569
  128OSM   H13A13656   0.496   1.461  22.664  1.5681 -0.7624  1.3867
  128OSM   H13B13657   0.534   1.596  22.568 -0.1476  0.5131  0.1612
  128OSM   H13C13658   0.590   1.581  22.736 -1.1689 -1.3729  0.8266
  128OSM    C1213659   0.663   1.363  22.485 -0.2855 -0.0313 -1.1827
  128OSM   H12A13660   0.670   1.428  22.399  0.2201 -0.2130 -1.2823
  128OSM   H12B13661   0.563   1.326  22.501 -0.6273  2.1582  3.2697
  128OSM    C1113662   0.768   1.247  22.462  1.1482 -0.0126 -0.2306
  128OSM   H11A13663   0.733   1.200  22.367  3.3249 -0.9434 -0.6216
  128OSM   H11B13664   0.762   1.163  22.533 -0.6742 -0.0713 -0.4000
  128OSM      P13665   1.028   1.231  22.505 -0.2509  0.1163 -0.1162
  128OSM    O1313666   1.084   1.131  22.412 -0.8835  0.1630 -0.7209
  128OSM    O1413667   1.114   1.344  22.548 -0.1485 -0.4225  0.1074
  128OSM    O1113668   0.972   1.149  22.631  0.4046 -0.1117 -0.0961
  128OSM    O1213669   0.900   1.291  22.438 -0.0375 -0.8325 -0.1243
  128OSM    C1S13670   1.062   1.135  22.746  0.2857  0.7180  0.0625
  128OSM    H1S13671   1.068   1.235  22.795 -1.9708  1.0744 -0.2561
  128OSM    H1T13672   1.162   1.093  22.720  0.3984  1.0439 -0.0430
  128OSM     NF13673   1.093   1.031  22.972  0.1479 -0.0371 -0.6036
  128OSM    HNF13674   1.129   0.938  22.977 -0.4711 -0.3058 -1.1138
  128OSM    C2S13675   0.999   1.048  22.863 -0.2358 -0.1158 -0.0106
  128OSM    H2S13676   0.918   1.118  22.894  0.0763 -0.2440  1.1464
  128OSM    C3S13677   0.926   0.922  22.815 -0.3788 -0.0373  0.7722
  128OSM    H3S13678   1.002   0.851  22.776  1.4644  1.7880  0.8891
  128OSM     O313679   0.852   0.940  22.693  1.2822 -0.3647  0.1972
  128OSM    HO313680   0.877   1.031  22.675 -0.6160  0.2672  0.5872
  128OSM    C4S13681   0.845   0.863  22.925 -0.1846 -0.7293  0.5779
  128OSM    H4S13682   0.913   0.816  22.997 -1.6594  0.7855  3.1318
  128OSM    C5S13683   0.712   0.869  22.951  0.8251  0.1267  0.3914
  128OSM    H5S13684   0.657   0.937  22.885  2.9270  2.3124  0.7673
  128OSM    C6S13685   0.653   0.823  23.082 -0.0607  0.6369 -0.4714
  128OSM    H6S13686   0.689   0.728  23.127 -0.0022  1.0775  0.4397
  128OSM    H6T13687   0.545   0.803  23.068 -0.6264  1.0505  2.5552
  128OSM    C7S13688   0.673   0.932  23.186 -0.4301  0.9180 -0.2603
  128OSM    H7S13689   0.644   1.031  23.147 -2.8715  0.7750  0.9621
  128OSM    H7T13690   0.783   0.941  23.196  0.1824 -0.5966 -3.8809
  128OSM    C8S13691   0.610   0.885  23.322 -0.2391  0.5883 -0.2202
  128OSM    H8S13692   0.607   0.774  23.328 -0.5979  0.6702  2.1985
  128OSM    H8T13693   0.507   0.927  23.327 -0.7321 -0.5582 -0.3964
  128OSM    C9S13694   0.682   0.932  23.449 -0.3024  0.2347  0.0922
  128OSM    H9S13695   0.697   1.041  23.438  1.2944 -0.2304 -4.0841
  128OSM    H9T13696   0.785   0.893  23.459  0.2830  1.4755 -0.9532
  128OSM   C10S13697   0.607   0.881  23.574 -0.0314  0.4537 -0.1188
  128OSM   H10S13698   0.578   0.777  23.549 -0.6315  0.4878  0.4171
  128OSM   H10T13699   0.524   0.953  23.591 -0.4051  0.6342 -2.3976
  128OSM   C11S13700   0.697   0.891  23.703  0.6433  0.2720 -0.4842
  128OSM   H11S13701   0.754   0.796  23.694  2.1157  1.3022 -2.8977
  128OSM   H11T13702   0.637   0.880  23.796  0.5474 -1.8945 -0.7410
  128OSM   C12S13703   0.778   1.021  23.713  0.0142  0.0041  0.4333
  128OSM   H12S13704   0.704   1.102  23.702  0.2130 -0.0842 -2.0277
  128OSM   H12T13705   0.863   1.024  23.642  0.8223 -0.4278  1.3420
  128OSM   C13S13706   0.844   1.047  23.848 -0.1185  0.3460 -0.2455
  128OSM   H13S13707   0.762   1.066  23.921  0.5052 -1.9779  1.2030
  128OSM   H13T13708   0.907   1.137  23.831  0.6257 -0.5683 -2.8245
  128OSM   C14S13709   0.930   0.929  23.905  0.1776 -0.3254  0.0535
  128OSM   H14S13710   0.859   0.846  23.929 -2.5155  1.7460 -0.1820
  128OSM   H14T13711   0.983   0.959  23.997  0.3346  2.0305 -0.7316
  128OSM   C15S13712   1.034   0.888  23.800 -0.2889 -0.7652 -0.1116
  128OSM   H15S13713   0.997   0.873  23.697  1.3105  0.5296 -0.9193
  128OSM   H15T13714   1.089   0.794  23.825  2.3205  0.9505  1.1390
  128OSM   C16S13715   1.148   0.997  23.785  0.5940 -0.3078 -0.3597
  128OSM   H16S13716   1.206   1.008  23.879 -1.2649 -0.3261  0.8527
  128OSM   H16T13717   1.111   1.101  23.769  1.6005 -0.2952 -3.1030
  128OSM   C17S13718   1.243   0.969  23.666 -0.2017 -0.0328  0.3800
  128OSM   H17S13719   1.302   1.061  23.647 -0.4654 -0.2970 -2.0185
  128OSM   H17T13720   1.184   0.958  23.572 -1.0815 -1.9051  1.0988
  128OSM   C18S13721   1.347   0.854  23.685 -0.5023  0.2314  0.2808
  128OSM   H18S13722   1.415   0.887  23.766  1.2265 -1.6433 -0.3319
  128OSM   H18T13723   1.402   0.824  23.594 -1.0511 -2.6674  0.7917
  128OSM   H18U13724   1.302   0.760  23.723 -1.0725  1.2717  2.3353
  128OSM    C1F13725   1.148   1.123  23.040 -0.3514 -0.6305  0.0755
  128OSM     OF13726   1.130   1.244  23.023 -0.0432  0.0151  0.0100
  128OSM    C2F13727   1.246   1.083  23.149  0.0578  0.3894  0.5928
  128OSM    H2F13728   1.336   1.149  23.155 -0.0487  0.3727  3.7145
  128OSM    H2G13729   1.300   0.992  23.115 -2.6645 -1.1547  0.1528
  128OSM    C3F13730   1.185   1.082  23.293  0.4940  0.5549  0.1569
  128OSM    H3F13731   1.122   1.172  23.309 -0.2652 -0.0757  0.7866
  128OSM    H3G13732   1.260   1.094  23.374 -1.5320  2.7174  1.8434
  128OSM    C4F13733   1.093   0.965  23.324 -0.7157  0.2997  0.1426
  128OSM    H4F13734   1.012   0.969  23.248 -1.6531  0.8297  1.1508
  128OSM    H4G13735   1.048   0.984  23.424 -0.9646  0.1542  0.0579
  128OSM    C5F13736   1.149   0.824  23.336 -0.1154 -0.5452 -0.3170
  128OSM    H5F13737   1.241   0.831  23.399 -2.1847 -0.2324  2.9493
  128OSM    H5G13738   1.168   0.784  23.234 -0.6761 -0.5065 -0.4410
  128OSM    C6F13739   1.053   0.725  23.406  0.3979 -0.7939 -0.4455
  128OSM    H6F13740   0.978   0.697  23.329 -0.8572 -0.4426  0.6106
  128OSM    H6G13741   0.999   0.775  23.490  0.3102  0.6820 -1.3545
  128OSM    C7F13742   1.133   0.602  23.469  0.4256 -0.4064  0.0957
  128OSM    H7F13743   1.217   0.627  23.537  1.4199 -0.7348 -0.9758
  128OSM    H7G13744   1.173   0.553  23.378 -2.1569  2.1670 -2.6218
  128OSM    C8F13745   1.046   0.496  23.542 -0.5822 -0.7701 -0.5856
  128OSM    H8F13746   0.991   0.435  23.467 -0.3120 -1.9817  0.1700
  128OSM    H8G13747   0.959   0.544  23.591 -0.5587 -2.3265  1.0829
  128OSM    C9F13748   1.120   0.407  23.641  0.3613 -0.4446 -0.4926
  128OSM    H9F13749   1.156   0.313  23.595 -2.5152 -1.0753 -1.7162
  128OSM   C10F13750   1.110   0.404  23.776 -0.6757  0.1616 -0.0511
  128OSM   H10F13751   1.153   0.316  23.824 -0.4842  0.0442 -0.4327
  128OSM   C11F13752   1.032   0.497  23.865 -0.1347 -0.5367 -0.4624
  128OSM   H11F13753   0.942   0.440  23.898 -0.1449 -0.9481 -1.2010
  128OSM   H11G13754   0.996   0.593  23.822  1.9726  1.6697  2.3168
  128OSM   C12F13755   1.113   0.540  23.985  0.2941  0.4404 -0.5673
  128OSM   H12F13756   1.192   0.613  23.956  1.6512 -0.9384 -0.4797
  128OSM   H12G13757   1.162   0.448  24.025  1.1520  0.3723 -1.7077
  128OSM   C13F13758   1.021   0.595  24.097  0.5362 -0.0344  0.2042
  128OSM   H13F13759   0.931   0.530  24.109  1.3153 -1.7548 -2.4725
  128OSM   H13G13760   0.980   0.695  24.075 -2.2153 -1.6189 -2.7030
  128OSM   C14F13761   1.099   0.594  24.229  0.5307  0.5141 -0.0674
  128OSM   H14F13762   1.150   0.693  24.238  0.0792  0.5588  2.8995
  128OSM   H14G13763   1.181   0.520  24.237  0.6007  0.6361  0.3959
  128OSM   C15F13764   1.020   0.557  24.352  0.2071 -0.0513 -0.2897
  128OSM   H15F13765   1.091   0.563  24.438  0.8955  0.5282 -0.8838
  128OSM   H15G13766   0.992   0.450  24.341 -1.8524  0.2103  1.6947
  128OSM   C16F13767   0.891   0.646  24.369  0.5320 -0.0214  0.1285
  128OSM   H16F13768   0.825   0.648  24.280  1.5606 -0.4668 -0.6637
  128OSM   H16G13769   0.924   0.752  24.360  0.0770  0.1342  0.2640
  128OSM   C17F13770   0.808   0.622  24.493 -0.1362  0.5243 -1.0593
  128OSM   H17F13771   0.876   0.595  24.577  0.5196 -0.9451 -2.0080
  128OSM   H17G13772   0.731   0.544  24.481 -0.7753  0.4468  2.5298
  128OSM   C18F13773   0.742   0.741  24.546 -0.0245  0.3261  0.5652
  128OSM   H18F13774   0.651   0.761  24.485  0.6628  0.5270 -0.4180
  128OSM   H18G13775   0.808   0.829  24.533  1.2696 -0.8044 -0.8058
  128OSM   H18H13776   0.700   0.726  24.648 -1.9968 -0.2373 -0.2812
  129OSM      N13777   2.798   0.367  28.774  0.2309  0.1349  0.2579
  129OSM    C1513778   2.809   0.398  28.925  0.5638 -0.7777  0.9042
  129OSM   H15A13779   2.712   0.399  28.972 -0.2783  1.1975 -0.7111
  129OSM   H15B13780   2.859   0.491  28.946  0.4057 -1.0875  2.7878
  129OSM   H15C13781   2.880   0.326  28.963  1.2010 -0.7388 -0.1767
  129OSM    C1413782   2.723   0.236  28.773 -0.7847 -0.0730 -0.5112
  129OSM   H14A13783   2.773   0.165  28.836 -1.7971 -1.4983 -1.2520
  129OSM   H14B13784   2.705   0.193  28.675 -0.5011 -1.4789  0.0374
  129OSM   H14C13785   2.624   0.256  28.812 -0.3666 -2.2510  1.9324
  129OSM    C1313786   2.713   0.472  28.699  0.7204  0.3175  0.7712
  129OSM   H13A13787   2.708   0.451  28.593 -0.8239  0.2640  0.8364
  129OSM   H13B13788   2.750   0.572  28.716  1.4183  0.2348 -0.1244
  129OSM   H13C13789   2.611   0.468  28.733 -0.7473 -1.2325 -3.1941
  129OSM    C1213790   2.933   0.366  28.705  0.1633  0.1282  0.4109
  129OSM   H12A13791   2.915   0.379  28.599 -0.6548  0.0304  0.5310
  129OSM   H12B13792   2.978   0.269  28.716  1.9000  0.9636  0.9680
  129OSM    C1113793   3.033   0.478  28.747  0.5726  0.1966 -0.5319
  129OSM   H11A13794   3.131   0.467  28.696  1.3169 -4.1327  1.3513
  129OSM   H11B13795   3.057   0.466  28.855  0.7384 -0.7888 -0.6639
  129OSM      P13796   2.996   0.734  28.815 -0.1023  0.0760 -0.2858
  129OSM    O1313797   2.893   0.828  28.767  0.4357 -0.0903  0.2184
  129OSM    O1413798   2.982   0.684  28.952  0.2129  0.2059  0.7809
  129OSM    O1113799   3.133   0.794  28.792 -0.4016 -0.3894 -0.1703
  129OSM    O1213800   2.989   0.610  28.721  0.1544 -0.1063  0.1406
  129OSM    C1S13801   3.253   0.722  28.846 -0.0380 -0.1051  0.5689
  129OSM    H1S13802   3.229   0.621  28.886  1.9463 -0.8808 -0.1224
  129OSM    H1T13803   3.301   0.774  28.932 -0.4567 -0.3194  0.9375
  129OSM     NF13804   3.476   0.620  28.774  0.0619 -0.4906  0.0292
  129OSM    HNF13805   3.542   0.668  28.831  0.3177 -0.3607 -0.3700
  129OSM    C2S13806   3.369   0.715  28.735 -0.1097 -0.0453  0.2652
  129OSM    H2S13807   3.319   0.665  28.649  3.1326 -1.2337 -1.0945
  129OSM    C3S13808   3.425   0.855  28.699  0.4550  0.0602  0.7127
  129OSM    H3S13809   3.457   0.897  28.796  1.5226 -0.9018  0.7987
  129OSM     O313810   3.326   0.941  28.643  0.0229 -0.4036 -0.6407
  129OSM    HO313811   3.244   0.902  28.676  1.2932 -1.7089  1.1107
  129OSM    C4S13812   3.542   0.839  28.598  0.0154  0.4872 -0.2361
  129OSM    H4S13813   3.519   0.777  28.510 -2.5385  1.1924 -0.1309
  129OSM    C5S13814   3.667   0.896  28.608 -0.6110 -0.0187 -0.7684
  129OSM    H5S13815   3.693   0.968  28.687 -0.5986  0.9609 -1.6463
  129OSM    C6S13816   3.778   0.871  28.503  0.6739  0.3484 -0.1303
  129OSM    H6S13817   3.856   0.811  28.554 -0.3024 -1.2131 -0.3904
  129OSM    H6T13818   3.818   0.968  28.466 -0.3332  0.9467  0.3167
  129OSM    C7S13819   3.739   0.798  28.371 -0.1174 -0.5595 -0.1535
  129OSM    H7S13820   3.649   0.854  28.339  1.5923  2.5373  0.1034
  129OSM    H7T13821   3.706   0.695  28.398  1.2762 -0.7386  0.9689
  129OSM    C8S13822   3.850   0.799  28.264  0.0701  0.2494  0.1932
  129OSM    H8S13823   3.915   0.710  28.278  0.8136  0.5801 -1.0410
  129OSM    H8T13824   3.913   0.890  28.266  3.1504 -1.5912 -2.5723
  129OSM    C9S13825   3.814   0.785  28.117  0.2626  1.0192 -0.7085
  129OSM    H9S13826   3.907   0.809  28.060 -0.0934  0.2206 -1.6435
  129OSM    H9T13827   3.742   0.860  28.079 -0.7131  1.1076  1.2183
  129OSM   C10S13828   3.753   0.648  28.066  0.0619 -0.0034  0.8202
  129OSM   H10S13829   3.658   0.645  28.122  0.3498 -0.1935  1.3006
  129OSM   H10T13830   3.807   0.556  28.098  0.9047  0.5968  1.1721
  129OSM   C11S13831   3.738   0.636  27.914 -0.1562  0.3988 -0.9639
  129OSM   H11S13832   3.837   0.622  27.865 -0.5854 -3.6937 -1.0118
  129OSM   H11T13833   3.696   0.734  27.884  1.2958  1.5521  0.5776
  129OSM   C12S13834   3.638   0.526  27.882 -0.2419  0.6816 -0.5108
  129OSM   H12S13835   3.542   0.557  27.929 -0.3700 -0.6150  0.1373
  129OSM   H12T13836   3.668   0.434  27.937 -3.9204 -0.2604  0.1949
  129OSM   C13S13837   3.615   0.503  27.729 -0.4003  0.1839  0.1124
  129OSM   H13S13838   3.706   0.461  27.681 -0.5993  0.0220 -0.1244
  129OSM   H13T13839   3.591   0.602  27.685  0.7579  0.8185  0.8488
  129OSM   C14S13840   3.493   0.417  27.695  0.0718  0.7658 -0.5091
  129OSM   H14S13841   3.463   0.425  27.588 -1.0770 -1.9523 -0.4589
  129OSM   H14T13842   3.404   0.464  27.742 -0.8367 -2.9460  1.8491
  129OSM   C15S13843   3.509   0.269  27.730  0.4759  0.7613 -0.2450
  129OSM   H15S13844   3.411   0.223  27.753  0.3990  0.7129 -0.6632
  129OSM   H15T13845   3.577   0.256  27.817  1.6397  1.9715 -0.9174
  129OSM   C16S13846   3.543   0.190  27.602  0.2563 -0.0136 -0.4612
  129OSM   H16S13847   3.639   0.228  27.561  1.9895 -2.5377  1.0087
  129OSM   H16T13848   3.468   0.217  27.524  0.0470 -0.8458 -0.5611
  129OSM   C17S13849   3.543   0.040  27.628  0.3874  0.9363  0.9566
  129OSM   H17S13850   3.557  -0.007  27.528 -2.9371 -0.0192  0.8286
  129OSM   H17T13851   3.437   0.015  27.651 -0.0018  0.7431 -0.8802
  129OSM   C18S13852   3.651  -0.009  27.721 -0.6466  0.2010 -0.2049
  129OSM   H18S13853   3.623   0.027  27.822 -1.7996  0.2421 -0.5253
  129OSM   H18T13854   3.751   0.032  27.695 -1.1564  1.7165  0.0744
  129OSM   H18U13855   3.668  -0.118  27.712 -2.6741  0.0374 -4.7631
  129OSM    C1F13856   3.452   0.487  28.769  0.5090  0.0290  0.5277
  129OSM     OF13857   3.361   0.437  28.700  0.3261 -0.5517 -0.4654
  129OSM    C2F13858   3.551   0.390  28.833  0.4086  0.3902 -0.1292
  129OSM    H2F13859   3.557   0.300  28.769  1.7309  1.2755 -1.3113
  129OSM    H2G13860   3.518   0.364  28.936  1.1791 -2.2684 -0.4966
  129OSM    C3F13861   3.696   0.454  28.841  0.4992 -1.1332  0.4705
  129OSM    H3F13862   3.764   0.382  28.891  0.7212 -1.0107  0.3432
  129OSM    H3G13863   3.691   0.548  28.899  2.7783 -1.5049  1.3641
  129OSM    C4F13864   3.769   0.466  28.706  0.4776 -0.5588 -0.0877
  129OSM    H4F13865   3.718   0.540  28.641  0.6781  1.3648  1.8433
  129OSM    H4G13866   3.780   0.368  28.655 -2.3883  0.6098 -3.2931
  129OSM    C5F13867   3.917   0.500  28.723  0.4223  0.2980 -0.5839
  129OSM    H5F13868   3.966   0.441  28.803  1.6556  0.0158 -1.5182
  129OSM    H5G13869   3.919   0.604  28.762  2.1270  0.3345 -0.7291
  129OSM    C6F13870   3.993   0.469  28.592  0.2584 -0.3919  0.5732
  129OSM    H6F13871   3.938   0.502  28.501  3.2109  0.1810 -1.1180
  129OSM    H6G13872   3.995   0.358  28.582  2.3687 -0.2584 -1.1516
  129OSM    C7F13873   4.130   0.539  28.604  0.1709  0.7874  1.2057
  129OSM    H7F13874   4.169   0.474  28.686  1.3822 -2.6409 -1.8173
  129OSM    H7G13875   4.133   0.646  28.633  0.9586  0.7020  1.4871
  129OSM    C8F13876   4.228   0.517  28.486  0.2814 -0.6465  0.2875
  129OSM    H8F13877   4.240   0.407  28.476 -4.2521 -1.3534  0.2203
  129OSM    H8G13878   4.324   0.559  28.521 -0.2552  1.0235 -0.1694
  129OSM    C9F13879   4.197   0.574  28.351  0.0531 -0.4594  0.0205
  129OSM    H9F13880   4.216   0.683  28.349 -0.8032 -0.2469  1.7254
  129OSM   C10F13881   4.154   0.509  28.240 -0.2406  0.1655  0.7530
  129OSM   H10F13882   4.138   0.566  28.147 -1.6085  2.1217  2.0914
  129OSM   C11F13883   4.093   0.372  28.236  1.0237  0.2042  0.5443
  129OSM   H11F13884   3.983   0.387  28.227  1.2247  0.1584 -3.3737
  129OSM   H11G13885   4.109   0.311  28.328 -0.0025  0.4849  0.9294
  129OSM   C12F13886   4.134   0.301  28.106  0.1508  0.7890  0.0845
  129OSM   H12F13887   4.132   0.194  28.138 -0.5097  1.1447  1.3080
  129OSM   H12G13888   4.242   0.322  28.092  0.1567  1.1269  0.5848
  129OSM   C13F13889   4.039   0.318  27.982  0.4127 -0.1492  0.5894
  129OSM   H13F13890   4.066   0.417  27.940  1.0056  0.3472  2.0452
  129OSM   H13G13891   3.932   0.303  28.007  0.8108  1.2999  3.7094
  129OSM   C14F13892   4.080   0.227  27.863  0.5703  0.0184 -0.7874
  129OSM   H14F13893   4.029   0.128  27.860  0.1497  0.1869  0.2793
  129OSM   H14G13894   4.191   0.222  27.857  0.6392  1.0446 -0.4772
  129OSM   C15F13895   4.029   0.288  27.734 -0.0017 -0.0141  0.3397
  129OSM   H15F13896   4.090   0.379  27.720  0.0731 -0.2947 -1.3272
  129OSM   H15G13897   3.920   0.306  27.737  0.0391  0.0847  2.1446
  129OSM   C16F13898   4.063   0.184  27.624  0.1919 -0.0585  0.9415
  129OSM   H16F13899   3.990   0.099  27.626  0.5048 -0.4431 -1.2810
  129OSM   H16G13900   4.164   0.148  27.655  0.4453  1.3823  1.8764
  129OSM   C17F13901   4.068   0.244  27.484 -0.1289  0.0224 -0.3767
  129OSM   H17F13902   3.977   0.307  27.477 -0.5580 -0.5611 -0.0737
  129OSM   H17G13903   4.049   0.155  27.420 -0.0834 -1.3675  1.4470
  129OSM   C18F13904   4.214   0.297  27.455 -0.1572  0.3516 -0.8185
  129OSM   H18F13905   4.271   0.203  27.439 -1.8653 -0.8819  0.0246
  129OSM   H18G13906   4.255   0.349  27.544  0.8088 -0.3955 -0.8113
  129OSM   H18H13907   4.222   0.348  27.357  0.7252 -2.2911 -2.2035
  130OSM      N13908   0.108   1.260  22.228 -0.0430  0.0258 -0.3786
  130OSM    C1513909   0.206   1.218  22.332 -0.6062 -0.2769 -0.8047
  130OSM   H15A13910   0.201   1.110  22.339  1.7493 -0.3217  1.3956
  130OSM   H15B13911   0.173   1.266  22.423  1.2816 -0.4757  0.0316
  130OSM   H15C13912   0.303   1.251  22.300  0.7633 -2.2234  1.0686
  130OSM    C1413913   0.106   1.410  22.234  0.2659  0.3019  0.1505
  130OSM   H14A13914   0.065   1.451  22.325 -1.4499  0.1230 -0.4890
  130OSM   H14B13915   0.054   1.454  22.150 -0.3932  0.4845  0.6506
  130OSM   H14C13916   0.209   1.442  22.232  0.0538  1.0035  0.3993
  130OSM    C1313917   0.166   1.230  22.091  0.2728 -0.1764  0.1842
  130OSM   H13A13918   0.266   1.269  22.079  0.2648 -0.2702 -0.2172
  130OSM   H13B13919   0.089   1.263  22.023 -0.4117 -0.4333  0.8302
  130OSM   H13C13920   0.176   1.123  22.079  1.5002  0.1412 -2.3138
  130OSM    C1213921  -0.033   1.209  22.258 -0.6575  0.5289 -0.1134
  130OSM   H12A13922  -0.029   1.103  22.238  1.4812  0.2433  1.4557
  130OSM   H12B13923  -0.100   1.259  22.190 -0.1473  2.6271  0.8606
  130OSM    C1113924  -0.085   1.236  22.403  0.8844  0.3552  0.4389
  130OSM   H11A13925  -0.028   1.184  22.483  1.8771  0.6302 -0.0833
  130OSM   H11B13926  -0.181   1.180  22.407  0.9565 -0.0711 -1.9120
  130OSM      P13927  -0.241   1.436  22.445  0.0360 -0.1918 -0.6572
  130OSM    O1313928  -0.223   1.575  22.497  0.2320 -0.2209  0.5610
  130OSM    O1413929  -0.314   1.428  22.316 -0.9151  0.4140 -0.3317
  130OSM    O1113930  -0.319   1.357  22.562  0.4748  0.4252 -0.1472
  130OSM    O1213931  -0.094   1.372  22.444  0.0220 -0.4187  0.2288
  130OSM    C1S13932  -0.281   1.359  22.700 -0.0812 -0.2611  0.2108
  130OSM    H1S13933  -0.249   1.461  22.730  0.0155 -0.0261 -0.6580
  130OSM    H1T13934  -0.192   1.294  22.714  0.4188  0.5177  0.7100
  130OSM     NF13935  -0.340   1.328  22.936 -0.4725 -0.7315  0.0040
  130OSM    HNF13936  -0.320   1.237  22.971 -1.8028 -1.0311  0.0014
  130OSM    C2S13937  -0.395   1.326  22.803 -0.2320 -0.1636  0.0184
  130OSM    H2S13938  -0.466   1.410  22.787  0.1617  0.6562  2.2628
  130OSM    C3S13939  -0.476   1.201  22.766 -0.4003  0.1254  0.4121
  130OSM    H3S13940  -0.414   1.110  22.780  0.7716  1.1706  2.6304
  130OSM     O313941  -0.513   1.202  22.629  0.2490  0.1091  0.6210
  130OSM    HO313942  -0.449   1.266  22.599 -0.3542 -0.5555 -2.4522
  130OSM    C4S13943  -0.591   1.167  22.855 -0.2576 -0.0318  0.3278
  130OSM    H4S13944  -0.572   1.088  22.929  3.2069  1.0390  0.7768
  130OSM    C5S13945  -0.702   1.240  22.851 -0.7260  0.0596  0.4048
  130OSM    H5S13946  -0.719   1.323  22.780 -4.1495 -1.0642 -0.2987
  130OSM    C6S13947  -0.819   1.219  22.936  0.2400  0.1493 -1.0050
  130OSM    H6S13948  -0.887   1.155  22.875 -0.1327  0.9447 -1.4374
  130OSM    H6T13949  -0.867   1.316  22.961 -0.8685 -1.0221  1.7531
  130OSM    C7S13950  -0.796   1.150  23.075  0.4208 -0.0863  1.2245
  130OSM    H7S13951  -0.756   1.048  23.058 -0.2527 -0.0894 -0.5103
  130OSM    H7T13952  -0.895   1.128  23.120 -0.1507  0.6847  0.3841
  130OSM    C8S13953  -0.698   1.227  23.167  0.1682 -0.7035 -0.6946
  130OSM    H8S13954  -0.729   1.332  23.187  1.6234 -0.4275  0.2904
  130OSM    H8T13955  -0.598   1.227  23.118  1.2423 -2.5294  1.3297
  130OSM    C9S13956  -0.675   1.164  23.310  0.3688 -0.2954 -0.3178
  130OSM    H9S13957  -0.623   1.066  23.311 -2.3911 -1.8570  0.0480
  130OSM    H9T13958  -0.781   1.147  23.339 -0.0936  0.7036 -1.3516
  130OSM   C10S13959  -0.615   1.269  23.406 -0.5742  0.0495 -0.6166
  130OSM   H10S13960  -0.676   1.361  23.392 -1.5701 -0.4700  0.1039
  130OSM   H10T13961  -0.519   1.291  23.356  0.2714 -0.4552  0.7183
  130OSM   C11S13962  -0.589   1.233  23.552 -0.0693  0.6012  0.0970
  130OSM   H11S13963  -0.516   1.151  23.565  0.0857  0.3659 -1.9653
  130OSM   H11T13964  -0.695   1.218  23.581 -0.3285  0.8659 -0.6676
  130OSM   C12S13965  -0.540   1.362  23.624  0.0413  0.8352  0.1800
  130OSM   H12S13966  -0.596   1.455  23.600 -1.4527 -0.4934 -1.7364
  130OSM   H12T13967  -0.438   1.382  23.585 -1.0310  0.0575 -3.4106
  130OSM   C13S13968  -0.553   1.342  23.773 -0.6655 -0.4454  0.3060
  130OSM   H13S13969  -0.484   1.258  23.794 -0.2591 -0.0468  0.5784
  130OSM   H13T13970  -0.652   1.311  23.813 -0.7209 -0.1990  0.3639
  130OSM   C14S13971  -0.500   1.467  23.853  0.2884  0.1313  0.3295
  130OSM   H14S13972  -0.575   1.549  23.855  2.4433  2.1741  2.7665
  130OSM   H14T13973  -0.412   1.510  23.802 -0.5396  0.5793 -0.7765
  130OSM   C15S13974  -0.462   1.428  23.997  0.0555 -0.3662  0.4306
  130OSM   H15S13975  -0.371   1.365  24.001  1.3058  1.0815 -2.2830
  130OSM   H15T13976  -0.549   1.370  24.034  1.0528 -1.2465  1.4707
  130OSM   C16S13977  -0.436   1.557  24.074 -0.4468  0.1559  0.1320
  130OSM   H16S13978  -0.532   1.613  24.083 -0.9390 -0.6520  0.0045
  130OSM   H16T13979  -0.359   1.625  24.032  1.7505 -1.6150  1.0734
  130OSM   C17S13980  -0.386   1.526  24.215 -0.9617  0.5235  0.5479
  130OSM   H17S13981  -0.289   1.474  24.204 -0.7060  0.8752  1.1040
  130OSM   H17T13982  -0.460   1.462  24.268 -0.4642 -0.1625  0.4269
  130OSM   C18S13983  -0.357   1.644  24.302  0.3828 -0.6678  0.1396
  130OSM   H18S13984  -0.329   1.734  24.243  0.1446  0.9247  2.3158
  130OSM   H18T13985  -0.279   1.636  24.381  0.5353  3.0592  0.5792
  130OSM   H18U13986  -0.446   1.685  24.354  1.5251  3.3322 -0.6931
  130OSM    C1F13987  -0.313   1.442  22.993  0.6512 -0.0799  0.1832
  130OSM     OF13988  -0.309   1.549  22.939  0.2663 -0.2633 -0.5477
  130OSM    C2F13989  -0.294   1.424  23.137 -0.7982  0.5120 -0.7826
  130OSM    H2F13990  -0.196   1.374  23.155 -1.2879  0.3490  1.8025
  130OSM    H2G13991  -0.370   1.350  23.171 -2.1593  1.0833 -2.4463
  130OSM    C3F13992  -0.305   1.557  23.213  0.2183  0.2680 -0.1754
  130OSM    H3F13993  -0.405   1.603  23.197 -0.4121 -0.1690  2.2269
  130OSM    H3G13994  -0.220   1.624  23.186  0.5556 -0.1025 -0.0340
  130OSM    C4F13995  -0.295   1.529  23.365  0.5996 -0.0477  0.7035
  130OSM    H4F13996  -0.379   1.463  23.397 -0.4759 -0.1278 -2.0277
  130OSM    H4G13997  -0.292   1.631  23.409 -0.6788  0.7220 -0.8610
  130OSM    C5F13998  -0.159   1.462  23.396 -0.2268  0.7968  0.1337
  130OSM    H5F13999  -0.076   1.497  23.331  1.1367 -0.4625  1.1378
  130OSM    H5G14000  -0.172   1.353  23.378  1.5515  0.3467  1.2813
  130OSM    C6F14001  -0.115   1.471  23.545 -0.1581  0.4116 -0.5906
  130OSM    H6F14002  -0.018   1.420  23.562  0.8598  1.4640 -2.8007
  130OSM    H6G14003  -0.194   1.424  23.608  0.5220 -0.4130 -0.3361
  130OSM    C7F14004  -0.104   1.613  23.593 -0.6587 -0.0102 -0.4420
  130OSM    H7F14005  -0.205   1.658  23.600 -0.6778 -0.2905  2.0605
  130OSM    H7G14006  -0.051   1.664  23.509  1.5226 -1.1281  0.1839
  130OSM    C8F14007  -0.028   1.636  23.725 -0.3324 -0.1873  0.5991
  130OSM    H8F14008  -0.024   1.745  23.743 -1.4654 -0.4163  2.5503
  130OSM    H8G14009   0.080   1.610  23.718  0.2024  2.1500 -0.7745
  130OSM    C9F14010  -0.088   1.561  23.840 -0.8038  0.3813  0.3124
  130OSM    H9F14011  -0.161   1.485  23.809 -0.0057 -0.0810 -0.4721
  130OSM   C10F14012  -0.086   1.609  23.963 -0.4723  0.2532  0.3821
  130OSM   H10F14013  -0.131   1.546  24.042  0.8951 -1.6917 -0.3071
  130OSM   C11F14014   0.002   1.724  24.009 -0.0348  0.0962  0.2350
  130OSM   H11F14015  -0.025   1.823  23.965 -2.0145  0.5467  2.3257
  130OSM   H11G14016   0.099   1.693  23.964 -0.6486 -1.8519  0.1733
  130OSM   C12F14017   0.002   1.727  24.155 -0.1705  0.2320  0.1274
  130OSM   H12F14018   0.017   1.630  24.206 -1.7810 -1.0179 -1.6385
  130OSM   H12G14019  -0.100   1.761  24.184 -1.0083 -1.4085 -0.7703
  130OSM   C13F14020   0.096   1.830  24.205 -0.3551  0.4189 -0.0576
  130OSM   H13F14021   0.078   1.927  24.155 -0.0093 -0.0888 -1.1855
  130OSM   H13G14022   0.199   1.791  24.193 -0.9624 -1.0826 -0.5593
  130OSM   C14F14023   0.083   1.858  24.352 -0.0817  0.1655 -0.0257
  130OSM   H14F14024   0.106   1.763  24.406 -0.8821 -0.6761 -1.1359
  130OSM   H14G14025  -0.018   1.894  24.382  0.2324  1.2579 -0.2239
  130OSM   C15F14026   0.181   1.965  24.407 -0.0685 -0.1958 -0.1517
  130OSM   H15F14027   0.175   2.064  24.358  1.0126  0.7073  1.4336
  130OSM   H15G14028   0.280   1.919  24.385 -0.0601 -0.4283  0.3551
  130OSM   C16F14029   0.186   2.009  24.558  0.8311  1.2573 -0.2341
  130OSM   H16F14030   0.092   2.065  24.581  1.8556  2.8428  0.2665
  130OSM   H16G14031   0.266   2.084  24.573  1.2889  0.6155  0.5401
  130OSM   C17F14032   0.211   1.900  24.656 -0.1134 -0.2425 -0.3488
  130OSM   H17F14033   0.271   1.821  24.606  0.7215 -0.2664  0.6437
  130OSM   H17G14034   0.117   1.849  24.685  0.3459 -0.9476 -0.0441
  130OSM   C18F14035   0.276   1.958  24.776  0.0906  0.5407 -0.2715
  130OSM   H18F14036   0.330   1.881  24.835 -0.6636  1.2649  1.4183
  130OSM   H18G14037   0.193   2.005  24.833  1.0965  1.5867  0.3761
  130OSM   H18H14038   0.357   2.031  24.753  1.1133  0.1362  1.8229
  131OSM      N14039   2.523   2.437  26.526  0.6052 -0.0070  0.1143
  131OSM    C1514040   2.552   2.508  26.398 -0.2910  0.9528 -0.0894
  131OSM   H15A14041   2.492   2.461  26.322 -0.5293  0.6613  0.2734
  131OSM   H15B14042   2.653   2.493  26.363 -1.8020 -1.6741 -4.0006
  131OSM   H15C14043   2.528   2.613  26.402 -4.9450  0.0980 -0.5429
  131OSM    C1414044   2.373   2.434  26.541 -0.0282 -0.5651  0.5139
  131OSM   H14A14045   2.344   2.538  26.532  0.9382 -0.2555  0.8603
  131OSM   H14B14046   2.344   2.391  26.635 -1.1048  1.0682  0.9756
  131OSM   H14C14047   2.329   2.390  26.452  2.3766  1.2934 -1.7639
  131OSM    C1314048   2.566   2.291  26.527  0.1967  0.4692  0.4495
  131OSM   H13A14049   2.674   2.290  26.537  0.0298  0.9394  2.9398
  131OSM   H13B14050   2.542   2.239  26.436  1.3828 -2.2850  1.6068
  131OSM   H13C14051   2.510   2.234  26.600 -2.8920  0.3154 -1.8532
  131OSM    C1214052   2.577   2.510  26.646 -0.4182 -0.1495  0.1077
  131OSM   H12A14053   2.684   2.515  26.645 -0.4223  0.0400  0.4588
  131OSM   H12B14054   2.553   2.449  26.732  0.7870 -1.2640 -0.3115
  131OSM    C1114055   2.519   2.653  26.680 -0.4828  0.0852  0.5965
  131OSM   H11A14056   2.557   2.683  26.780  0.9620  0.9542 -0.1765
  131OSM   H11B14057   2.411   2.645  26.704 -0.6531  0.3735 -0.0620
  131OSM      P14058   2.647   2.850  26.544 -0.2096 -0.1384 -0.5352
  131OSM    O1314059   2.678   2.835  26.401  0.5158 -0.3218 -0.0641
  131OSM    O1414060   2.607   2.983  26.586 -0.2657  0.6058 -0.4348
  131OSM    O1114061   2.778   2.808  26.626 -0.0425 -0.0268  0.8203
  131OSM    O1214062   2.534   2.754  26.580 -0.7172 -0.3542  0.4571
  131OSM    C1S14063   2.883   2.723  26.557 -0.0919 -0.1552  0.4067
  131OSM    H1S14064   2.905   2.768  26.458  1.7262  0.1369  0.9025
  131OSM    H1T14065   2.836   2.625  26.536 -1.1033  0.3269  0.3793
  131OSM     NF14066   3.126   2.677  26.552  0.3004  0.5628  0.4268
  131OSM    HNF14067   3.163   2.585  26.555 -1.7667 -0.4939 -2.0845
  131OSM    C2S14068   3.009   2.705  26.641 -0.5473 -0.0961  0.5849
  131OSM    H2S14069   3.034   2.803  26.687  0.1429  0.3924 -0.7775
  131OSM    C3S14070   2.971   2.593  26.749 -0.0023 -0.4284 -1.1163
  131OSM    H3S14071   2.953   2.498  26.694  1.0697 -0.0699 -2.1230
  131OSM     O314072   2.845   2.630  26.804  0.3575 -0.1955  0.2008
  131OSM    HO314073   2.825   2.710  26.756  0.2418  0.2169  0.9217
  131OSM    C4S14074   3.086   2.556  26.847  0.7294  0.1645  0.2253
  131OSM    H4S14075   3.138   2.643  26.891 -0.8846  1.2028  0.1428
  131OSM    C5S14076   3.128   2.430  26.874 -0.0814 -0.0207  0.8144
  131OSM    H5S14077   3.071   2.342  26.841  0.0505 -0.7076  2.3498
  131OSM    C6S14078   3.242   2.389  26.961 -0.0354 -0.1931 -0.1259
  131OSM    H6S14079   3.276   2.290  26.925  0.4732  0.4288 -1.4233
  131OSM    H6T14080   3.198   2.382  27.063 -3.0494 -2.1164 -1.4317
  131OSM    C7S14081   3.359   2.484  26.953 -0.6017 -0.4730 -0.2471
  131OSM    H7S14082   3.434   2.458  27.031 -1.5394 -1.8742  0.2394
  131OSM    H7T14083   3.331   2.591  26.965 -1.3456 -0.2277 -3.3701
  131OSM    C8S14084   3.449   2.462  26.826  0.3957 -0.3873  0.2340
  131OSM    H8S14085   3.377   2.473  26.742  0.3446  1.8421  0.4907
  131OSM    H8T14086   3.476   2.354  26.826 -1.4046 -0.8789  1.1103
  131OSM    C9S14087   3.564   2.554  26.817  0.0827 -0.0639  0.2493
  131OSM    H9S14088   3.618   2.551  26.914 -0.8875 -0.8756  0.7859
  131OSM    H9T14089   3.534   2.658  26.791 -0.4643 -0.2822 -0.0200
  131OSM   C10S14090   3.658   2.516  26.701  0.1775  0.1516  0.2448
  131OSM   H10S14091   3.736   2.595  26.705 -1.5984  1.9991  0.2216
  131OSM   H10T14092   3.605   2.526  26.604  1.3982 -2.0761 -0.7400
  131OSM   C11S14093   3.701   2.364  26.712 -0.2814  0.5928  0.2511
  131OSM   H11S14094   3.617   2.295  26.688  0.4592 -0.5083  0.7430
  131OSM   H11T14095   3.737   2.359  26.817  2.7260  3.2861 -0.5067
  131OSM   C12S14096   3.820   2.333  26.614  0.4854 -0.8325 -0.6237
  131OSM   H12S14097   3.872   2.242  26.651 -1.4156 -1.4186  0.7914
  131OSM   H12T14098   3.884   2.422  26.632  0.5625 -1.1118  0.6099
  131OSM   C13S14099   3.775   2.310  26.464 -0.0111  0.2295  0.1081
  131OSM   H13S14100   3.734   2.397  26.410  0.7683  1.3722  1.2868
  131OSM   H13T14101   3.688   2.243  26.477  0.8733 -0.7998  0.9904
  131OSM   C14S14102   3.884   2.231  26.382  0.1107  0.4868  0.2923
  131OSM   H14S14103   3.935   2.162  26.452 -0.2776  0.4175  0.5116
  131OSM   H14T14104   3.963   2.305  26.355  2.0969 -1.3011  0.9402
  131OSM   C15S14105   3.834   2.157  26.256  0.4649  0.2476 -0.0456
  131OSM   H15S14106   3.773   2.068  26.283  0.5953  0.8766  2.5790
  131OSM   H15T14107   3.918   2.128  26.190  0.2045 -0.0979 -0.2285
  131OSM   C16S14108   3.739   2.239  26.162 -0.5851  0.7615 -0.4929
  131OSM   H16S14109   3.791   2.335  26.143 -0.0567  0.3012 -1.4294
  131OSM   H16T14110   3.648   2.266  26.221 -0.2785 -0.4360  0.5668
  131OSM   C17S14111   3.692   2.164  26.033 -0.5068  0.1843 -0.0363
  131OSM   H17S14112   3.781   2.153  25.967  0.2676 -0.7052  1.1330
  131OSM   H17T14113   3.620   2.220  25.968  0.2870  2.1661  0.6960
  131OSM   C18S14114   3.645   2.016  26.037  0.7399  0.5835 -0.1646
  131OSM   H18S14115   3.725   1.958  26.088 -0.3752 -3.1629 -2.2769
  131OSM   H18T14116   3.628   1.966  25.939  1.9454 -1.2960  0.5245
  131OSM   H18U14117   3.558   2.021  26.106  1.5929  2.6565  0.8259
  131OSM    C1F14118   3.180   2.779  26.489 -0.1678 -0.3353  0.0675
  131OSM     OF14119   3.132   2.893  26.503  0.1902  0.1791 -0.0471
  131OSM    C2F14120   3.311   2.756  26.418  0.2980 -0.1624 -0.9453
  131OSM    H2F14121   3.374   2.683  26.473  0.9797  2.1028  1.4535
  131OSM    H2G14122   3.375   2.845  26.431  0.2440 -0.5598  3.5763
  131OSM    C3F14123   3.305   2.700  26.271  0.4444 -0.2408  0.5376
  131OSM    H3F14124   3.212   2.745  26.230  1.9982  1.7651 -0.9876
  131OSM    H3G14125   3.299   2.590  26.288 -0.0629 -0.5329 -1.2995
  131OSM    C4F14126   3.428   2.740  26.191  0.8546 -0.1714  0.0130
  131OSM    H4F14127   3.523   2.711  26.242  1.2089  1.9406  0.6522
  131OSM    H4G14128   3.422   2.851  26.186  2.3328 -0.1028 -0.8918
  131OSM    C5F14129   3.423   2.681  26.056 -0.1240  0.7949  0.6176
  131OSM    H5F14130   3.328   2.679  25.998  0.9885  0.7373 -1.2528
  131OSM    H5G14131   3.452   2.574  26.061 -0.2400  0.7179 -0.3321
  131OSM    C6F14132   3.532   2.729  25.960 -0.0211  0.3243 -0.5994
  131OSM    H6F14133   3.626   2.714  26.018 -1.0170  0.5377  1.1447
  131OSM    H6G14134   3.525   2.840  25.951  0.5217  0.3115 -1.2644
  131OSM    C7F14135   3.531   2.652  25.826  0.2966 -0.4168 -1.0140
  131OSM    H7F14136   3.432   2.662  25.778  0.1126 -0.6697 -0.6891
  131OSM    H7G14137   3.532   2.546  25.862 -0.6560  0.0659  0.5238
  131OSM    C8F14138   3.645   2.690  25.735 -0.3725 -0.5941  0.4627
  131OSM    H8F14139   3.750   2.689  25.771 -0.3628 -0.5683  0.4337
  131OSM    H8G14140   3.631   2.795  25.701  1.2897 -0.3493  0.4265
  131OSM    C9F14141   3.646   2.595  25.616  0.2398 -1.0083 -0.4617
  131OSM    H9F14142   3.647   2.490  25.647 -0.4317 -0.4512  1.6425
  131OSM   C10F14143   3.647   2.626  25.484  0.3472 -0.3195 -0.0789
  131OSM   H10F14144   3.642   2.542  25.414  0.8530 -0.5038  0.1002
  131OSM   C11F14145   3.657   2.757  25.414  0.3427 -1.4138  0.3461
  131OSM   H11F14146   3.680   2.830  25.494 -0.4985  0.6186 -1.2001
  131OSM   H11G14147   3.558   2.778  25.367  0.6414  0.6657  0.5697
  131OSM   C12F14148   3.770   2.753  25.303 -0.0705  0.1513 -0.1216
  131OSM   H12F14149   3.734   2.692  25.217 -0.9818 -2.9899  2.2880
  131OSM   H12G14150   3.851   2.695  25.352 -1.7900 -3.6698 -1.3464
  131OSM   C13F14151   3.815   2.896  25.267 -0.4295  0.4693 -0.4005
  131OSM   H13F14152   3.724   2.958  25.250 -1.7612 -1.2437  0.1398
  131OSM   H13G14153   3.867   2.880  25.171 -0.7832 -1.4508 -0.3077
  131OSM   C14F14154   3.904   2.974  25.370  0.2268 -0.3577  0.1212
  131OSM   H14F14155   3.987   2.907  25.399  0.6741  0.1667  0.0592
  131OSM   H14G14156   3.850   2.995  25.465  1.6307  2.6516  0.3787
  131OSM   C15F14157   3.962   3.113  25.327  0.4110 -0.1675 -0.1812
  131OSM   H15F14158   3.996   3.109  25.221  0.1001  3.3214 -0.5099
  131OSM   H15G14159   4.042   3.143  25.398  2.1481  2.0569 -2.8612
  131OSM   C16F14160   3.861   3.234  25.309 -0.0184  0.1983 -0.0717
  131OSM   H16F14161   3.926   3.324  25.303  0.9835 -0.5335 -0.7005
  131OSM   H16G14162   3.798   3.250  25.399 -0.8188 -1.1175 -0.3720
  131OSM   C17F14163   3.781   3.246  25.182 -0.1065  0.1002  0.0046
  131OSM   H17F14164   3.722   3.152  25.174  0.9801 -0.6248  0.3077
  131OSM   H17G14165   3.840   3.257  25.089 -1.2800  2.7611 -0.5219
  131OSM   C18F14166   3.688   3.360  25.195  0.0013 -0.1959  0.9067
  131OSM   H18F14167   3.750   3.450  25.215 -2.9212  2.0079  0.7222
  131OSM   H18G14168   3.628   3.338  25.286  1.6414 -0.4690  1.9556
  131OSM   H18H14169   3.632   3.390  25.103  1.8394 -1.0143 -0.5539
  132OSM      N14170   2.169   0.556  26.647 -0.1422 -0.1101  0.4849
  132OSM    C1514171   2.298   0.621  26.616  0.1841  0.0872  0.0826
  132OSM   H15A14172   2.317   0.702  26.686  1.4594  0.9277 -1.1885
  132OSM   H15B14173   2.312   0.647  26.512  0.6840  1.5375  0.4766
  132OSM   H15C14174   2.382   0.557  26.639  1.1647  1.8036  1.6035
  132OSM    C1414175   2.163   0.428  26.579  0.6859 -0.4718 -0.7668
  132OSM   H14A14176   2.183   0.445  26.474 -1.6014  0.9945 -1.0416
  132OSM   H14B14177   2.067   0.384  26.601  0.3765  1.7671  3.3337
  132OSM   H14C14178   2.231   0.354  26.619 -1.6006 -1.7933  0.9271
  132OSM    C1314179   2.154   0.537  26.798  0.4455 -0.2148 -0.0026
  132OSM   H13A14180   2.229   0.476  26.845 -0.2776 -0.1858  1.2259
  132OSM   H13B14181   2.067   0.475  26.814  0.4891 -0.8696 -2.0166
  132OSM   H13C14182   2.140   0.630  26.852  1.0266  0.9822 -1.7969
  132OSM    C1214183   2.060   0.640  26.577 -0.2267  0.6666 -0.6370
  132OSM   H12A14184   2.050   0.731  26.634  0.9508  1.3284 -1.4521
  132OSM   H12B14185   1.968   0.587  26.599  1.9461 -2.3665  1.9482
  132OSM    C1114186   2.048   0.677  26.424  0.4577  0.1728  0.1702
  132OSM   H11A14187   2.145   0.717  26.388  0.4367 -0.3072 -0.4521
  132OSM   H11B14188   1.966   0.750  26.417  1.1628  0.9404 -0.2709
  132OSM      P14189   1.986   0.552  26.199  0.0330 -0.3219  0.2101
  132OSM    O1314190   2.046   0.665  26.127 -0.3207  0.0237 -0.1661
  132OSM    O1414191   2.007   0.413  26.149  0.3729 -0.2526 -0.1108
  132OSM    O1114192   1.831   0.587  26.199  0.5263  0.8699 -0.0992
  132OSM    O1214193   2.029   0.556  26.353 -0.0580  0.0671 -0.2062
  132OSM    C1S14194   1.755   0.503  26.102  0.4923  0.5919 -0.6140
  132OSM    H1S14195   1.700   0.427  26.161  1.0311 -1.3439 -2.4773
  132OSM    H1T14196   1.821   0.445  26.034 -0.6103 -0.9460 -0.4359
  132OSM     NF14197   1.571   0.487  25.932 -0.2705 -0.0428 -0.2177
  132OSM    HNF14198   1.577   0.508  25.834 -1.4714 -1.0283 -0.5255
  132OSM    C2S14199   1.649   0.575  26.016  0.2387 -0.5290  0.0640
  132OSM    H2S14200   1.575   0.607  26.093 -0.2140 -1.6336  0.1125
  132OSM    C3S14201   1.695   0.705  25.949 -0.5271  0.4934 -0.2366
  132OSM    H3S14202   1.779   0.681  25.881 -0.5377  1.9237 -0.7776
  132OSM     O314203   1.767   0.790  26.037 -0.3049  0.0896 -0.3600
  132OSM    HO314204   1.771   0.743  26.122 -0.9828  0.1845 -0.2697
  132OSM    C4S14205   1.601   0.784  25.851 -0.4086  0.7908 -0.0538
  132OSM    H4S14206   1.581   0.724  25.760 -0.6552  1.0340 -0.1609
  132OSM    C5S14207   1.539   0.893  25.885 -0.7467 -0.4200  0.2644
  132OSM    H5S14208   1.560   0.946  25.980 -1.1582 -0.0803  0.1694
  132OSM    C6S14209   1.435   0.962  25.798  0.4164  0.7173 -0.3486
  132OSM    H6S14210   1.359   1.008  25.865  0.4622 -0.2934  0.4263
  132OSM    H6T14211   1.386   0.898  25.721  0.7008 -0.3360  0.3213
  132OSM    C7S14212   1.500   1.087  25.737 -0.1798  0.8788  0.4635
  132OSM    H7S14213   1.578   1.048  25.668 -2.5637 -2.1948 -0.7199
  132OSM    H7T14214   1.551   1.147  25.816 -0.3157  1.3220  0.2164
  132OSM    C8S14215   1.415   1.181  25.658  0.2692  0.5415  0.5217
  132OSM    H8S14216   1.366   1.234  25.742  1.1912  2.5351 -0.1435
  132OSM    H8T14217   1.337   1.121  25.606  0.9413  0.3128 -0.2522
  132OSM    C9S14218   1.471   1.284  25.559  0.1701 -0.1051 -0.4501
  132OSM    H9S14219   1.525   1.227  25.481 -1.1910 -0.9532 -0.8068
  132OSM    H9T14220   1.536   1.352  25.618 -3.0608  0.4321  2.8953
  132OSM   C10S14221   1.360   1.372  25.487  0.9523  0.3433  0.2678
  132OSM   H10S14222   1.268   1.318  25.457  1.0900  1.3213 -2.1484
  132OSM   H10T14223   1.396   1.420  25.394 -2.0257  0.5092 -0.9141
  132OSM   C11S14224   1.310   1.491  25.573 -0.5717 -0.1146  0.2721
  132OSM   H11S14225   1.292   1.447  25.673 -0.9496 -1.4960 -0.3841
  132OSM   H11T14226   1.212   1.533  25.541 -0.1503  2.5428  2.0933
  132OSM   C12S14227   1.395   1.622  25.584 -0.5438 -0.3206  0.4829
  132OSM   H12S14228   1.404   1.662  25.480  0.1930  0.3273  0.7903
  132OSM   H12T14229   1.496   1.607  25.626 -0.3691  0.7905  0.5062
  132OSM   C13S14230   1.323   1.730  25.666 -0.3452  0.2571  0.2781
  132OSM   H13S14231   1.278   1.681  25.755 -0.1400 -0.0569  0.2075
  132OSM   H13T14232   1.244   1.760  25.595  0.6256 -0.4010 -1.1182
  132OSM   C14S14233   1.411   1.845  25.710  0.1989 -0.2241  0.1064
  132OSM   H14S14234   1.509   1.806  25.742 -0.4351 -2.3210 -0.3529
  132OSM   H14T14235   1.356   1.896  25.792 -1.8325  0.7454 -1.7251
  132OSM   C15S14236   1.428   1.942  25.599 -0.1701 -0.5524  0.9121
  132OSM   H15S14237   1.326   1.970  25.566 -0.3833  0.0213  1.9796
  132OSM   H15T14238   1.492   1.897  25.520  1.1629  0.8399  1.1238
  132OSM   C16S14239   1.512   2.066  25.636 -0.1229 -0.8651  0.3763
  132OSM   H16S14240   1.610   2.035  25.679 -0.7484 -1.1706  1.6486
  132OSM   H16T14241   1.462   2.140  25.702  2.4746  1.6228 -0.2541
  132OSM   C17S14242   1.528   2.157  25.510  0.8914  0.0097  0.4205
  132OSM   H17S14243   1.426   2.166  25.466  1.0612 -1.2387 -0.3122
  132OSM   H17T14244   1.594   2.103  25.438 -1.1982 -2.9239  0.5165
  132OSM   C18S14245   1.574   2.297  25.540  0.3546 -0.9460 -0.0463
  132OSM   H18S14246   1.662   2.301  25.608  0.0531 -0.3624  0.3186
  132OSM   H18T14247   1.501   2.363  25.591  2.0573  0.9300  0.0993
  132OSM   H18U14248   1.606   2.352  25.450 -1.2901  2.3901  1.2275
  132OSM    C1F14249   1.512   0.375  25.979  0.4905 -0.5677 -0.4292
  132OSM     OF14250   1.513   0.338  26.092 -0.0302  1.0697 -0.4026
  132OSM    C2F14251   1.437   0.297  25.876 -0.3188  0.2919  0.2268
  132OSM    H2F14252   1.522   0.260  25.814  1.5147  1.6263  1.8319
  132OSM    H2G14253   1.382   0.373  25.816 -0.0446 -0.6011 -1.2208
  132OSM    C3F14254   1.348   0.187  25.933 -1.0259  0.3300 -0.5220
  132OSM    H3F14255   1.295   0.228  26.022  0.1493  0.0080  0.3510
  132OSM    H3G14256   1.410   0.103  25.973 -1.5887  1.4605  3.1123
  132OSM    C4F14257   1.242   0.132  25.831 -0.0100  0.0746 -0.4658
  132OSM    H4F14258   1.303   0.130  25.738  0.0489 -0.5334 -0.4171
  132OSM    H4G14259   1.159   0.204  25.815 -0.3229 -0.0973  0.3663
  132OSM    C5F14260   1.197  -0.010  25.858  0.0687  0.2337  0.0246
  132OSM    H5F14261   1.273  -0.082  25.894 -1.4597 -1.3844  0.1586
  132OSM    H5G14262   1.161  -0.045  25.759  1.4217 -0.3842 -0.2611
  132OSM    C6F14263   1.076  -0.013  25.946  0.5209 -0.3531 -0.3567
  132OSM    H6F14264   0.992   0.039  25.896 -0.4542 -0.8480  0.7312
  132OSM    H6G14265   1.089   0.035  26.045 -3.0431  1.2768 -0.5352
  132OSM    C7F14266   1.012  -0.144  25.991  0.7707 -0.2997  0.3266
  132OSM    H7F14267   0.930  -0.107  26.057 -0.1320  1.2040 -1.5335
  132OSM    H7G14268   1.082  -0.198  26.057  1.1092  1.1352  1.1896
  132OSM    C8F14269   0.960  -0.228  25.872  0.0456  0.1417  0.1921
  132OSM    H8F14270   1.047  -0.277  25.823  1.2379  2.6498 -0.3663
  132OSM    H8G14271   0.918  -0.160  25.796  3.3356  0.5411 -1.4664
  132OSM    C9F14272   0.867  -0.329  25.936  0.1614 -0.0489  1.0848
  132OSM    H9F14273   0.864  -0.327  26.046  2.0214  2.9087  1.2021
  132OSM   C10F14274   0.763  -0.392  25.871 -0.4144 -0.6884 -0.1321
  132OSM   H10F14275   0.700  -0.453  25.937  0.6317 -0.2420  1.3252
  132OSM   C11F14276   0.738  -0.410  25.731  0.8375  0.2080 -0.5426
  132OSM   H11F14277   0.811  -0.344  25.679  1.7516  0.3366  0.8683
  132OSM   H11G14278   0.639  -0.371  25.699  0.3822  1.1419  1.8209
  132OSM   C12F14279   0.764  -0.550  25.672 -0.1334  0.1144 -0.2546
  132OSM   H12F14280   0.743  -0.546  25.563 -0.4870  1.5766 -0.1610
  132OSM   H12G14281   0.680  -0.610  25.713 -0.8336 -0.0790 -1.8989
  132OSM   C13F14282   0.899  -0.621  25.701 -0.6325 -0.2836  0.0697
  132OSM   H13F14283   0.909  -0.640  25.810  2.7545  0.7906  0.0718
  132OSM   H13G14284   0.974  -0.545  25.671 -0.4688  0.2559  1.7167
  132OSM   C14F14285   0.921  -0.749  25.617 -0.0629  0.1402  0.7391
  132OSM   H14F14286   0.906  -0.727  25.509 -1.1086 -0.4880  0.7394
  132OSM   H14G14287   0.835  -0.817  25.636 -1.2780  1.1716 -0.8196
  132OSM   C15F14288   1.057  -0.824  25.628  0.0466 -0.7230 -0.1560
  132OSM   H15F14289   1.140  -0.765  25.583 -0.5980  0.3543  0.0331
  132OSM   H15G14290   1.045  -0.918  25.568  1.4992 -1.9554  1.3714
  132OSM   C16F14291   1.080  -0.859  25.773  0.0204 -0.1506  0.3955
  132OSM   H16F14292   0.982  -0.896  25.811 -0.7127  0.0527 -1.1769
  132OSM   H16G14293   1.122  -0.771  25.826  1.4768  0.0225 -0.9553
  132OSM   C17F14294   1.198  -0.957  25.784 -0.9559  0.3909  0.5393
  132OSM   H17F14295   1.173  -1.050  25.729  1.1635  0.2136 -0.2202
  132OSM   H17G14296   1.196  -0.992  25.889 -0.1558  1.7071  1.0266
  132OSM   C18F14297   1.336  -0.907  25.749 -0.3292 -0.3541  0.8560
  132OSM   H18F14298   1.419  -0.973  25.781  0.7505 -0.0036 -1.0829
  132OSM   H18G14299   1.353  -0.803  25.784 -1.2218  0.4961 -1.1239
  132OSM   H18H14300   1.338  -0.901  25.638  1.2072 -0.4942  0.8525
  133SAPE     N14301   1.038   2.882  38.576 -0.5177  0.2416 -0.0630
  133SAPE   HN114302   1.128   2.904  38.622  0.3561 -1.8452 -0.6748
  133SAPE   HN214303   0.962   2.943  38.612 -0.5994 -1.2197  2.4830
  133SAPE   HN314304   1.018   2.783  38.603  0.1925 -0.3212 -1.4778
  133SAPE   C1214305   1.037   2.892  38.423 -0.0459  0.8119 -0.3813
  133SAPE  H12A14306   1.046   2.999  38.397  1.2396  0.7270 -0.3514
  133SAPE  H12B14307   0.936   2.868  38.384 -0.7478  2.1889  0.5436
  133SAPE   C1114308   1.149   2.817  38.344 -0.0850 -0.2840  0.2997
  133SAPE  H11A14309   1.248   2.858  38.375 -0.0418 -1.5827  1.9874
  133SAPE  H11B14310   1.127   2.829  38.236 -1.6463  2.0720  0.8174
  133SAPE     P14311   1.211   2.586  38.462 -0.4104 -0.0632 -0.5908
  133SAPE   O1314312   1.170   2.616  38.605  0.2699  0.7297  0.3245
  133SAPE   O1414313   1.205   2.452  38.415 -0.3752  0.9009 -0.5922
  133SAPE   O1214314   1.126   2.674  38.363  0.0477  0.6061  0.6181
  133SAPE   O1114315   1.356   2.643  38.460 -0.5084 -0.7174  0.1706
  133SAPE    C114316   1.443   2.626  38.349 -0.0925  0.7071 -0.2009
  133SAPE    HA14317   1.396   2.576  38.262  0.6640 -0.3494 -0.0265
  133SAPE    HB14318   1.472   2.732  38.331 -1.5133  1.2112  0.2967
  133SAPE    C214319   1.573   2.562  38.386 -0.9504  0.2695  0.1913
  133SAPE    HS14320   1.537   2.462  38.418 -1.4564  0.2592 -0.4035
  133SAPE   O2114321   1.633   2.645  38.484 -0.4335 -0.4072 -0.2903
  133SAPE   C2114322   1.705   2.588  38.573 -0.2083 -0.0253  0.0764
  133SAPE   O2214323   1.708   2.469  38.596  0.3144  0.2086 -0.4332
  133SAPE   C2214324   1.797   2.695  38.638  0.1133  0.4604 -0.4134
  133SAPE   H2R14325   1.825   2.758  38.551  0.1988  0.8971 -0.0715
  133SAPE   H2S14326   1.732   2.755  38.705  1.5356 -0.2882  1.7528
  133SAPE    C314327   1.673   2.550  38.261 -0.0111 -0.1660 -0.3536
  133SAPE    HX14328   1.697   2.653  38.226  0.1997  1.0440  3.0225
  133SAPE    HY14329   1.618   2.511  38.173  0.9478 -0.6513 -0.7522
  133SAPE   O3114330   1.791   2.474  38.302  0.1246 -0.1153  0.0387
  133SAPE   C3114331   1.787   2.343  38.272 -0.1686  0.2918 -0.0438
  133SAPE   O3214332   1.712   2.281  38.195 -0.1533 -0.3829 -0.5952
  133SAPE   C3214333   1.899   2.288  38.344  0.3846 -0.5532 -0.4613
  133SAPE   H2X14334   1.863   2.228  38.430 -1.2864  0.7532 -0.1954
  133SAPE   H2Y14335   1.964   2.367  38.388 -1.0939 -0.4760  1.7613
  133SAPE   C2314336   1.921   2.633  38.725 -0.0074 -0.0939  1.0841
  133SAPE   H3R14337   1.882   2.545  38.781  0.0213 -1.7243 -1.3025
  133SAPE   H3S14338   1.975   2.703  38.792  3.3209  0.6229 -2.0389
  133SAPE   C2414339   2.030   2.583  38.630  0.0915 -0.3651 -0.0497
  133SAPE   H4R14340   1.992   2.527  38.542  0.9695  1.6496 -1.7998
  133SAPE   H4S14341   2.099   2.512  38.681 -0.0681  0.4305  1.3079
  133SAPE   C2514342   2.103   2.701  38.568 -0.3402 -0.5508  0.4742
  133SAPE   H5R14343   2.044   2.759  38.496  0.7502 -0.0141 -0.0079
  133SAPE   C2614344   2.228   2.746  38.593  0.1042  0.3054 -0.9707
  133SAPE   H6R14345   2.263   2.838  38.543  0.8528  0.6469  0.1522
  133SAPE   C2714346   2.319   2.676  38.690 -0.3882 -0.5550  0.4762
  133SAPE   H7R14347   2.311   2.572  38.654 -1.5430 -0.5635  0.7463
  133SAPE   H7S14348   2.285   2.681  38.795  0.2317  0.6311  0.6408
  133SAPE   C2814349   2.467   2.712  38.673  0.7253  0.8974 -0.3468
  133SAPE   H8R14350   2.520   2.644  38.605  1.7064  0.1712  1.0959
  133SAPE   C2914351   2.536   2.802  38.752  0.3437 -0.8851 -0.6050
  133SAPE   H9R14352   2.645   2.815  38.748  0.2248  1.1415  1.2160
  133SAPE  C21014353   2.469   2.880  38.866 -0.6498  0.3558 -0.5683
  133SAPE  H10R14354   2.456   2.816  38.956 -1.2743  0.9669 -0.2146
  133SAPE  H10S14355   2.370   2.918  38.833  0.5898  1.8507 -2.7883
  133SAPE  C21114356   2.557   2.999  38.905  0.2677  0.0946  0.1401
  133SAPE  H11R14357   2.630   2.979  38.985  2.3260  1.9713 -1.1609
  133SAPE  C21214358   2.563   3.125  38.850 -0.5454 -0.5793 -0.3888
  133SAPE  H12R14359   2.639   3.194  38.889 -0.1446 -0.5462 -1.2187
  133SAPE  C21314360   2.488   3.182  38.732  0.2811  0.5589 -0.5249
  133SAPE  H13R14361   2.445   3.279  38.767 -0.3198  0.3659 -0.7319
  133SAPE  H13S14362   2.404   3.113  38.714  1.3450 -0.3893 -2.1009
  133SAPE  C21414363   2.575   3.195  38.615  0.7062  0.4236  0.5424
  133SAPE  H14R14364   2.616   3.100  38.576 -0.3436  0.7186 -1.3804
  133SAPE  C21514365   2.632   3.308  38.569  0.0233 -0.2044  0.7351
  133SAPE  H15R14366   2.705   3.308  38.486 -0.1971  1.4206  0.5195
  133SAPE  C21614367   2.598   3.449  38.608  0.0560  0.4724  0.2127
  133SAPE  H16R14368   2.503   3.452  38.665  0.6172  1.9550  1.1038
  133SAPE  H16S14369   2.576   3.502  38.513  2.0839  0.9685 -0.0420
  133SAPE  C21714370   2.701   3.542  38.684  0.5849 -0.6480 -0.4018
  133SAPE  H17R14371   2.701   3.523  38.793  0.0912 -0.6192 -0.3962
  133SAPE  H17S14372   2.664   3.646  38.675  0.5185 -0.6117  0.2446
  133SAPE  C21814373   2.845   3.532  38.630 -0.6709  0.5108 -0.2437
  133SAPE  H18R14374   2.881   3.428  38.642 -2.0826  0.0124 -0.1375
  133SAPE  H18S14375   2.899   3.599  38.701 -3.2536  1.3089  1.1197
  133SAPE  C21914376   2.856   3.576  38.487 -1.5651 -0.2108  0.6763
  133SAPE  H19R14377   2.813   3.676  38.466 -0.1640  0.5010  1.1105
  133SAPE  H19S14378   2.802   3.503  38.423 -0.9560  0.9652 -1.2618
  133SAPE  C22014379   3.002   3.578  38.445  0.3264  0.1872 -0.2653
  133SAPE  H20R14380   3.039   3.473  38.455 -3.4389 -1.3273 -0.5230
  133SAPE  H20S14381   3.054   3.652  38.509  1.1313 -0.9747  0.4684
  133SAPE  H20T14382   3.012   3.603  38.337 -0.1996  0.5645 -0.2292
  133SAPE   C3314383   1.988   2.203  38.254  0.2272 -0.1873 -0.0122
  133SAPE   H3X14384   1.929   2.122  38.206  0.9365  0.2357 -1.6721
  133SAPE   H3Y14385   2.055   2.144  38.320  0.4503  0.5810  0.4624
  133SAPE   C3414386   2.078   2.289  38.162 -0.3359 -0.2543 -0.4419
  133SAPE   H4X14387   2.025   2.359  38.094 -0.2261  0.0599 -0.1999
  133SAPE   H4Y14388   2.121   2.214  38.092 -0.5419 -0.4421 -0.3716
  133SAPE   C3514389   2.185   2.374  38.232 -0.1283  0.2636  0.7342
  133SAPE   H5X14390   2.131   2.442  38.301 -0.3766  0.5562  0.2567
  133SAPE   H5Y14391   2.241   2.436  38.159  0.8335 -0.6703  0.6497
  133SAPE   C3614392   2.282   2.289  38.316 -0.6436  0.5074  0.0891
  133SAPE   H6X14393   2.345   2.217  38.259  1.0837  3.3369 -1.7945
  133SAPE   H6Y14394   2.222   2.232  38.391 -1.8004 -1.0873 -1.9479
  133SAPE   C3714395   2.384   2.384  38.393  0.3473  0.9699 -0.5403
  133SAPE   H7X14396   2.444   2.323  38.464  2.2118  1.2193 -1.8413
  133SAPE   H7Y14397   2.328   2.463  38.447  0.1556 -0.2983  1.2352
  133SAPE   C3814398   2.499   2.449  38.300  0.1854  0.1118 -0.0152
  133SAPE   H8X14399   2.446   2.528  38.242 -0.2871 -0.8271 -0.8847
  133SAPE   H8Y14400   2.521   2.371  38.224  1.8732 -2.3369  2.7608
  133SAPE   C3914401   2.623   2.501  38.384  0.4830  0.6330 -0.2989
  133SAPE   H9X14402   2.708   2.430  38.377  0.3299  0.4896 -0.7620
  133SAPE   H9Y14403   2.584   2.516  38.487 -1.4198  1.3519 -1.0825
  133SAPE  C31014404   2.672   2.635  38.342 -0.5566  0.1857 -0.1170
  133SAPE  H10X14405   2.612   2.711  38.395  0.4166  0.6385  0.3469
  133SAPE  H10Y14406   2.662   2.649  38.232 -0.0686 -0.1736 -0.2157
  133SAPE  C31114407   2.823   2.661  38.366 -0.8773  0.3501 -0.3822
  133SAPE  H11X14408   2.881   2.577  38.323  0.5781  1.1390 -0.0042
  133SAPE  H11Y14409   2.836   2.637  38.474 -1.1048 -2.9727 -1.0019
  133SAPE  C31214410   2.877   2.803  38.339  0.0079 -0.4688 -0.8499
  133SAPE  H12X14411   2.855   2.830  38.233  2.8477 -0.0912 -1.4162
  133SAPE  H12Y14412   2.988   2.796  38.342 -0.0395 -0.8039  0.3531
  133SAPE  C31314413   2.826   2.911  38.441  0.1694  0.5906 -0.3396
  133SAPE  H13X14414   2.831   2.878  38.547  0.1632  1.6720  0.0112
  133SAPE  H13Y14415   2.721   2.927  38.410 -0.3388 -2.7714 -0.6729
  133SAPE  C31414416   2.903   3.035  38.426  0.5778  0.3223 -0.1019
  133SAPE  H14X14417   2.848   3.120  38.473  0.1301 -1.6955  3.4018
  133SAPE  H14Y14418   2.922   3.061  38.320  0.1398 -0.3124 -0.3467
  133SAPE  C31514419   3.038   3.024  38.494  0.1302  0.0119  0.4408
  133SAPE  H15X14420   3.104   2.941  38.462 -0.1075  0.7807 -2.2404
  133SAPE  H15Y14421   3.029   3.021  38.605  0.2022  2.1416  0.5531
  133SAPE  C31614422   3.109   3.161  38.484  0.0960  0.1785  0.2237
  133SAPE  H16X14423   3.038   3.232  38.531 -1.7470 -1.5436  0.1894
  133SAPE  H16Y14424   3.119   3.177  38.374  0.4029 -1.9233 -0.1040
  133SAPE  C31714425   3.253   3.166  38.549  0.5902 -0.2025 -0.0149
  133SAPE  H17X14426   3.317   3.078  38.524  1.9742  0.0088  2.4223
  133SAPE  H17Y14427   3.242   3.172  38.659  1.8977 -1.9055  0.2519
  133SAPE  C31814428   3.327   3.296  38.521  0.4249  0.2298  0.4617
  133SAPE  H18X14429   3.347   3.306  38.412 -2.1407  0.9041 -0.0049
  133SAPE  H18Y14430   3.425   3.310  38.572 -0.0199  0.9642  1.1442
  133SAPE  H18Z14431   3.262   3.381  38.551 -2.3046 -2.3707  2.5370
  134SAPE     N14432   2.392   2.623  45.416  0.5118 -0.5864 -1.3189
  134SAPE   HN114433   2.449   2.678  45.350  1.4114  0.7241  0.4608
  134SAPE   HN214434   2.293   2.654  45.403  0.2525 -0.5525  0.4310
  134SAPE   HN314435   2.422   2.644  45.513  0.7856  0.2020 -1.5670
  134SAPE   C1214436   2.408   2.482  45.380  0.0697  0.6256  0.0666
  134SAPE  H12A14437   2.395   2.477  45.270 -3.3423  0.5300  0.3507
  134SAPE  H12B14438   2.326   2.422  45.426  2.4797  0.0402  4.0441
  134SAPE   C1114439   2.544   2.424  45.413  0.0507  0.6331  0.3582
  134SAPE  H11A14440   2.630   2.482  45.373  1.2176 -2.1920 -1.5631
  134SAPE  H11B14441   2.553   2.325  45.363 -0.8097  0.7710 -0.0954
  134SAPE     P14442   2.635   2.502  45.643 -0.5088  0.1842 -0.1751
  134SAPE   O1314443   2.775   2.510  45.600 -0.3931  0.2052 -0.3308
  134SAPE   O1414444   2.550   2.625  45.654 -0.1388  0.1414 -0.0623
  134SAPE   O1214445   2.568   2.398  45.546  0.4757 -0.6579  0.0557
  134SAPE   O1114446   2.632   2.424  45.780  0.5319 -0.3501  0.0408
  134SAPE    C114447   2.607   2.280  45.786 -0.5461  0.8079  0.5064
  134SAPE    HA14448   2.637   2.230  45.691  2.9574  2.0761  0.7751
  134SAPE    HB14449   2.677   2.229  45.856  1.5378 -0.3982 -2.2846
  134SAPE    C214450   2.460   2.253  45.830 -0.1006 -1.6315  0.8674
  134SAPE    HS14451   2.406   2.308  45.750  1.6436  3.0629  2.5629
  134SAPE   O2114452   2.433   2.335  45.945  0.4530  0.1809  0.5163
  134SAPE   C2114453   2.305   2.348  45.970  0.0007  0.6366 -0.5157
  134SAPE   O2214454   2.214   2.307  45.901  0.3686 -0.5008  0.1477
  134SAPE   C2214455   2.299   2.436  46.096  0.3857  0.0019  0.5407
  134SAPE   H2R14456   2.398   2.476  46.126  0.0448  0.9451  0.4313
  134SAPE   H2S14457   2.233   2.520  46.068  1.5379  0.7840  0.0785
  134SAPE    C314458   2.424   2.104  45.830 -0.1621  0.8578  0.0178
  134SAPE    HX14459   2.482   2.072  45.741 -1.2843 -1.8587  0.1742
  134SAPE    HY14460   2.316   2.081  45.817 -0.0714  1.2197 -1.6131
  134SAPE   O3114461   2.497   2.042  45.942  0.0570  0.1215  0.5658
  134SAPE   C3114462   2.466   1.912  45.974 -0.0788 -0.0575  1.2999
  134SAPE   O3214463   2.383   1.848  45.909 -0.7998 -1.1199 -0.3088
  134SAPE   C3214464   2.547   1.866  46.096 -0.0607  0.2469 -0.1414
  134SAPE   H2X14465   2.631   1.806  46.055 -0.7347 -0.4179 -0.5641
  134SAPE   H2Y14466   2.483   1.787  46.141  0.2344 -0.4317 -0.8998
  134SAPE   C2314467   2.250   2.368  46.225 -0.6530 -0.3602  0.2957
  134SAPE   H3R14468   2.278   2.260  46.219  1.7097  0.2177  0.0833
  134SAPE   H3S14469   2.139   2.371  46.213 -0.5194 -0.2084 -0.9867
  134SAPE   C2414470   2.297   2.420  46.358 -0.0821  0.4972 -0.4746
  134SAPE   H4R14471   2.402   2.391  46.381 -0.3652 -0.9210 -0.8986
  134SAPE   H4S14472   2.231   2.368  46.430 -2.0513 -0.5132 -2.8417
  134SAPE   C2514473   2.267   2.568  46.370 -0.3937  0.7085 -0.1145
  134SAPE   H5R14474   2.351   2.639  46.367 -0.1977  0.4860  0.1036
  134SAPE   C2614475   2.143   2.622  46.377 -0.1869  0.7449  0.0520
  134SAPE   H6R14476   2.144   2.731  46.392 -0.7489  0.4266  2.9675
  134SAPE   C2714477   2.001   2.553  46.383 -0.0528 -0.2320 -0.1684
  134SAPE   H7R14478   2.002   2.444  46.359 -1.7081 -0.4370  0.5937
  134SAPE   H7S14479   1.946   2.610  46.305  1.4426  2.8040  0.8146
  134SAPE   C2814480   1.935   2.572  46.515  0.2592  0.6080  0.2745
  134SAPE   H8R14481   1.918   2.679  46.535 -1.6674  0.1980  1.0658
  134SAPE   C2914482   1.900   2.480  46.604  0.0816  0.6693 -0.5003
  134SAPE   H9R14483   1.851   2.522  46.693  1.1064  1.7801 -0.4368
  134SAPE  C21014484   1.908   2.331  46.600 -0.0412  1.1827 -0.5679
  134SAPE  H10R14485   1.942   2.292  46.699 -0.2263  1.8482 -0.2392
  134SAPE  H10S14486   1.989   2.294  46.534 -0.7711 -2.9337  0.5330
  134SAPE  C21114487   1.777   2.256  46.569  0.1220 -0.6444 -0.2177
  134SAPE  H11R14488   1.688   2.269  46.633 -0.3500 -2.9473 -0.3331
  134SAPE  C21214489   1.760   2.164  46.473  0.0548 -0.6812  0.1773
  134SAPE  H12R14490   1.656   2.135  46.453  0.3795 -0.1289 -2.7566
  134SAPE  C21314491   1.867   2.125  46.372 -0.8006 -0.4062  0.4635
  134SAPE  H13R14492   1.967   2.137  46.419 -1.1225  3.1263  0.4915
  134SAPE  H13S14493   1.873   2.199  46.290 -2.1170 -1.1290 -0.3165
  134SAPE  C21414494   1.833   1.991  46.310  0.0442 -0.0314  0.2498
  134SAPE  H14R14495   1.729   1.993  46.275 -0.3671 -2.4676  1.1295
  134SAPE  C21514496   1.917   1.890  46.277  0.5019  0.0141  0.3091
  134SAPE  H15R14497   1.878   1.798  46.231 -1.7919 -0.0682  2.2763
  134SAPE  C21614498   2.064   1.889  46.299 -0.0349  0.2707 -0.3852
  134SAPE  H16R14499   2.088   1.833  46.392 -1.3619  0.0907 -0.1259
  134SAPE  H16S14500   2.106   1.991  46.307 -1.3927  0.7824  0.5858
  134SAPE  C21714501   2.140   1.816  46.187 -1.1658 -0.5920  0.1109
  134SAPE  H17R14502   2.248   1.835  46.206 -1.7705  1.5030  2.0521
  134SAPE  H17S14503   2.121   1.864  46.088  1.5648  0.5574  0.0463
  134SAPE  C21814504   2.106   1.667  46.189 -0.5775  0.7718  0.4291
  134SAPE  H18R14505   2.173   1.622  46.112  0.0912 -1.5739  2.2497
  134SAPE  H18S14506   2.005   1.644  46.150 -1.3358 -0.7320  3.0133
  134SAPE  C21914507   2.124   1.586  46.321  0.9108 -0.3103  1.0243
  134SAPE  H19R14508   2.083   1.485  46.295 -1.2167  1.1592 -1.9676
  134SAPE  H19S14509   2.051   1.635  46.389 -1.8130  0.9614 -2.4541
  134SAPE  C22014510   2.269   1.584  46.360 -0.0227 -0.3060 -0.1515
  134SAPE  H20R14511   2.269   1.556  46.467 -2.5453  2.5583  0.7566
  134SAPE  H20S14512   2.325   1.680  46.353  0.2160 -0.2993  1.3995
  134SAPE  H20T14513   2.331   1.517  46.297  1.2582 -0.6864  1.4648
  134SAPE   C3314514   2.611   1.971  46.202  0.2852 -0.4536  0.0443
  134SAPE   H3X14515   2.663   2.050  46.144  0.4575 -1.8111 -1.7331
  134SAPE   H3Y14516   2.680   1.922  46.273 -0.8696  1.7766  2.9229
  134SAPE   C3414517   2.504   2.053  46.285 -0.7239  0.0378 -0.1402
  134SAPE   H4X14518   2.415   2.071  46.220 -0.2142  1.7593 -0.4092
  134SAPE   H4Y14519   2.547   2.147  46.324 -3.3989  0.9709  0.8454
  134SAPE   C3514520   2.459   1.967  46.406  0.1647  0.1456  0.2463
  134SAPE   H5X14521   2.542   1.926  46.468 -0.8176 -1.2856  0.6588
  134SAPE   H5Y14522   2.406   1.880  46.362 -0.0693 -0.0355  0.8788
  134SAPE   C3614523   2.360   2.044  46.493 -1.1110  0.1016 -0.5182
  134SAPE   H6X14524   2.263   2.049  46.438 -0.6488 -0.6592 -1.4205
  134SAPE   H6Y14525   2.389   2.147  46.525  1.3498 -0.4654 -0.7551
  134SAPE   C3714526   2.304   1.960  46.607  0.5644  0.0279 -1.0536
  134SAPE   H7X14527   2.281   1.855  46.578 -0.0328  0.0566 -0.6975
  134SAPE   H7Y14528   2.214   2.007  46.653 -0.0819 -0.7026 -1.5594
  134SAPE   C3814529   2.409   1.945  46.729  0.5838 -0.4378 -0.0378
  134SAPE   H8X14530   2.496   1.885  46.695  1.4960  1.5257 -1.3647
  134SAPE   H8Y14531   2.359   1.888  46.810  0.1410 -0.2673 -0.1902
  134SAPE   C3914532   2.478   2.071  46.795 -0.2768 -0.4190  0.2004
  134SAPE   H9X14533   2.519   2.133  46.713 -0.4712  0.4982  0.7942
  134SAPE   H9Y14534   2.565   2.052  46.861  0.9947  4.5776  0.3608
  134SAPE  C31014535   2.378   2.154  46.878  0.2017 -0.0257  0.5795
  134SAPE  H10X14536   2.388   2.135  46.987 -2.3049  2.3567  1.3250
  134SAPE  H10Y14537   2.275   2.122  46.853  0.2718  2.2113 -3.2297
  134SAPE  C31114538   2.379   2.300  46.842 -0.3169 -0.3699 -0.4344
  134SAPE  H11X14539   2.296   2.358  46.887  0.4645 -0.3854  1.0705
  134SAPE  H11Y14540   2.382   2.304  46.731 -0.0262 -0.0850 -0.4143
  134SAPE  C31214541   2.509   2.360  46.905  0.0996  0.0012  0.5034
  134SAPE  H12X14542   2.584   2.278  46.914 -0.8174 -1.2773 -2.3502
  134SAPE  H12Y14543   2.493   2.402  47.006 -0.4206 -1.1246  0.9081
  134SAPE  C31314544   2.569   2.473  46.818 -0.4684 -0.4081 -0.6467
  134SAPE  H13X14545   2.666   2.503  46.863 -0.4849 -1.5875  0.2185
  134SAPE  H13Y14546   2.494   2.554  46.825  1.4653  1.4027  0.0855
  134SAPE  C31414547   2.602   2.460  46.668 -0.2801  0.5100  0.2500
  134SAPE  H14X14548   2.614   2.556  46.613  1.0090 -0.2481 -0.8606
  134SAPE  H14Y14549   2.523   2.399  46.619  2.3935 -4.4871  1.4767
  134SAPE  C31514550   2.729   2.372  46.637 -0.3523 -1.0565  0.9521
  134SAPE  H15X14551   2.728   2.283  46.703  4.9206 -0.1856  2.6278
  134SAPE  H15Y14552   2.827   2.420  46.658 -0.0006  0.8958 -3.9159
  134SAPE  C31614553   2.744   2.334  46.486 -0.1375  0.8760 -0.4916
  134SAPE  H16X14554   2.766   2.427  46.430 -0.0363  0.8946 -0.4219
  134SAPE  H16Y14555   2.656   2.283  46.441  1.1329 -2.3746  0.4213
  134SAPE  C31714556   2.857   2.230  46.461 -0.5461  0.4779 -0.1512
  134SAPE  H17X14557   2.951   2.249  46.516  0.7821 -0.2827 -2.0317
  134SAPE  H17Y14558   2.901   2.219  46.359  2.0311 -0.6070  0.9854
  134SAPE  C31814559   2.804   2.084  46.506 -0.9378 -0.5940  0.5192
  134SAPE  H18X14560   2.887   2.012  46.489 -2.5865 -2.9466  1.9884
  134SAPE  H18Y14561   2.717   2.045  46.449 -0.6493 -1.0144  0.3628
  134SAPE  H18Z14562   2.781   2.091  46.614  1.0653  0.5602  0.9308
  135SAPE     N14563   0.923   3.161  38.883 -0.3172  0.4879  0.2576
  135SAPE   HN114564   0.840   3.224  38.893 -0.4190  0.5910 -1.0982
  135SAPE   HN214565   0.992   3.177  38.959  1.8402 -2.5778 -0.8435
  135SAPE   HN314566   0.971   3.188  38.795 -0.9993 -0.1466 -0.3288
  135SAPE   C1214567   0.891   3.017  38.872 -0.3549 -0.4877 -0.5707
  135SAPE  H12A14568   0.863   2.982  38.974 -1.8460  1.8470 -0.0980
  135SAPE  H12B14569   0.988   2.971  38.844 -0.0130  0.3217 -0.7386
  135SAPE   C1114570   0.784   2.995  38.772 -0.6024 -0.2080  0.9486
  135SAPE  H11A14571   0.693   3.050  38.806  1.6121  2.3802  3.1633
  135SAPE  H11B14572   0.764   2.886  38.775  0.4965 -0.4140  1.2266
  135SAPE     P14573   0.737   3.085  38.525  0.1756 -0.4254  0.1473
  135SAPE   O1314574   0.695   3.225  38.553  0.3389  0.0105  0.4745
  135SAPE   O1414575   0.795   3.065  38.391 -0.1301  0.2281  0.3477
  135SAPE   O1214576   0.835   3.038  38.641  0.0161 -0.2125  0.2931
  135SAPE   O1114577   0.609   3.008  38.560  0.2648  1.2668  0.0247
  135SAPE    C114578   0.577   2.870  38.523 -0.1430 -0.3573  0.0764
  135SAPE    HA14579   0.667   2.807  38.509  0.6736  0.8299 -0.1544
  135SAPE    HB14580   0.524   2.822  38.608 -0.0892 -0.4264  0.0718
  135SAPE    C214581   0.479   2.872  38.399 -0.2031 -0.1278  0.4739
  135SAPE    HS14582   0.432   2.771  38.387 -1.0527  0.3975 -0.8692
  135SAPE   O2114583   0.547   2.907  38.277 -0.5142  0.6627  0.4914
  135SAPE   C2114584   0.641   2.830  38.240 -0.3145 -0.7589  0.1629
  135SAPE   O2214585   0.662   2.719  38.278 -0.1105  0.5646 -0.2682
  135SAPE   C2214586   0.729   2.892  38.129 -1.2151 -0.2540 -0.2236
  135SAPE   H2R14587   0.760   2.988  38.176  0.2496 -0.0487 -1.5368
  135SAPE   H2S14588   0.817   2.824  38.137 -0.1642  1.1916  1.2013
  135SAPE    C314589   0.370   2.980  38.414  0.3928  0.0283  0.0107
  135SAPE    HX14590   0.419   3.077  38.390 -0.5333  0.8460  1.2895
  135SAPE    HY14591   0.341   2.980  38.521 -1.9242 -3.8752 -0.4274
  135SAPE   O3114592   0.247   2.942  38.335 -0.3183 -0.5027  0.0245
  135SAPE   C3114593   0.182   3.056  38.298  0.3865  0.6724 -0.4517
  135SAPE   O3214594   0.203   3.172  38.331  0.2112 -0.1827 -0.2673
  135SAPE   C3214595   0.084   3.021  38.191  0.1889 -0.0771 -0.0951
  135SAPE   H2X14596   0.102   2.921  38.145 -2.0171 -1.5954  2.1254
  135SAPE   H2Y14597   0.102   3.094  38.109 -0.0814 -0.3681 -0.4177
  135SAPE   C2314598   0.671   2.898  37.990  0.3418 -0.2010 -0.0834
  135SAPE   H3R14599   0.755   2.914  37.919  0.1305  0.3102 -0.2260
  135SAPE   H3S14600   0.594   2.979  37.982  0.9493  0.2317 -2.7345
  135SAPE   C2414601   0.615   2.767  37.939 -0.0406 -0.4016  0.7133
  135SAPE   H4R14602   0.685   2.682  37.954  1.7498  0.9918  0.6065
  135SAPE   H4S14603   0.605   2.770  37.828 -3.5047  1.6312  0.9478
  135SAPE   C2514604   0.476   2.734  37.989 -0.1863 -0.1741 -0.4944
  135SAPE   H5R14605   0.424   2.818  38.038 -1.5224  0.0760 -2.2454
  135SAPE   C2614606   0.405   2.630  37.956  0.6627  0.4159  0.3664
  135SAPE   H6R14607   0.306   2.609  37.997 -0.0464  1.0984 -0.9345
  135SAPE   C2714608   0.461   2.513  37.873  0.3985  0.5603  0.4962
  135SAPE   H7R14609   0.415   2.423  37.919 -0.3541  1.0873  0.8164
  135SAPE   H7S14610   0.569   2.493  37.861  0.4257  0.9700  0.0193
  135SAPE   C2814611   0.420   2.544  37.733 -0.6508  0.1212  0.2310
  135SAPE   H8R14612   0.485   2.618  37.685 -0.0475  1.4556  2.9094
  135SAPE   C2914613   0.336   2.483  37.653  0.5760  0.2221  0.5945
  135SAPE   H9R14614   0.328   2.526  37.552 -0.2847  2.0917  1.4312
  135SAPE  C21014615   0.236   2.372  37.676 -0.0925  0.0111 -0.3738
  135SAPE  H10R14616   0.134   2.394  37.639  0.8063  0.9892 -2.4557
  135SAPE  H10S14617   0.228   2.343  37.783  2.0864 -1.5291 -0.5609
  135SAPE  C21114618   0.294   2.248  37.608 -0.3253 -0.0944  0.2601
  135SAPE  H11R14619   0.403   2.245  37.619 -0.2014  0.3554 -0.7471
  135SAPE  C21214620   0.235   2.156  37.529 -0.3675  0.1646  0.8856
  135SAPE  H12R14621   0.294   2.072  37.490  0.0766  0.0556  1.7786
  135SAPE  C21314622   0.088   2.156  37.488 -1.2868  0.4779  0.3150
  135SAPE  H13R14623   0.029   2.169  37.581 -1.4178  0.7756  0.1929
  135SAPE  H13S14624   0.066   2.051  37.461 -0.4690 -0.4593  2.9255
  135SAPE  C21414625   0.048   2.270  37.392  0.3084  0.5974  0.1021
  135SAPE  H14R14626   0.137   2.326  37.360  1.0790 -0.0725  1.0039
  135SAPE  C21514627  -0.077   2.293  37.341 -0.0996 -0.1262 -0.7953
  135SAPE  H15R14628  -0.090   2.372  37.265 -0.7027 -0.6958 -1.2992
  135SAPE  C21614629  -0.190   2.211  37.384 -0.0695 -1.0120 -0.1955
  135SAPE  H16R14630  -0.173   2.109  37.422  1.3239 -1.2514 -1.3698
  135SAPE  H16S14631  -0.252   2.217  37.292 -1.0141  1.7246  0.5089
  135SAPE  C21714632  -0.276   2.286  37.491 -0.0428 -0.6214 -0.4681
  135SAPE  H17R14633  -0.295   2.388  37.452 -0.4173  0.6338  2.6816
  135SAPE  H17S14634  -0.217   2.294  37.585  0.3684 -0.6552 -0.7237
  135SAPE  C21814635  -0.395   2.212  37.530 -0.1176  0.1089  0.0040
  135SAPE  H18R14636  -0.384   2.106  37.561 -1.4593  0.1878  0.8068
  135SAPE  H18S14637  -0.468   2.218  37.446 -0.1406  0.5119  0.0490
  135SAPE  C21914638  -0.460   2.294  37.644 -0.4604 -0.3087 -0.3314
  135SAPE  H19R14639  -0.406   2.275  37.739  1.5917 -0.4853 -1.4641
  135SAPE  H19S14640  -0.556   2.248  37.674  0.5151 -1.0572  1.8033
  135SAPE  C22014641  -0.488   2.443  37.626 -0.4428 -0.2713 -0.5746
  135SAPE  H20R14642  -0.583   2.452  37.569 -1.0723  1.2922  0.6403
  135SAPE  H20S14643  -0.404   2.493  37.574  1.1577 -1.1387  1.0705
  135SAPE  H20T14644  -0.527   2.485  37.722 -0.4933  0.1440 -0.7740
  135SAPE   C3314645  -0.062   3.024  38.221  0.2699 -0.2796  0.1181
  135SAPE   H3X14646  -0.093   3.124  38.258 -1.8273 -0.7493 -0.2375
  135SAPE   H3Y14647  -0.086   2.941  38.291 -0.4037 -0.2704 -0.0912
  135SAPE   C3414648  -0.147   2.994  38.099  0.0999  1.2057  1.1735
  135SAPE   H4X14649  -0.125   2.891  38.065  0.2226  0.9294  2.0598
  135SAPE   H4Y14650  -0.121   3.063  38.016 -0.1476  0.2474  0.2840
  135SAPE   C3514651  -0.296   3.006  38.120  0.1895  0.5909 -0.6008
  135SAPE   H5X14652  -0.304   3.111  38.155 -0.7119 -0.0992  1.3838
  135SAPE   H5Y14653  -0.341   2.942  38.198 -1.8268 -1.0962 -3.0039
  135SAPE   C3614654  -0.396   2.997  38.005  0.4354  0.2333  0.6353
  135SAPE   H6X14655  -0.343   3.053  37.925  0.2930  0.9141  1.0094
  135SAPE   H6Y14656  -0.492   3.049  38.026  0.0816 -0.9002  1.9250
  135SAPE   C3714657  -0.413   2.854  37.953 -0.0019  0.4023  0.7344
  135SAPE   H7X14658  -0.461   2.786  38.027  1.0618  0.7677  1.7811
  135SAPE   H7Y14659  -0.309   2.817  37.940 -0.5455 -0.5363 -1.2980
  135SAPE   C3814660  -0.492   2.854  37.821  0.1130  1.0069 -0.0562
  135SAPE   H8X14661  -0.490   2.751  37.778 -0.8416  0.5138  1.0384
  135SAPE   H8Y14662  -0.437   2.920  37.751  2.2961 -0.5330  0.1138
  135SAPE   C3914663  -0.640   2.901  37.840  0.6858 -0.7593  0.1129
  135SAPE   H9X14664  -0.648   3.011  37.827  0.3672 -0.6546  1.1699
  135SAPE   H9Y14665  -0.665   2.894  37.947  1.8437 -0.3702  0.4238
  135SAPE  C31014666  -0.728   2.821  37.745 -0.1709  0.2063  0.2673
  135SAPE  H10X14667  -0.667   2.778  37.662  0.8550 -0.6652  1.4394
  135SAPE  H10Y14668  -0.805   2.885  37.697 -1.0665 -1.1071 -0.0882
  135SAPE  C31114669  -0.783   2.703  37.822 -0.4264  0.7806 -0.6870
  135SAPE  H11X14670  -0.851   2.740  37.902 -0.7400 -3.5049  1.3231
  135SAPE  H11Y14671  -0.699   2.657  37.878 -0.5451  0.0822 -1.0695
  135SAPE  C31214672  -0.848   2.599  37.740 -0.2060 -0.1507  0.3410
  135SAPE  H12X14673  -0.761   2.541  37.703  2.0651  2.4407  1.3220
  135SAPE  H12Y14674  -0.904   2.651  37.660 -0.3037  0.6047  0.8924
  135SAPE  C31314675  -0.939   2.503  37.812  0.6093  0.5447  0.0790
  135SAPE  H13X14676  -0.976   2.426  37.740  1.0027  0.6686 -0.2516
  135SAPE  H13Y14677  -1.030   2.562  37.838  1.5647  2.0166  0.1568
  135SAPE  C31414678  -0.886   2.429  37.942 -1.3183  1.1411 -0.3471
  135SAPE  H14X14679  -0.968   2.366  37.982 -0.2730 -0.2512 -0.3185
  135SAPE  H14Y14680  -0.859   2.506  38.018 -2.0725 -2.2891  3.8177
  135SAPE  C31514681  -0.755   2.344  37.906  0.0186 -0.2195  1.3336
  135SAPE  H15X14682  -0.669   2.400  37.865 -0.9082  0.4079  0.2163
  135SAPE  H15Y14683  -0.770   2.275  37.821  2.0035 -0.4859  1.1482
  135SAPE  C31614684  -0.692   2.263  38.025  0.1280 -0.2462  0.5212
  135SAPE  H16X14685  -0.674   2.321  38.118 -1.0897 -2.1527  2.0336
  135SAPE  H16Y14686  -0.599   2.205  38.005 -0.5704 -0.9513 -0.8759
  135SAPE  C31714687  -0.785   2.152  38.067  0.1060 -0.4150  0.0729
  135SAPE  H17X14688  -0.804   2.094  37.974  1.2136  0.4728 -0.7369
  135SAPE  H17Y14689  -0.884   2.189  38.102  1.1947  2.2808  0.4969
  135SAPE  C31814690  -0.717   2.056  38.167  0.3482  0.0004 -0.6274
  135SAPE  H18X14691  -0.682   2.106  38.260 -1.2514  1.4220 -0.7482
  135SAPE  H18Y14692  -0.623   2.016  38.122  1.5645 -0.2913  1.9670
  135SAPE  H18Z14693  -0.789   1.975  38.191  0.1846  0.3801  0.2288
  136SAPE     N14694   1.440   2.880  38.570 -0.4873 -0.0934 -0.1585
  136SAPE   HN114695   1.467   2.828  38.656  0.2389  0.0151 -0.3126
  136SAPE   HN214696   1.352   2.933  38.586  0.1180  1.2091 -0.9855
  136SAPE   HN314697   1.433   2.806  38.497 -3.3569 -0.7205  0.6360
  136SAPE   C1214698   1.532   2.987  38.513 -0.9327  0.1021  0.0038
  136SAPE  H12A14699   1.631   2.941  38.495 -1.7257 -1.3175 -0.9176
  136SAPE  H12B14700   1.548   3.064  38.591 -0.6988  1.2910 -1.1769
  136SAPE   C1114701   1.476   3.048  38.382  0.0253  0.0364  0.2638
  136SAPE  H11A14702   1.546   3.123  38.340  1.4038  0.7406  3.5471
  136SAPE  H11B14703   1.383   3.107  38.399 -1.2435 -1.4933 -0.9826
  136SAPE     P14704   1.421   2.995  38.129  0.2528 -0.0940 -0.0335
  136SAPE   O1314705   1.412   2.869  38.052 -0.0433  0.5389 -0.3607
  136SAPE   O1414706   1.305   3.084  38.105  0.3663 -0.1628 -1.1047
  136SAPE   O1214707   1.445   2.948  38.287  0.2417 -0.8929  0.1269
  136SAPE   O1114708   1.554   3.075  38.089  0.4359 -0.5531 -0.4370
  136SAPE    C114709   1.679   3.002  38.109  0.6257  0.2699  0.3655
  136SAPE    HA14710   1.673   2.915  38.178  0.0870 -1.6543 -1.9531
  136SAPE    HB14711   1.707   2.961  38.010  1.8072 -0.2206  0.8885
  136SAPE    C214712   1.808   3.083  38.120 -0.0700  1.1090 -0.0378
  136SAPE    HS14713   1.889   3.009  38.103 -0.3782  1.0379 -1.2491
  136SAPE   O2114714   1.833   3.135  38.248  0.1147 -0.3684  0.0348
  136SAPE   C2114715   1.878   3.074  38.347  0.2081 -0.0584 -0.0943
  136SAPE   O2214716   1.895   2.954  38.364  0.2729 -0.0343  0.0507
  136SAPE   C2214717   1.892   3.185  38.449  0.3158  0.7254 -0.8636
  136SAPE   H2R14718   1.880   3.285  38.402 -0.1136  1.3595  0.5525
  136SAPE   H2S14719   1.805   3.173  38.516  0.2650 -1.0719 -1.1894
  136SAPE    C314720   1.821   3.197  38.014  0.1766  0.2240 -0.0704
  136SAPE    HX14721   1.720   3.242  38.024 -0.0504 -0.5580  1.4644
  136SAPE    HY14722   1.812   3.150  37.914 -0.0732 -1.8776  0.8862
  136SAPE   O3114723   1.937   3.286  38.021 -0.1129  0.6777 -0.1147
  136SAPE   C3114724   1.919   3.385  38.109  0.0598  1.1037 -0.1887
  136SAPE   O3214725   1.824   3.397  38.183  0.0430 -0.3365  0.1800
  136SAPE   C3214726   2.043   3.477  38.111 -0.2429  0.4975 -0.2533
  136SAPE   H2X14727   2.016   3.563  38.176 -0.9786 -0.6058  0.9474
  136SAPE   H2Y14728   2.045   3.503  38.003 -0.6894 -0.5730 -0.5373
  136SAPE   C2314729   2.023   3.168  38.531 -0.2849 -0.4891  0.7704
  136SAPE   H3R14730   2.112   3.194  38.470 -0.9948 -0.5917 -0.3337
  136SAPE   H3S14731   2.047   3.060  38.548  0.1895 -0.9835 -2.3822
  136SAPE   C2414732   2.020   3.253  38.667  0.2452  0.5644  0.3337
  136SAPE   H4R14733   2.007   3.360  38.640 -1.5920  0.8572  2.0614
  136SAPE   H4S14734   2.128   3.245  38.692  0.9249 -0.4182 -2.5684
  136SAPE   C2514735   1.927   3.213  38.778  0.2626 -0.0539 -0.4652
  136SAPE   H5R14736   1.825   3.245  38.751  0.1401  0.2523  0.3249
  136SAPE   C2614737   1.952   3.141  38.895 -0.0703  0.0189  0.1197
  136SAPE   H6R14738   1.865   3.112  38.956 -0.6321  0.4289 -0.4703
  136SAPE   C2714739   2.094   3.082  38.929  0.5825 -0.4099  0.0160
  136SAPE   H7R14740   2.126   3.132  39.023  0.0448  0.1658 -0.0971
  136SAPE   H7S14741   2.166   3.126  38.857  1.3626  0.6496  1.3886
  136SAPE   C2814742   2.098   2.929  38.937 -0.1825 -0.4946  0.0427
  136SAPE   H8R14743   2.091   2.875  38.841  0.1119 -1.6852  0.6691
  136SAPE   C2914744   2.144   2.860  39.036 -0.9040 -0.7440  0.0686
  136SAPE   H9R14745   2.137   2.751  39.026 -2.0646 -0.6472 -0.3615
  136SAPE  C21014746   2.181   2.905  39.174 -1.1295 -0.5008 -0.2530
  136SAPE  H10R14747   2.167   2.819  39.242 -1.2733  0.4956  1.0041
  136SAPE  H10S14748   2.107   2.981  39.208  0.9536  2.6458 -2.2184
  136SAPE  C21114749   2.320   2.956  39.196 -0.8031  0.0909 -0.6839
  136SAPE  H11R14750   2.352   3.055  39.160  0.0135  0.8310  1.8931
  136SAPE  C21214751   2.425   2.903  39.272 -0.2528  0.2017 -0.5070
  136SAPE  H12R14752   2.522   2.953  39.267  0.3873 -1.0017 -0.3979
  136SAPE  C21314753   2.428   2.767  39.343  0.6874 -0.6406  1.0852
  136SAPE  H13R14754   2.322   2.747  39.371  1.4059  0.4230  5.1929
  136SAPE  H13S14755   2.484   2.785  39.437 -0.1663  0.4407  1.4013
  136SAPE  C21414756   2.466   2.656  39.243  0.2702 -0.2632 -0.8623
  136SAPE  H14R14757   2.444   2.679  39.138 -1.0025  3.0276  0.0067
  136SAPE  C21514758   2.540   2.544  39.274 -0.4780  0.2612  0.1348
  136SAPE  H15R14759   2.574   2.473  39.197 -2.8749 -0.4330 -0.3738
  136SAPE  C21614760   2.583   2.515  39.416 -0.6331  0.8948 -0.3691
  136SAPE  H16R14761   2.536   2.578  39.495  0.3545  0.2402  0.7816
  136SAPE  H16S14762   2.688   2.551  39.425 -0.4718  0.9214 -2.0596
  136SAPE  C21714763   2.560   2.364  39.464 -0.9511 -0.0687  0.2601
  136SAPE  H17R14764   2.582   2.358  39.573 -0.2928  0.4419  0.1618
  136SAPE  H17S14765   2.633   2.297  39.416 -0.7805  0.1725  0.1858
  136SAPE  C21814766   2.413   2.320  39.455  0.0582 -0.5752 -0.1467
  136SAPE  H18R14767   2.372   2.307  39.353 -0.1264  0.5259 -0.2242
  136SAPE  H18S14768   2.354   2.407  39.492  1.6935  0.2304  0.6569
  136SAPE  C21914769   2.373   2.205  39.549 -0.2705  0.3709  0.2335
  136SAPE  H19R14770   2.407   2.212  39.655  2.8560  1.0938 -0.7286
  136SAPE  H19S14771   2.426   2.114  39.513 -1.2896 -0.7812  1.4949
  136SAPE  C22014772   2.218   2.191  39.555 -0.2579  0.1770 -0.4007
  136SAPE  H20R14773   2.197   2.100  39.615  1.1461 -0.7409 -1.2301
  136SAPE  H20S14774   2.175   2.207  39.454  1.6447 -1.6135 -1.5715
  136SAPE  H20T14775   2.183   2.274  39.620 -3.2470 -0.2139 -1.3808
  136SAPE   C3314776   2.167   3.401  38.166 -0.3164 -0.1408  0.5383
  136SAPE   H3X14777   2.181   3.319  38.093 -2.2233  1.4452 -1.7334
  136SAPE   H3Y14778   2.134   3.362  38.265  0.6503 -2.1947  0.1212
  136SAPE   C3414779   2.276   3.501  38.186 -0.1080 -0.1794  0.0059
  136SAPE   H4X14780   2.235   3.602  38.163 -0.6020 -0.0841  1.2208
  136SAPE   H4Y14781   2.356   3.477  38.112 -2.0131 -0.8222 -1.9537
  136SAPE   C3514782   2.335   3.513  38.324  0.6407  0.1468 -0.1615
  136SAPE   H5X14783   2.416   3.439  38.343  0.3036  0.0026  0.7762
  136SAPE   H5Y14784   2.255   3.500  38.400  1.0510  3.8891  1.1156
  136SAPE   C3614785   2.381   3.658  38.349  0.3777  0.0832  0.1659
  136SAPE   H6X14786   2.380   3.676  38.459 -0.6632 -1.5384  0.4467
  136SAPE   H6Y14787   2.303   3.720  38.299 -0.3656 -0.9345  0.0425
  136SAPE   C3714788   2.521   3.681  38.291 -0.6940  0.0994 -0.5335
  136SAPE   H7X14789   2.524   3.636  38.189  0.1242  2.0224 -1.4068
  136SAPE   H7Y14790   2.597   3.632  38.357 -1.5707  0.9833  1.1986
  136SAPE   C3814791   2.569   3.826  38.294  0.7409  0.2915 -0.1352
  136SAPE   H8X14792   2.561   3.862  38.399  0.7800 -1.4806  0.4946
  136SAPE   H8Y14793   2.498   3.892  38.238 -0.2662  0.1612  0.9489
  136SAPE   C3914794   2.720   3.849  38.247 -0.5361  0.3591  0.3838
  136SAPE   H9X14795   2.723   3.841  38.136 -0.6912  1.6470  0.2744
  136SAPE   H9Y14796   2.775   3.763  38.288 -1.9948  0.1508  2.0217
  136SAPE  C31014797   2.768   3.986  38.304 -0.6325 -0.0844  0.4303
  136SAPE  H10X14798   2.869   4.003  38.260 -0.6989 -1.2613 -0.2171
  136SAPE  H10Y14799   2.776   3.990  38.415 -2.1870  1.3761  0.5303
  136SAPE  C31114800   2.684   4.108  38.280 -0.8814  0.2754  0.5577
  136SAPE  H11X14801   2.603   4.123  38.355 -1.4765 -0.3130  0.0505
  136SAPE  H11Y14802   2.638   4.092  38.180  1.3545 -2.9077 -0.1003
  136SAPE  C31214803   2.775   4.235  38.284  0.8212 -0.7166  0.4245
  136SAPE  H12X14804   2.854   4.233  38.205 -0.4790 -1.5289 -0.9102
  136SAPE  H12Y14805   2.800   4.234  38.392 -1.2960 -0.9877  0.9548
  136SAPE  C31314806   2.688   4.357  38.250  0.9674 -0.3666  0.5837
  136SAPE  H13X14807   2.590   4.323  38.290 -0.1739 -0.6051 -2.2502
  136SAPE  H13Y14808   2.694   4.370  38.140 -1.8445  0.9712  0.4976
  136SAPE  C31414809   2.719   4.496  38.316  0.6389 -0.1938 -0.1934
  136SAPE  H14X14810   2.828   4.513  38.303  0.4763  0.4909 -0.6623
  136SAPE  H14Y14811   2.692   4.493  38.424  1.7614 -1.7312  0.0789
  136SAPE  C31514812   2.645   4.611  38.245 -0.0811  0.3483  0.2814
  136SAPE  H15X14813   2.537   4.602  38.270  0.1620 -1.1406  0.9573
  136SAPE  H15Y14814   2.664   4.609  38.135 -0.4695  3.0931  0.1020
  136SAPE  C31614815   2.697   4.745  38.295 -0.2692  0.3961  0.6182
  136SAPE  H16X14816   2.658   4.819  38.221 -2.1073 -2.7937 -1.8576
  136SAPE  H16Y14817   2.808   4.741  38.289 -0.2714 -0.9080  1.1961
  136SAPE  C31714818   2.650   4.770  38.446  0.0797  0.2209  0.0917
  136SAPE  H17X14819   2.693   4.870  38.469 -0.0026  0.5074 -0.9480
  136SAPE  H17Y14820   2.706   4.701  38.513 -0.0338 -0.5743 -0.6227
  136SAPE  C31814821   2.497   4.777  38.469  0.0688  0.3304 -0.0261
  136SAPE  H18X14822   2.447   4.857  38.412 -1.7696 -1.1430 -0.5924
  136SAPE  H18Y14823   2.485   4.801  38.577 -1.2619  0.6179 -0.2323
  136SAPE  H18Z14824   2.455   4.676  38.447  0.4445  0.0678  0.4232
  137SAPE     N14825   1.193   3.344  35.170 -0.1797 -0.1149 -0.1049
  137SAPE   HN114826   1.260   3.408  35.218 -1.1215  0.0642  1.0162
  137SAPE   HN214827   1.183   3.268  35.240  1.9198 -0.3524 -0.0116
  137SAPE   HN314828   1.227   3.308  35.079  0.7272  0.6232 -0.0738
  137SAPE   C1214829   1.058   3.414  35.169 -1.0144  0.4088  0.7470
  137SAPE  H12A14830   0.988   3.364  35.099  0.4660 -1.9083  0.8139
  137SAPE  H12B14831   1.072   3.518  35.133  0.0946  0.0942  0.2041
  137SAPE   C1114832   0.997   3.437  35.310  0.2709 -0.1622  0.2187
  137SAPE  H11A14833   0.894   3.475  35.288  0.2109 -0.6495 -0.3929
  137SAPE  H11B14834   1.042   3.523  35.363 -0.1957 -0.4897  1.1650
  137SAPE     P14835   0.872   3.251  35.441  0.0698  0.5297 -0.1318
  137SAPE   O1314836   0.794   3.208  35.318 -0.5858 -0.7474 -0.2623
  137SAPE   O1414837   0.915   3.136  35.524  0.5981 -0.3278  0.0331
  137SAPE   O1214838   1.006   3.324  35.397  0.3641 -0.2531  0.5525
  137SAPE   O1114839   0.778   3.338  35.519  0.2946  0.1583 -0.3284
  137SAPE    C114840   0.817   3.432  35.619  0.8523 -0.9941  0.2494
  137SAPE    HA14841   0.870   3.378  35.701  0.9328 -0.5430  0.5025
  137SAPE    HB14842   0.884   3.513  35.581 -0.5765 -0.4873 -1.2722
  137SAPE    C214843   0.684   3.511  35.671  0.2898 -0.1582 -0.3235
  137SAPE    HS14844   0.698   3.568  35.765 -0.5040  0.0077 -0.2923
  137SAPE   O2114845   0.575   3.413  35.696  0.2904 -0.0429 -0.3514
  137SAPE   C2114846   0.600   3.298  35.750 -0.1743 -0.2721  0.2681
  137SAPE   O2214847   0.702   3.263  35.807 -0.0608  0.0562 -0.1606
  137SAPE   C2214848   0.479   3.209  35.736  0.5504  0.7641  0.4209
  137SAPE   H2R14849   0.408   3.228  35.819 -3.0629 -4.1387 -1.1176
  137SAPE   H2S14850   0.432   3.220  35.636 -0.3071 -2.8062  0.3179
  137SAPE    C314851   0.636   3.617  35.571  0.5544  0.1977  0.8213
  137SAPE    HX14852   0.646   3.561  35.476  1.3297 -0.8928  1.5271
  137SAPE    HY14853   0.702   3.706  35.573 -0.8861  1.2992  2.4206
  137SAPE   O3114854   0.497   3.661  35.581 -0.2589  0.3306 -0.0782
  137SAPE   C3114855   0.459   3.739  35.468 -0.0630 -0.1602  0.0887
  137SAPE   O3214856   0.522   3.756  35.367  0.2584 -0.1379  0.0950
  137SAPE   C3214857   0.320   3.784  35.489  0.1236 -0.3672 -0.2154
  137SAPE   H2X14858   0.294   3.876  35.432 -2.3009 -1.6378 -1.3652
  137SAPE   H2Y14859   0.310   3.807  35.597 -2.2748 -1.8698 -0.0244
  137SAPE   C2314860   0.517   3.053  35.743  0.5732  0.0772 -0.1950
  137SAPE   H3R14861   0.559   3.030  35.843  1.8182  2.4207 -0.1357
  137SAPE   H3S14862   0.593   3.036  35.663 -0.8551 -2.4209 -1.1423
  137SAPE   C2414863   0.397   2.959  35.709 -0.0588 -1.2576 -0.6368
  137SAPE   H4R14864   0.358   2.993  35.611  2.5723  0.0367 -1.3074
  137SAPE   H4S14865   0.317   2.962  35.786  1.0321 -0.0494  0.4895
  137SAPE   C2514866   0.452   2.822  35.703  0.1945 -0.4965  0.3190
  137SAPE   H5R14867   0.547   2.812  35.758 -0.7786 -3.5785  1.6684
  137SAPE   C2614868   0.396   2.706  35.658  0.1860 -0.4063  0.2649
  137SAPE   H6R14869   0.461   2.618  35.639  0.6474  0.2317 -1.2374
  137SAPE   C2714870   0.269   2.715  35.570 -0.0327  0.0333 -0.1234
  137SAPE   H7R14871   0.201   2.800  35.596  2.4277  2.0439  0.0666
  137SAPE   H7S14872   0.199   2.633  35.597  0.3037 -0.1030  0.3315
  137SAPE   C2814873   0.289   2.709  35.423  0.1950 -0.2149 -0.0283
  137SAPE   H8R14874   0.387   2.679  35.384 -0.9445 -0.7670 -2.6385
  137SAPE   C2914875   0.192   2.748  35.335 -0.5099  0.0338 -0.0866
  137SAPE   H9R14876   0.214   2.735  35.228 -0.2612 -3.0792  0.2766
  137SAPE  C21014877   0.060   2.813  35.370  0.9456 -0.5255  0.4776
  137SAPE  H10R14878   0.024   2.802  35.475 -0.1737 -0.3673  0.1226
  137SAPE  H10S14879  -0.023   2.756  35.322  0.9770 -1.5129  1.5311
  137SAPE  C21114880   0.049   2.953  35.320  0.1584  0.0399  0.2621
  137SAPE  H11R14881   0.117   2.999  35.247  0.3117  0.3942  0.6179
  137SAPE  C21214882  -0.046   3.039  35.363  0.2052 -0.5257  0.2831
  137SAPE  H12R14883  -0.042   3.136  35.312  2.8397 -0.3997  0.5852
  137SAPE  C21314884  -0.171   3.007  35.443  0.3195  0.2000 -0.2291
  137SAPE  H13R14885  -0.163   2.941  35.531  0.5648 -0.2730 -0.6022
  137SAPE  H13S14886  -0.254   2.974  35.377  0.4481 -0.7146  0.0538
  137SAPE  C21414887  -0.219   3.133  35.502 -0.3312 -0.2011  0.5054
  137SAPE  H14R14888  -0.150   3.171  35.579  0.9544 -0.7393 -0.3449
  137SAPE  C21514889  -0.333   3.212  35.488 -0.5263 -0.0560  0.3527
  137SAPE  H15R14890  -0.348   3.306  35.543  1.2864  0.8850 -0.6874
  137SAPE  C21614891  -0.443   3.181  35.391  0.5291  0.0066  0.0403
  137SAPE  H16R14892  -0.459   3.079  35.350  0.2380  0.8789 -2.1482
  137SAPE  H16S14893  -0.418   3.226  35.293  1.2497 -0.1821  0.1373
  137SAPE  C21714894  -0.573   3.248  35.433 -0.4791  1.1999 -0.5273
  137SAPE  H17R14895  -0.573   3.357  35.411 -1.5447  1.1532 -0.8415
  137SAPE  H17S14896  -0.571   3.249  35.544 -0.8140  1.7539 -0.5256
  137SAPE  C21814897  -0.710   3.182  35.410 -0.1645 -0.4563  0.8896
  137SAPE  H18R14898  -0.781   3.215  35.489  0.3777 -0.5749  1.4345
  137SAPE  H18S14899  -0.692   3.072  35.411 -1.1406 -0.7435 -1.9005
  137SAPE  C21914900  -0.769   3.213  35.274  0.0672 -0.3659 -0.1482
  137SAPE  H19R14901  -0.710   3.171  35.191 -0.0537  1.1882 -1.0647
  137SAPE  H19S14902  -0.753   3.323  35.266 -0.3634 -0.4537 -2.8825
  137SAPE  C22014903  -0.912   3.159  35.271  0.0479  0.0376 -0.4218
  137SAPE  H20R14904  -0.920   3.051  35.297 -1.1782  0.5741  1.6918
  137SAPE  H20S14905  -0.953   3.182  35.171 -0.4784 -0.6239 -0.3593
  137SAPE  H20T14906  -0.965   3.214  35.352  0.5074 -0.7585  0.4482
  137SAPE   C3314907   0.212   3.674  35.469  1.2184  1.0712 -0.1661
  137SAPE   H3X14908   0.122   3.713  35.521  0.4017  1.5995 -1.8942
  137SAPE   H3Y14909   0.243   3.579  35.517  1.2647  0.4153 -1.4492
  137SAPE   C3414910   0.186   3.642  35.315 -0.2130  0.7381  0.0848
  137SAPE   H4X14911   0.286   3.624  35.270 -0.3510  1.9434 -0.7474
  137SAPE   H4Y14912   0.167   3.744  35.275 -1.0869  1.1543  1.5060
  137SAPE   C3514913   0.077   3.532  35.292 -0.1721 -1.0029  0.4378
  137SAPE   H5X14914  -0.020   3.574  35.325  0.3348  0.9285 -0.4127
  137SAPE   H5Y14915   0.101   3.441  35.352  1.8208 -1.3856 -0.8447
  137SAPE   C3614916   0.056   3.504  35.146 -1.3087  0.6340  0.4368
  137SAPE   H6X14917   0.152   3.470  35.102 -1.3959 -1.0701  1.4833
  137SAPE   H6Y14918   0.020   3.591  35.086  1.8374  0.3598 -2.1316
  137SAPE   C3714919  -0.043   3.384  35.125  0.0430 -0.2933  0.1880
  137SAPE   H7X14920  -0.000   3.293  35.173 -0.4867 -1.1666 -0.9529
  137SAPE   H7Y14921  -0.074   3.365  35.020  1.1450  1.2066 -0.4375
  137SAPE   C3814922  -0.177   3.401  35.196 -0.3033 -0.1398 -0.0759
  137SAPE   H8X14923  -0.156   3.409  35.305 -4.5510  2.5605  0.7974
  137SAPE   H8Y14924  -0.235   3.309  35.173  0.2034 -0.5737  0.3721
  137SAPE   C3914925  -0.264   3.517  35.146 -0.5655  0.0754  0.0460
  137SAPE   H9X14926  -0.251   3.523  35.036 -0.4530 -0.3197  0.0364
  137SAPE   H9Y14927  -0.219   3.608  35.191  0.2869  0.2836 -1.2159
  137SAPE  C31014928  -0.403   3.491  35.184 -0.0508  0.4740  0.2558
  137SAPE  H10X14929  -0.408   3.488  35.295  0.6824  0.6956  0.3007
  137SAPE  H10Y14930  -0.446   3.394  35.150 -2.3908  1.0754  1.3036
  137SAPE  C31114931  -0.497   3.601  35.136  0.3184 -0.2948 -0.2808
  137SAPE  H11X14932  -0.515   3.605  35.027 -1.2476  1.8101 -0.0142
  137SAPE  H11Y14933  -0.467   3.702  35.172  2.1780 -0.3486 -1.5491
  137SAPE  C31214934  -0.635   3.581  35.191  0.0489  0.3193 -0.5644
  137SAPE  H12X14935  -0.628   3.578  35.301 -1.3929  1.8244 -0.3903
  137SAPE  H12Y14936  -0.667   3.476  35.174 -0.8899 -0.0246  2.7120
  137SAPE  C31314937  -0.727   3.689  35.151  1.2362  0.5606  0.3368
  137SAPE  H13X14938  -0.695   3.729  35.053 -0.0269  2.2531  0.5571
  137SAPE  H13Y14939  -0.718   3.778  35.217  1.9746  0.6255  0.1511
  137SAPE  C31414940  -0.871   3.644  35.150 -0.4092 -0.0522 -0.3121
  137SAPE  H14X14941  -0.858   3.555  35.084  0.0922 -1.0083  1.0465
  137SAPE  H14Y14942  -0.930   3.725  35.101  1.7064  1.6548 -0.1787
  137SAPE  C31514943  -0.937   3.597  35.281 -0.2507 -0.5410  0.2067
  137SAPE  H15X14944  -0.865   3.538  35.341  2.1849  0.5417 -1.5124
  137SAPE  H15Y14945  -1.028   3.534  35.264  0.4904 -1.7102  0.4470
  137SAPE  C31614946  -0.991   3.706  35.364 -0.3243 -0.1773 -0.2976
  137SAPE  H16X14947  -1.040   3.782  35.300  0.5475 -1.3160 -2.3985
  137SAPE  H16Y14948  -0.914   3.759  35.425 -0.4262 -1.1955  0.7608
  137SAPE  C31714949  -1.107   3.658  35.460 -0.0872  0.2696 -0.2439
  137SAPE  H17X14950  -1.071   3.563  35.504 -1.9030  0.2646  1.3545
  137SAPE  H17Y14951  -1.191   3.641  35.389  1.2007 -0.8111 -1.5798
  137SAPE  C31814952  -1.141   3.763  35.571  0.0267 -0.1452  0.1620
  137SAPE  H18X14953  -1.061   3.753  35.648 -0.4122 -1.0218  0.5232
  137SAPE  H18Y14954  -1.239   3.738  35.617 -0.0861 -0.3786 -0.2039
  137SAPE  H18Z14955  -1.136   3.866  35.530  1.9859 -0.2285  0.0930
  138SAPE     N14956   0.762   0.708  33.994 -0.0170  0.1463  0.7372
  138SAPE   HN114957   0.740   0.622  33.940 -0.2595  0.4039  0.4272
  138SAPE   HN214958   0.698   0.788  33.978 -1.6307 -1.2304 -0.0754
  138SAPE   HN314959   0.861   0.726  33.970  0.3740 -1.3307  1.1543
  138SAPE   C1214960   0.779   0.660  34.138  0.5971 -0.2298  0.0415
  138SAPE  H12A14961   0.678   0.643  34.181  1.2137  2.3316  2.7981
  138SAPE  H12B14962   0.831   0.745  34.187  0.4509 -1.1246  1.7929
  138SAPE   C1114963   0.870   0.540  34.147 -0.0761 -0.8617  0.0340
  138SAPE  H11A14964   0.869   0.468  34.063  3.6200 -3.0662  1.6528
  138SAPE  H11B14965   0.834   0.489  34.240  1.9039  1.2847  2.1232
  138SAPE     P14966   1.127   0.491  34.184 -0.3231 -0.3239 -0.3233
  138SAPE   O1314967   1.102   0.394  34.293 -0.1786  0.6714 -0.6614
  138SAPE   O1414968   1.156   0.419  34.052 -0.1977 -0.0256 -0.5159
  138SAPE   O1214969   1.002   0.592  34.168 -0.6453 -0.1125  0.2082
  138SAPE   O1114970   1.240   0.589  34.228 -0.2694 -0.3550 -0.4849
  138SAPE    C114971   1.260   0.709  34.162  0.1675 -0.3101 -1.1691
  138SAPE    HA14972   1.180   0.737  34.090 -0.2826 -0.1435 -0.6171
  138SAPE    HB14973   1.247   0.782  34.245  0.2808 -0.6793 -0.8273
  138SAPE    C214974   1.397   0.700  34.080  0.2157  0.2769 -0.7949
  138SAPE    HS14975   1.385   0.610  34.017  1.2062 -2.0470  2.1401
  138SAPE   O2114976   1.515   0.701  34.169  0.6065 -0.5938 -0.8352
  138SAPE   C2114977   1.620   0.639  34.118  0.3382 -0.3275  0.3216
  138SAPE   O2214978   1.628   0.585  34.011  0.0247 -0.2718 -0.4434
  138SAPE   C2214979   1.733   0.651  34.218 -0.3763 -0.3545  0.0970
  138SAPE   H2R14980   1.731   0.757  34.252  1.5896 -0.1735 -0.1973
  138SAPE   H2S14981   1.717   0.588  34.308 -2.1449  0.7699  0.6266
  138SAPE    C314982   1.402   0.824  33.984  0.3328  0.0383  0.0140
  138SAPE    HX14983   1.381   0.917  34.042 -1.1986  0.0699 -0.5433
  138SAPE    HY14984   1.317   0.830  33.913  0.5872  6.2980 -0.3705
  138SAPE   O3114985   1.526   0.845  33.911  0.1910  0.7585 -0.4977
  138SAPE   C3114986   1.534   0.777  33.795 -0.7878  0.3845 -0.8681
  138SAPE   O3214987   1.447   0.699  33.759  0.4851  0.1287 -0.0494
  138SAPE   C3214988   1.671   0.807  33.731 -0.2910  0.0911  0.5788
  138SAPE   H2X14989   1.757   0.775  33.794 -0.9326 -0.2804  1.2756
  138SAPE   H2Y14990   1.672   0.915  33.706  1.6359  0.5791  2.4220
  138SAPE   C2314991   1.880   0.637  34.167 -0.1606  0.6048  0.3410
  138SAPE   H3R14992   1.897   0.723  34.100  1.2424 -1.4615 -2.1595
  138SAPE   H3S14993   1.893   0.550  34.099  2.0957  1.8769 -0.9926
  138SAPE   C2414994   1.986   0.660  34.277 -0.8363 -0.6375 -0.2292
  138SAPE   H4R14995   2.064   0.586  34.251 -2.7833 -2.5403 -0.9918
  138SAPE   H4S14996   1.941   0.629  34.374 -0.1227  1.6299  0.9077
  138SAPE   C2514997   2.039   0.805  34.290  0.1725  0.2631  0.0716
  138SAPE   H5R14998   1.971   0.890  34.295  0.1742  0.4522 -2.0413
  138SAPE   C2614999   2.164   0.842  34.266  0.6375 -0.1547  0.1830
  138SAPE   H6R15000   2.185   0.950  34.273  0.8756 -0.2409  0.8469
  138SAPE   C2715001   2.292   0.768  34.238 -0.1715  1.2542  0.9602
  138SAPE   H7R15002   2.274   0.659  34.229 -1.8319  1.6705 -2.0095
  138SAPE   H7S15003   2.369   0.780  34.318  1.7815 -0.5294 -0.5258
  138SAPE   C2815004   2.360   0.817  34.113 -0.0606 -0.7754  0.2414
  138SAPE   H8R15005   2.392   0.922  34.125  1.0301 -0.9696 -0.7271
  138SAPE   C2915006   2.399   0.763  33.993  0.8690  0.0908  0.8042
  138SAPE   H9R15007   2.428   0.826  33.908 -2.3621  1.9141  0.9193
  138SAPE  C21015008   2.365   0.627  33.958 -0.0031  0.9074  0.5781
  138SAPE  H10R15009   2.266   0.618  33.909  0.4450 -1.3271 -0.0313
  138SAPE  H10S15010   2.349   0.560  34.045 -0.5441 -0.1502 -0.3086
  138SAPE  C21115011   2.474   0.564  33.874 -0.3850  0.3822  1.2577
  138SAPE  H11R15012   2.573   0.586  33.917 -0.5646  0.5392  1.6015
  138SAPE  C21215013   2.468   0.525  33.740  0.5104  0.3336 -0.8946
  138SAPE  H12R15014   2.566   0.496  33.699  1.0865  1.3538 -0.2664
  138SAPE  C21315015   2.340   0.499  33.661 -0.3407 -0.4268  0.5668
  138SAPE  H13R15016   2.354   0.489  33.551 -2.4553 -1.0775  0.3197
  138SAPE  H13S15017   2.277   0.591  33.665 -0.9636 -0.8388  0.3285
  138SAPE  C21415018   2.249   0.389  33.709 -0.2090  0.0017  0.2954
  138SAPE  H14R15019   2.192   0.417  33.799 -2.4538  2.4155 -1.7106
  138SAPE  C21515020   2.238   0.263  33.652 -0.1495 -0.2727  0.2373
  138SAPE  H15R15021   2.163   0.194  33.693  0.5201  0.5119  2.9338
  138SAPE  C21615022   2.290   0.214  33.520  0.2020 -0.4193  0.2309
  138SAPE  H16R15023   2.395   0.249  33.516  0.4358 -1.2118 -0.8773
  138SAPE  H16S15024   2.229   0.257  33.437  0.4247 -2.8549 -1.3000
  138SAPE  C21715025   2.289   0.069  33.482  0.5954  0.0470  0.5687
  138SAPE  H17R15026   2.330   0.008  33.566 -0.5333  0.2667  1.3103
  138SAPE  H17S15027   2.347   0.048  33.390 -2.4490 -0.7743 -1.3253
  138SAPE  C21815028   2.150   0.006  33.452  0.3368  0.0501  0.1631
  138SAPE  H18R15029   2.098   0.087  33.397 -3.1539  0.3384  3.4546
  138SAPE  H18S15030   2.087  -0.017  33.540  0.7134 -0.4938  0.2987
  138SAPE  C21915031   2.148  -0.122  33.362  1.0282 -0.0344 -0.0812
  138SAPE  H19R15032   2.051  -0.171  33.381  2.5822 -3.2862  0.1219
  138SAPE  H19S15033   2.222  -0.201  33.388  0.7793 -0.7036 -1.3093
  138SAPE  C22015034   2.142  -0.096  33.210 -0.0336  0.6507  0.1158
  138SAPE  H20R15035   2.044  -0.065  33.167  0.2481  1.7293  0.2073
  138SAPE  H20S15036   2.178  -0.192  33.167  3.5066  1.8987 -0.0155
  138SAPE  H20T15037   2.218  -0.019  33.186  0.9714  0.2071  1.7147
  138SAPE   C3315038   1.699   0.710  33.611 -0.2916  0.2680  0.5429
  138SAPE   H3X15039   1.626   0.725  33.528 -0.3483  1.9693  0.8587
  138SAPE   H3Y15040   1.683   0.603  33.637 -4.4513  0.6492  0.2311
  138SAPE   C3415041   1.832   0.729  33.544 -0.3378  0.1015 -0.1393
  138SAPE   H4X15042   1.902   0.706  33.628 -3.1443 -2.4158  1.6782
  138SAPE   H4Y15043   1.838   0.836  33.513 -0.5696  0.0737 -0.2785
  138SAPE   C3515044   1.852   0.633  33.424 -0.2586  0.4768  0.0993
  138SAPE   H5X15045   1.760   0.641  33.361 -0.8970 -2.3652  0.5258
  138SAPE   H5Y15046   1.831   0.527  33.450 -0.1719  0.7461  1.3079
  138SAPE   C3615047   1.980   0.653  33.334  0.6362 -0.0362 -0.0952
  138SAPE   H6X15048   1.988   0.759  33.300 -0.5928 -0.3388 -1.3711
  138SAPE   H6Y15049   1.962   0.597  33.240 -0.2591 -2.4808  1.4290
  138SAPE   C3715050   2.110   0.600  33.378 -0.4587 -0.1234  0.5465
  138SAPE   H7X15051   2.100   0.489  33.382 -2.0232 -0.2096 -2.4838
  138SAPE   H7Y15052   2.140   0.644  33.475  0.1751  0.2319  0.1940
  138SAPE   C3815053   2.219   0.634  33.281  0.1724 -0.4309 -0.6211
  138SAPE   H8X15054   2.315   0.592  33.317 -0.7500 -1.5155  0.7039
  138SAPE   H8Y15055   2.228   0.744  33.273 -4.9360  0.2974  0.3971
  138SAPE   C3915056   2.211   0.585  33.137 -0.3464  1.2100  0.3726
  138SAPE   H9X15057   2.127   0.616  33.072 -0.5565 -2.6831 -1.4710
  138SAPE   H9Y15058   2.193   0.476  33.128  0.0393  1.3002 -2.2958
  138SAPE  C31015059   2.343   0.619  33.066 -0.1092  0.9081 -0.6464
  138SAPE  H10X15060   2.375   0.714  33.114 -0.4250 -1.0311  3.9194
  138SAPE  H10Y15061   2.329   0.621  32.956 -1.6157  0.0964 -0.4857
  138SAPE  C31115062   2.476   0.536  33.096 -0.8864 -0.2328 -0.6752
  138SAPE  H11X15063   2.467   0.443  33.036 -3.9880 -0.7215  0.3659
  138SAPE  H11Y15064   2.479   0.507  33.204  2.2743  0.3147 -0.5244
  138SAPE  C31215065   2.601   0.611  33.041 -0.4579 -0.1274 -0.3678
  138SAPE  H12X15066   2.624   0.690  33.116  0.7470  0.7957 -1.6524
  138SAPE  H12Y15067   2.571   0.637  32.937 -2.3060  0.6572  0.3231
  138SAPE  C31315068   2.735   0.523  33.029 -0.3711 -0.0409  0.6282
  138SAPE  H13X15069   2.712   0.454  32.945  0.2546  1.2802 -0.6859
  138SAPE  H13Y15070   2.775   0.468  33.117 -0.0953  1.2034  1.3139
  138SAPE  C31415071   2.849   0.611  32.970  0.0887  0.1412 -0.8924
  138SAPE  H14X15072   2.839   0.710  33.020  3.6433  0.2246 -0.0250
  138SAPE  H14Y15073   2.836   0.621  32.860 -0.8262 -1.6225 -0.9676
  138SAPE  C31515074   2.984   0.559  33.007 -0.5303  0.7590  0.0204
  138SAPE  H15X15075   3.003   0.454  32.978 -0.0996  0.7436  0.3405
  138SAPE  H15Y15076   2.995   0.545  33.117 -0.2305  0.4345 -0.0475
  138SAPE  C31615077   3.101   0.638  32.942  0.5357 -0.5305  0.2806
  138SAPE  H16X15078   3.091   0.747  32.961  0.6497 -0.0215 -2.1653
  138SAPE  H16Y15079   3.086   0.621  32.833 -0.7240  4.5748 -0.6271
  138SAPE  C31715080   3.237   0.581  32.995 -0.3362 -0.9248  0.0740
  138SAPE  H17X15081   3.255   0.486  32.940  0.2530 -0.0344 -1.3338
  138SAPE  H17Y15082   3.223   0.563  33.104  1.8562  0.9238  0.7278
  138SAPE  C31815083   3.342   0.682  32.972 -0.4862 -0.0440  0.6684
  138SAPE  H18X15084   3.440   0.642  33.005  0.5480  0.0136 -2.0631
  138SAPE  H18Y15085   3.325   0.772  33.035  0.8135  1.4186 -0.9765
  138SAPE  H18Z15086   3.348   0.710  32.865  0.1780 -1.8720  0.1950
  139SAPE     N15087   0.876   0.855  37.421 -0.0866  1.2034  0.8255
  139SAPE   HN115088   0.835   0.895  37.334 -0.2062  0.2504  0.4332
  139SAPE   HN215089   0.797   0.830  37.485  0.3578  0.4973  1.1130
  139SAPE   HN315090   0.941   0.928  37.456  0.5391  1.3129 -0.5415
  139SAPE   C1215091   0.948   0.721  37.390 -0.1369 -0.5732 -0.1698
  139SAPE  H12A15092   1.039   0.743  37.329 -1.6170 -0.7299 -2.5711
  139SAPE  H12B15093   0.875   0.658  37.336  0.3559 -1.8045  0.5653
  139SAPE   C1115094   0.980   0.656  37.523 -0.3522  0.3299  0.1142
  139SAPE  H11A15095   1.018   0.553  37.505 -1.5177 -0.3411  1.2786
  139SAPE  H11B15096   0.887   0.629  37.577 -0.9156 -0.6409 -1.2795
  139SAPE     P15097   1.211   0.700  37.603 -0.4702  0.1395  0.1218
  139SAPE   O1315098   1.223   0.557  37.641  0.8855 -0.2665  0.4467
  139SAPE   O1415099   1.272   0.754  37.477 -0.3665 -0.3508  0.0240
  139SAPE   O1215100   1.057   0.745  37.607  0.2381 -0.2726  0.7565
  139SAPE   O1115101   1.269   0.785  37.727  0.0789 -0.1649 -0.0459
  139SAPE    C115102   1.272   0.928  37.729  0.0506 -0.6863  0.5729
  139SAPE    HA15103   1.203   0.966  37.650  1.0093  1.5799  0.7423
  139SAPE    HB15104   1.240   0.980  37.823  0.1955 -1.2347  0.9296
  139SAPE    C215105   1.407   0.970  37.672  0.4690  0.0564 -0.2816
  139SAPE    HS15106   1.439   0.895  37.597 -0.6953  0.2152 -0.9797
  139SAPE   O2115107   1.498   0.976  37.786  0.4749 -0.0634 -0.5373
  139SAPE   C2115108   1.625   0.977  37.766 -0.2951  0.6284 -0.3125
  139SAPE   O2215109   1.684   0.949  37.662  0.5244 -0.0918 -0.4583
  139SAPE   C2215110   1.695   1.018  37.899 -0.9365 -0.1075 -0.3816
  139SAPE   H2R15111   1.681   1.127  37.916 -0.6421 -0.3731  1.8828
  139SAPE   H2S15112   1.662   0.949  37.979 -0.2469 -0.0034 -0.0020
  139SAPE    C315113   1.409   1.117  37.610  0.3554  0.6248 -0.3349
  139SAPE    HX15114   1.403   1.185  37.698 -2.6631 -2.0739  1.7613
  139SAPE    HY15115   1.314   1.137  37.556 -1.4173 -2.4729  1.3705
  139SAPE   O3115116   1.530   1.135  37.547  0.4247 -0.4676  0.1894
  139SAPE   C3115117   1.532   1.105  37.418  0.0836  0.6015 -0.0060
  139SAPE   O3215118   1.441   1.062  37.354  0.3181  0.3445 -0.0462
  139SAPE   C3215119   1.659   1.156  37.343  0.0737  0.5480  0.4620
  139SAPE   H2X15120   1.696   1.232  37.416 -2.0015  1.8141  0.2957
  139SAPE   H2Y15121   1.624   1.205  37.250 -2.2217  0.0088  0.9712
  139SAPE   C2315122   1.850   1.001  37.888 -0.3314  0.2813 -0.2872
  139SAPE   H3R15123   1.867   0.895  37.862 -1.7840  0.3188 -1.5477
  139SAPE   H3S15124   1.890   1.030  37.987  0.4978 -0.0693 -0.5142
  139SAPE   C2415125   1.917   1.105  37.796 -0.2991  0.0241 -0.3343
  139SAPE   H4R15126   1.888   1.206  37.831 -3.7726 -0.6897 -0.7465
  139SAPE   H4S15127   1.872   1.095  37.695 -0.0965  1.4390 -0.5831
  139SAPE   C2515128   2.064   1.077  37.783 -0.3649  0.0446  1.1909
  139SAPE   H5R15129   2.093   1.022  37.692 -2.6659  1.8812 -0.7997
  139SAPE   C2615130   2.164   1.140  37.859  0.3506 -0.6622  0.5098
  139SAPE   H6R15131   2.270   1.138  37.827  0.1508  0.7135 -0.3051
  139SAPE   C2715132   2.129   1.233  37.970  0.3482 -0.3140 -0.0877
  139SAPE   H7R15133   2.077   1.175  38.049  0.4106  1.5763  1.4090
  139SAPE   H7S15134   2.058   1.311  37.936 -2.1090 -3.0444 -1.7266
  139SAPE   C2815135   2.252   1.299  38.029  0.3852  0.3921 -0.4592
  139SAPE   H8R15136   2.348   1.255  37.998  0.2697 -1.2914  1.3330
  139SAPE   C2915137   2.250   1.371  38.141 -0.6706  0.1479 -0.4985
  139SAPE   H9R15138   2.348   1.419  38.153  0.1407 -0.1627 -4.5009
  139SAPE  C21015139   2.134   1.423  38.226  0.4107  0.5717 -0.4228
  139SAPE  H10R15140   2.048   1.445  38.159 -1.3867  3.3484  2.4992
  139SAPE  H10S15141   2.170   1.520  38.266 -0.1166  0.7053 -0.2576
  139SAPE  C21115142   2.085   1.302  38.311 -0.1015 -0.0049  0.1950
  139SAPE  H11R15143   2.072   1.207  38.257 -0.2174 -1.0019  1.9069
  139SAPE  C21215144   2.037   1.303  38.436  0.3975  0.1962  1.2448
  139SAPE  H12R15145   2.016   1.207  38.485 -0.7931  0.1738  0.7065
  139SAPE  C21315146   2.035   1.419  38.523 -0.6364 -0.3092  0.5898
  139SAPE  H13R15147   2.031   1.513  38.463  2.3896  0.3048  1.2163
  139SAPE  H13S15148   2.122   1.407  38.590 -0.1945 -2.3641 -0.3003
  139SAPE  C21415149   1.912   1.423  38.612 -0.0233 -0.7398 -0.1259
  139SAPE  H14R15150   1.853   1.330  38.614  0.6029 -1.2615 -2.5763
  139SAPE  C21515151   1.867   1.536  38.685 -0.4698  0.2763 -0.1066
  139SAPE  H15R15152   1.774   1.525  38.743  0.8846  0.0753  2.1231
  139SAPE  C21615153   1.934   1.670  38.680  0.2242 -0.1222  0.2708
  139SAPE  H16R15154   2.042   1.649  38.667  0.5756  0.9442  1.2909
  139SAPE  H16S15155   1.932   1.723  38.778 -1.3681  1.7693 -0.7185
  139SAPE  C21715156   1.896   1.760  38.559  0.6511 -0.5214 -0.2760
  139SAPE  H17R15157   1.929   1.708  38.466  0.6342  0.8987 -1.1131
  139SAPE  H17S15158   1.956   1.854  38.555  0.9264 -0.5755  1.6723
  139SAPE  C21815159   1.747   1.793  38.559  1.0707 -0.0816 -0.7987
  139SAPE  H18R15160   1.726   1.861  38.644 -0.0062  1.4604 -2.2117
  139SAPE  H18S15161   1.686   1.701  38.570 -0.8131  0.8999 -2.4165
  139SAPE  C21915162   1.694   1.859  38.436  0.2880  0.1477 -0.5420
  139SAPE  H19R15163   1.586   1.884  38.448  0.0449  0.4537 -2.9101
  139SAPE  H19S15164   1.688   1.786  38.353 -0.1196  0.6435 -0.9656
  139SAPE  C22015165   1.760   1.991  38.382  0.4878  0.5297 -0.2318
  139SAPE  H20R15166   1.716   2.020  38.285  0.1882 -2.0462 -0.9494
  139SAPE  H20S15167   1.869   1.980  38.363  0.1196 -0.7902 -1.8211
  139SAPE  H20T15168   1.735   2.070  38.456 -1.1840 -0.9257  0.8476
  139SAPE   C3315169   1.771   1.054  37.325 -0.6133 -0.3368  0.1119
  139SAPE   H3X15170   1.747   0.983  37.243 -1.4049  0.0723 -0.0145
  139SAPE   H3Y15171   1.787   0.993  37.417 -0.3714  0.6210  0.7240
  139SAPE   C3415172   1.899   1.133  37.300  0.1516 -0.1442 -0.4251
  139SAPE   H4X15173   1.918   1.206  37.382  0.6741 -2.4456  1.6288
  139SAPE   H4Y15174   1.884   1.204  37.216 -1.4048  0.8767  0.6579
  139SAPE   C3515175   2.030   1.048  37.279  0.1010 -0.1818 -0.5717
  139SAPE   H5X15176   2.112   1.121  37.262  1.5846 -1.7336 -0.4451
  139SAPE   H5Y15177   2.016   1.006  37.177 -1.7307  0.7393 -0.7321
  139SAPE   C3615178   2.084   0.950  37.390  0.5166  0.2078  0.2024
  139SAPE   H6X15179   2.005   0.878  37.423  1.2426  0.2017  2.0563
  139SAPE   H6Y15180   2.102   1.011  37.482 -2.5864  1.0143  0.3885
  139SAPE   C3715181   2.214   0.871  37.342  0.2499 -0.6769 -0.2452
  139SAPE   H7X15182   2.211   0.853  37.233 -0.5494 -0.4674 -0.2614
  139SAPE   H7Y15183   2.215   0.766  37.378  1.1924 -1.5853 -2.7397
  139SAPE   C3815184   2.353   0.941  37.382 -0.0575  0.6949 -0.2690
  139SAPE   H8X15185   2.348   0.950  37.493 -2.3843  0.8300 -0.3285
  139SAPE   H8Y15186   2.342   1.043  37.339 -1.5367  0.7767  0.2401
  139SAPE   C3915187   2.475   0.864  37.343 -0.0997  0.2049 -0.3757
  139SAPE   H9X15188   2.480   0.875  37.233  0.7437  0.3789 -0.3323
  139SAPE   H9Y15189   2.475   0.755  37.364  0.6568  0.1609 -0.5612
  139SAPE  C31015190   2.605   0.907  37.409 -0.3008 -0.2211 -0.7698
  139SAPE  H10X15191   2.598   0.918  37.520  0.6903  0.0854 -0.7298
  139SAPE  H10Y15192   2.627   1.005  37.362  0.0787  0.1315  0.1178
  139SAPE  C31115193   2.730   0.823  37.364 -0.0386 -0.2295 -1.0193
  139SAPE  H11X15194   2.754   0.849  37.258 -2.7121  1.0459 -1.4005
  139SAPE  H11Y15195   2.712   0.714  37.371 -0.9057 -0.0579 -0.4483
  139SAPE  C31215196   2.855   0.865  37.448 -0.1530 -0.5840 -0.0072
  139SAPE  H12X15197   2.832   0.863  37.557 -1.0012  0.4208 -0.1594
  139SAPE  H12Y15198   2.871   0.968  37.409 -0.3545  0.1122  1.6648
  139SAPE  C31315199   2.980   0.772  37.417 -0.4560 -0.1111  0.1804
  139SAPE  H13X15200   3.004   0.783  37.309  0.6047 -0.7871  0.3277
  139SAPE  H13Y15201   2.955   0.668  37.448  0.6997 -0.8612 -1.2348
  139SAPE  C31415202   3.095   0.824  37.507 -0.4539 -0.2023 -1.3538
  139SAPE  H14X15203   3.068   0.818  37.615 -0.0203 -1.3432 -1.2989
  139SAPE  H14Y15204   3.111   0.932  37.488  0.5404 -0.1063 -0.0934
  139SAPE  C31515205   3.214   0.727  37.493 -0.0743  0.7700  0.7615
  139SAPE  H15X15206   3.180   0.623  37.474  0.9225 -0.0034  2.9044
  139SAPE  H15Y15207   3.277   0.724  37.585 -2.8118 -0.7388  2.7333
  139SAPE  C31615208   3.300   0.761  37.368 -0.1487 -0.5232 -0.2223
  139SAPE  H16X15209   3.242   0.752  37.273  0.8122  0.5177 -0.9232
  139SAPE  H16Y15210   3.344   0.862  37.382  2.7222 -2.0481  3.3408
  139SAPE  C31715211   3.421   0.667  37.347  0.1546  0.0590  0.8258
  139SAPE  H17X15212   3.467   0.687  37.248  2.1045 -0.5971  1.5528
  139SAPE  H17Y15213   3.392   0.560  37.356 -1.4723  0.4531  0.6800
  139SAPE  C31815214   3.536   0.700  37.442 -0.1439  0.5283  1.2437
  139SAPE  H18X15215   3.626   0.646  37.407 -2.8471 -1.6081 -3.3609
  139SAPE  H18Y15216   3.517   0.660  37.544 -0.6487 -0.1765  0.8897
  139SAPE  H18Z15217   3.566   0.807  37.447  0.9203  0.2412  1.1734
  140SAPE     N15218   0.782   1.867  34.843  0.0906  0.3950 -0.5625
  140SAPE   HN115219   0.814   1.772  34.874  0.8704 -0.1117 -2.7818
  140SAPE   HN215220   0.870   1.922  34.835  0.7180 -0.2905  1.1061
  140SAPE   HN315221   0.737   1.908  34.928 -2.6330 -1.4280 -0.9832
  140SAPE   C1215222   0.700   1.879  34.720 -0.4125  0.8268 -0.1023
  140SAPE  H12A15223   0.671   1.985  34.708  0.4946  1.1943  0.8316
  140SAPE  H12B15224   0.605   1.823  34.734  0.3977 -0.8944 -1.1720
  140SAPE   C1115225   0.776   1.826  34.592  0.3316 -0.5639 -0.5392
  140SAPE  H11A15226   0.859   1.895  34.567 -3.2198  2.5799 -5.2536
  140SAPE  H11B15227   0.707   1.847  34.508  4.6927  3.8321 -3.5277
  140SAPE     P15228   0.722   1.571  34.619 -0.0972 -0.3783 -0.3238
  140SAPE   O1315229   0.748   1.460  34.530 -0.3373 -0.2992 -0.0598
  140SAPE   O1415230   0.736   1.546  34.767  0.0770  0.8605  0.5230
  140SAPE   O1215231   0.825   1.691  34.606 -0.2563  0.1839 -0.0946
  140SAPE   O1115232   0.584   1.636  34.585  0.2879  0.4917 -0.3094
  140SAPE    C115233   0.495   1.548  34.508 -0.0626  0.0647  0.0966
  140SAPE    HA15234   0.539   1.540  34.407 -0.7098 -1.6613 -0.0877
  140SAPE    HB15235   0.494   1.447  34.554 -0.1693 -0.4270 -0.9547
  140SAPE    C215236   0.351   1.607  34.504 -0.3892  0.1799  0.4559
  140SAPE    HS15237   0.353   1.695  34.437  0.4269  0.8367  1.3153
  140SAPE   O2115238   0.322   1.650  34.632  0.3506  0.6873  0.4004
  140SAPE   C2115239   0.354   1.779  34.665 -0.4230 -0.2323  0.0062
  140SAPE   O2215240   0.407   1.857  34.591  0.3722  0.4027  0.4049
  140SAPE   C2215241   0.285   1.818  34.796  0.4683 -0.6609 -0.8072
  140SAPE   H2R15242   0.233   1.916  34.785 -0.4488 -0.8220  1.4787
  140SAPE   H2S15243   0.212   1.740  34.825  1.4722 -1.5216 -0.5292
  140SAPE    C315244   0.246   1.514  34.453  0.1557 -0.3193 -0.4115
  140SAPE    HX15245   0.148   1.567  34.448  0.6637  0.5414 -1.7004
  140SAPE    HY15246   0.227   1.426  34.518  0.9601 -0.4140 -0.3000
  140SAPE   O3115247   0.268   1.471  34.317 -0.4896 -0.3294 -0.2528
  140SAPE   C3115248   0.333   1.348  34.306  0.0582 -0.0638 -0.9944
  140SAPE   O3215249   0.358   1.276  34.403 -0.0359 -0.0269  0.3587
  140SAPE   C3215250   0.348   1.299  34.159  0.2532 -0.2122 -0.7489
  140SAPE   H2X15251   0.356   1.188  34.164  2.6497 -0.0309  1.1941
  140SAPE   H2Y15252   0.444   1.326  34.111  1.1714 -1.4958  0.2905
  140SAPE   C2315253   0.386   1.841  34.913  0.1091 -0.1448 -0.2365
  140SAPE   H3R15254   0.323   1.879  34.996 -0.0951  2.4369 -1.4831
  140SAPE   H3S15255   0.458   1.921  34.887 -0.4288  0.6768  0.7179
  140SAPE   C2415256   0.462   1.713  34.952  0.1586  0.0682 -0.0478
  140SAPE   H4R15257   0.545   1.753  35.014 -1.9282  1.0608  2.2476
  140SAPE   H4S15258   0.486   1.667  34.853 -0.6674  0.0236 -0.2311
  140SAPE   C2515259   0.383   1.620  35.043  0.6960 -0.4037  0.1553
  140SAPE   H5R15260   0.309   1.671  35.106  0.5476  0.3233 -0.5943
  140SAPE   C2615261   0.367   1.488  35.033 -0.2075 -0.0671  0.1949
  140SAPE   H6R15262   0.309   1.431  35.107 -0.8597  1.3321  0.7985
  140SAPE   C2715263   0.452   1.412  34.936 -0.7587  0.4143  0.8087
  140SAPE   H7R15264   0.556   1.416  34.974 -1.1374  1.9892  1.7429
  140SAPE   H7S15265   0.445   1.454  34.833  1.6136  0.0085  0.4389
  140SAPE   C2815266   0.381   1.274  34.933  0.2343 -0.6108  0.0608
  140SAPE   H8R15267   0.437   1.207  35.000  0.2609  0.8905  1.6095
  140SAPE   C2915268   0.263   1.236  34.869  0.1404 -0.5419 -0.6544
  140SAPE   H9R15269   0.232   1.132  34.890  0.0941 -0.1015  1.7963
  140SAPE  C21015270   0.184   1.336  34.788 -0.0884  0.2159 -0.1940
  140SAPE  H10R15271   0.180   1.293  34.685 -2.2723  2.3844 -1.1172
  140SAPE  H10S15272   0.230   1.433  34.759 -1.0319 -0.0166 -2.6917
  140SAPE  C21115273   0.053   1.370  34.850  0.0726  0.5819 -0.1296
  140SAPE  H11R15274   0.059   1.358  34.960  1.4044 -1.6564 -0.3985
  140SAPE  C21215275  -0.054   1.415  34.781  0.4795  0.1392  0.0964
  140SAPE  H12R15276  -0.153   1.417  34.829  0.3328 -1.1811 -0.1054
  140SAPE  C21315277  -0.067   1.426  34.633  0.4598 -0.8137 -0.2750
  140SAPE  H13R15278   0.002   1.351  34.587 -0.1551 -1.9958  0.6513
  140SAPE  H13S15279  -0.026   1.528  34.622  1.3097 -1.1814 -0.6066
  140SAPE  C21415280  -0.212   1.411  34.596  0.0515 -0.1494  0.5951
  140SAPE  H14R15281  -0.236   1.307  34.570  0.0420 -0.4545  1.7978
  140SAPE  C21515282  -0.311   1.503  34.601 -0.0514 -0.8343  0.2050
  140SAPE  H15R15283  -0.415   1.470  34.587 -0.8257  0.4845  2.3524
  140SAPE  C21615284  -0.288   1.647  34.642 -0.1442 -0.3883  0.2340
  140SAPE  H16R15285  -0.271   1.711  34.553  3.1630 -0.1075  0.9422
  140SAPE  H16S15286  -0.202   1.665  34.710  0.5868  0.9638 -0.9935
  140SAPE  C21715287  -0.409   1.716  34.705  0.4626  0.5766  0.3532
  140SAPE  H17R15288  -0.376   1.820  34.727  0.6079  0.6547 -0.2040
  140SAPE  H17S15289  -0.439   1.665  34.798 -2.2406  0.6582 -0.3904
  140SAPE  C21815290  -0.529   1.738  34.618  0.2321 -0.3939 -0.3006
  140SAPE  H18R15291  -0.556   1.639  34.575 -1.8854 -0.9156  1.9480
  140SAPE  H18S15292  -0.508   1.810  34.536 -0.3538 -0.0387 -0.1461
  140SAPE  C21915293  -0.646   1.801  34.696 -0.1746  0.4653  0.1773
  140SAPE  H19R15294  -0.625   1.905  34.727  0.4220  0.3332  0.2393
  140SAPE  H19S15295  -0.656   1.760  34.799 -0.2177 -1.3901 -0.5257
  140SAPE  C22015296  -0.788   1.802  34.632  0.3568 -0.2713  0.5131
  140SAPE  H20R15297  -0.831   1.702  34.613  2.4832 -0.7942 -2.0759
  140SAPE  H20S15298  -0.778   1.861  34.538  1.3646 -0.4382  0.5072
  140SAPE  H20T15299  -0.861   1.849  34.701  0.8405 -0.4552  1.1658
  140SAPE   C3315300   0.238   1.359  34.059 -0.0081  0.1161 -0.6135
  140SAPE   H3X15301   0.236   1.470  34.064 -2.5035  0.2344 -2.2295
  140SAPE   H3Y15302   0.136   1.339  34.099  0.0706  2.0645  0.6722
  140SAPE   C3415303   0.255   1.298  33.920 -0.3968  0.3169  0.1262
  140SAPE   H4X15304   0.251   1.188  33.938  2.8549  0.0732 -0.1511
  140SAPE   H4Y15305   0.359   1.323  33.893 -0.0723 -2.0379 -1.1008
  140SAPE   C3515306   0.160   1.348  33.819  0.7546  0.2880 -0.3505
  140SAPE   H5X15307   0.145   1.457  33.803 -1.5408 -0.1649 -1.7998
  140SAPE   H5Y15308   0.061   1.311  33.854  2.5612 -3.3776  1.4209
  140SAPE   C3615309   0.177   1.298  33.677  0.3652 -0.0254  0.2360
  140SAPE   H6X15310   0.140   1.194  33.680 -4.2049  1.2522 -2.2781
  140SAPE   H6Y15311   0.288   1.294  33.671  0.5869  1.4872  2.2110
  140SAPE   C3715312   0.102   1.371  33.567 -0.3235 -0.0328  0.2329
  140SAPE   H7X15313   0.134   1.321  33.473 -0.5661  0.0629  0.1000
  140SAPE   H7Y15314   0.144   1.473  33.552 -1.7488  0.5709  0.1010
  140SAPE   C3815315  -0.050   1.366  33.565 -0.5267  0.0234 -0.1743
  140SAPE   H8X15316  -0.087   1.429  33.649 -0.3687  0.8940 -0.7499
  140SAPE   H8Y15317  -0.081   1.260  33.583 -0.7625  0.1873  0.4026
  140SAPE   C3915318  -0.126   1.403  33.437  0.3683 -0.9398 -0.1924
  140SAPE   H9X15319  -0.125   1.514  33.431 -2.6126 -0.9299 -3.2300
  140SAPE   H9Y15320  -0.234   1.380  33.453  0.4419  0.2011  2.4287
  140SAPE  C31015321  -0.082   1.334  33.306  0.1164 -0.2420  0.5272
  140SAPE  H10X15322  -0.047   1.230  33.324 -1.3798 -1.3711 -2.4379
  140SAPE  H10Y15323   0.007   1.388  33.268 -0.0688 -2.3443 -3.2940
  140SAPE  C31115324  -0.192   1.306  33.200 -0.5994  0.2722  0.1639
  140SAPE  H11X15325  -0.200   1.393  33.133  1.0558  0.0296 -0.3911
  140SAPE  H11Y15326  -0.282   1.283  33.262  1.8421 -1.1346  3.5626
  140SAPE  C31215327  -0.164   1.183  33.119  0.4053 -0.0788 -0.2021
  140SAPE  H12X15328  -0.173   1.099  33.191 -0.4178  1.7780  1.9686
  140SAPE  H12Y15329  -0.056   1.184  33.092  0.1795 -0.4950 -1.1528
  140SAPE  C31315330  -0.248   1.171  32.990  0.2670 -0.3883 -0.2759
  140SAPE  H13X15331  -0.209   1.259  32.934  0.2169  0.1279  0.4991
  140SAPE  H13Y15332  -0.357   1.182  33.008 -0.2133  0.6857 -3.2099
  140SAPE  C31415333  -0.222   1.040  32.920  0.1732 -0.0203  0.2960
  140SAPE  H14X15334  -0.261   0.952  32.976 -1.5394 -0.0548 -0.8402
  140SAPE  H14Y15335  -0.116   1.012  32.907 -0.2709 -1.0031 -1.5283
  140SAPE  C31515336  -0.288   1.032  32.780 -0.4260  1.3300  0.2452
  140SAPE  H15X15337  -0.364   1.113  32.777  0.1058  1.8145 -1.1529
  140SAPE  H15Y15338  -0.346   0.939  32.760 -0.4982  1.1207  1.3362
  140SAPE  C31615339  -0.185   1.046  32.669  0.0325  0.2433  0.9359
  140SAPE  H16X15340  -0.135   0.948  32.659  0.2883  0.4465  0.1188
  140SAPE  H16Y15341  -0.105   1.109  32.713  0.5303 -0.4597  1.0558
  140SAPE  C31715342  -0.241   1.098  32.531  0.3562  0.7005  0.2987
  140SAPE  H17X15343  -0.164   1.157  32.477 -0.2704 -0.6850 -2.2680
  140SAPE  H17Y15344  -0.321   1.173  32.549  0.9667  1.0489  1.6741
  140SAPE  C31815345  -0.285   0.981  32.434 -0.1264 -0.2595 -0.2542
  140SAPE  H18X15346  -0.291   1.015  32.329 -1.4378  0.9052  0.1888
  140SAPE  H18Y15347  -0.384   0.942  32.466  0.6309 -0.5677  1.9198
  140SAPE  H18Z15348  -0.197   0.912  32.431  0.7135  0.7924 -0.3331
  141SAPE     N15349   0.953   2.447  34.504  0.3141 -0.1850  0.8536
  141SAPE   HN115350   1.042   2.461  34.452 -1.0712  1.2561 -1.3294
  141SAPE   HN215351   0.949   2.527  34.570 -0.9370 -0.5157  1.2053
  141SAPE   HN315352   0.954   2.361  34.562 -1.1405 -2.3397 -2.0578
  141SAPE   C1215353   0.834   2.458  34.422 -0.3768  0.1728 -0.0873
  141SAPE  H12A15354   0.746   2.437  34.486  1.3742 -3.7031  1.3444
  141SAPE  H12B15355   0.825   2.377  34.346 -0.2230 -1.9172  2.0003
  141SAPE   C1115356   0.836   2.602  34.368 -0.1463  0.2587  0.0729
  141SAPE  H11A15357   0.923   2.627  34.303  0.1194 -0.8418 -0.0075
  141SAPE  H11B15358   0.843   2.663  34.461  2.5104  1.4745 -0.8072
  141SAPE     P15359   0.692   2.641  34.155 -0.6664  0.1571 -0.0906
  141SAPE   O1315360   0.570   2.729  34.141 -0.4257  0.4237  0.7552
  141SAPE   O1415361   0.815   2.664  34.076 -0.1627  0.0417  0.0355
  141SAPE   O1215362   0.716   2.639  34.306  0.1692 -0.4478  0.6236
  141SAPE   O1115363   0.661   2.487  34.139  0.1999  0.1584  0.7128
  141SAPE    C115364   0.563   2.405  34.212 -0.7130  0.4541 -0.3230
  141SAPE    HA15365   0.601   2.302  34.231 -2.3456  0.1688  1.7026
  141SAPE    HB15366   0.542   2.456  34.308  0.4308  1.7548 -0.7412
  141SAPE    C215367   0.431   2.389  34.142  0.1622  0.0234  0.1681
  141SAPE    HS15368   0.457   2.349  34.042  0.8273  1.0230 -0.0707
  141SAPE   O2115369   0.372   2.524  34.130  1.1034  0.7281  0.3510
  141SAPE   C2115370   0.283   2.543  34.036  0.2020  0.3742  0.9789
  141SAPE   O2215371   0.267   2.458  33.944 -0.7343 -0.1689  0.7514
  141SAPE   C2215372   0.201   2.667  34.073  0.1711  0.0399 -0.0695
  141SAPE   H2R15373   0.181   2.652  34.181  0.0314  1.1146  0.0692
  141SAPE   H2S15374   0.265   2.756  34.051  0.6023 -0.4201 -0.7025
  141SAPE    C315375   0.329   2.284  34.201  0.4042 -0.1688 -0.4867
  141SAPE    HX15376   0.376   2.184  34.206 -0.1241 -0.4709 -1.2941
  141SAPE    HY15377   0.242   2.292  34.132  0.5853 -0.5024 -0.7543
  141SAPE   O3115378   0.280   2.321  34.334 -0.8406 -0.0583  0.5504
  141SAPE   C3115379   0.352   2.286  34.432  0.6604 -0.1312 -0.2632
  141SAPE   O3215380   0.449   2.213  34.429 -0.0580 -0.0632  0.1674
  141SAPE   C3215381   0.270   2.329  34.564 -0.0194 -0.0977  0.7223
  141SAPE   H2X15382   0.177   2.378  34.529  0.1169  0.1884  0.7573
  141SAPE   H2Y15383   0.340   2.402  34.609  0.4802 -0.1398  0.0337
  141SAPE   C2315384   0.065   2.669  33.994 -0.0347 -0.0527 -0.1479
  141SAPE   H3R15385   0.025   2.567  34.006 -3.3669  1.1815  0.3322
  141SAPE   H3S15386   0.082   2.683  33.885  0.5546  2.2418  0.1807
  141SAPE   C2415387  -0.051   2.753  34.050  0.4083  0.2645 -0.0195
  141SAPE   H4R15388  -0.042   2.749  34.161 -2.2183 -0.1044  0.2427
  141SAPE   H4S15389  -0.148   2.702  34.030  1.8296 -2.8812  0.4444
  141SAPE   C2515390  -0.052   2.891  34.009 -0.3936  0.3199 -0.0477
  141SAPE   H5R15391   0.024   2.951  34.061  3.1909 -3.4295 -0.4623
  141SAPE   C2615392  -0.129   2.932  33.910 -0.7521 -0.0267  0.7845
  141SAPE   H6R15393  -0.126   3.039  33.883 -2.1677 -0.0150  0.6120
  141SAPE   C2715394  -0.231   2.849  33.834 -0.6069 -0.5276 -0.2260
  141SAPE   H7R15395  -0.329   2.846  33.886 -0.3640 -1.7537  0.1969
  141SAPE   H7S15396  -0.203   2.742  33.842  0.7510 -0.1539  0.3479
  141SAPE   C2815397  -0.259   2.902  33.691 -0.2039 -0.7074 -0.7027
  141SAPE   H8R15398  -0.197   2.990  33.666  1.8025 -1.6551  0.6417
  141SAPE   C2915399  -0.333   2.844  33.601  0.2524  0.0463 -0.1452
  141SAPE   H9R15400  -0.342   2.887  33.500  1.1651  0.2574 -0.1399
  141SAPE  C21015401  -0.406   2.712  33.622 -0.2289  0.8314 -0.2107
  141SAPE  H10R15402  -0.426   2.701  33.731 -1.7916  1.4385 -0.4133
  141SAPE  H10S15403  -0.337   2.628  33.596 -0.1357  1.3337 -1.7115
  141SAPE  C21115404  -0.536   2.695  33.550 -0.4568 -0.5036  0.0105
  141SAPE  H11R15405  -0.624   2.706  33.615 -0.7298 -0.5168 -0.3536
  141SAPE  C21215406  -0.557   2.676  33.413 -0.0797 -0.2791 -0.4360
  141SAPE  H12R15407  -0.662   2.665  33.382 -0.3633 -0.2232  0.4753
  141SAPE  C21315408  -0.457   2.685  33.307 -0.2267 -0.1604  0.0839
  141SAPE  H13R15409  -0.441   2.583  33.265 -0.0880 -0.0853 -0.0499
  141SAPE  H13S15410  -0.361   2.718  33.352  0.2495 -3.1877  1.5477
  141SAPE  C21415411  -0.520   2.782  33.204  0.3620 -0.3073 -0.1009
  141SAPE  H14R15412  -0.502   2.888  33.230  0.6485 -0.7077  1.4730
  141SAPE  C21515413  -0.595   2.745  33.098 -0.2222 -0.3313 -0.5108
  141SAPE  H15R15414  -0.643   2.825  33.039  1.1934  0.8871 -0.0590
  141SAPE  C21615415  -0.633   2.602  33.074 -0.4482 -0.0370  0.2706
  141SAPE  H16R15416  -0.742   2.604  33.050 -1.7455  0.4452  5.1402
  141SAPE  H16S15417  -0.632   2.540  33.167 -0.3601 -0.6354 -0.1248
  141SAPE  C21715418  -0.552   2.511  32.975 -0.0103  0.1122 -0.0239
  141SAPE  H17R15419  -0.603   2.412  32.975  0.6490 -0.2718  1.7408
  141SAPE  H17S15420  -0.446   2.493  33.004 -0.2955 -2.7182 -0.4820
  141SAPE  C21815421  -0.560   2.566  32.830  0.2629 -0.2778 -0.1340
  141SAPE  H18R15422  -0.498   2.657  32.819  1.4513 -1.1111 -0.5428
  141SAPE  H18S15423  -0.661   2.603  32.804 -0.1679  1.0873  2.9680
  141SAPE  C21915424  -0.515   2.465  32.721 -1.0254  0.5218  0.2373
  141SAPE  H19R15425  -0.413   2.431  32.748 -1.5797 -1.9532 -0.6030
  141SAPE  H19S15426  -0.514   2.507  32.618  0.6938 -1.3685 -0.5674
  141SAPE  C22015427  -0.602   2.342  32.712  0.1401  0.1441 -0.3384
  141SAPE  H20R15428  -0.700   2.379  32.674  0.3642 -0.5132 -1.5924
  141SAPE  H20S15429  -0.610   2.282  32.805  4.6836 -1.2201 -0.5773
  141SAPE  H20T15430  -0.567   2.274  32.632 -1.6153  0.2839 -1.2738
  141SAPE   C3315431   0.226   2.213  34.655 -0.2584 -0.4386 -0.0288
  141SAPE   H3X15432   0.193   2.261  34.750 -0.2367 -1.6818  0.6211
  141SAPE   H3Y15433   0.319   2.160  34.684  1.5522  1.1498 -2.5247
  141SAPE   C3415434   0.109   2.124  34.610  0.3208  0.0685  0.0842
  141SAPE   H4X15435   0.023   2.190  34.589  1.0322  1.3382  1.0294
  141SAPE   H4Y15436   0.085   2.043  34.681 -0.4184  1.5864  1.6277
  141SAPE   C3515437   0.140   2.053  34.474 -0.2036 -0.1742 -0.2337
  141SAPE   H5X15438   0.246   2.021  34.469 -0.9745 -2.9844 -0.2804
  141SAPE   H5Y15439   0.111   2.122  34.392  2.6817  2.1900  0.5594
  141SAPE   C3615440   0.060   1.923  34.445 -0.0381 -0.3659 -0.0755
  141SAPE   H6X15441  -0.047   1.951  34.448  0.2334  0.6163  1.3725
  141SAPE   H6Y15442   0.075   1.847  34.524  1.6677 -0.1345 -0.1303
  141SAPE   C3715443   0.093   1.866  34.305  0.6622 -0.6144 -0.1071
  141SAPE   H7X15444   0.181   1.800  34.321  0.6077 -0.3095  1.6198
  141SAPE   H7Y15445   0.125   1.955  34.246 -1.4733  1.6935  1.9773
  141SAPE   C3815446  -0.001   1.770  34.238 -0.1447 -0.5903 -0.0715
  141SAPE   H8X15447  -0.098   1.824  34.231 -0.0662 -0.0787  2.1376
  141SAPE   H8Y15448  -0.019   1.686  34.308 -0.8619 -0.3162  0.0924
  141SAPE   C3915449   0.045   1.729  34.096  0.7689 -1.1960  0.1985
  141SAPE   H9X15450   0.148   1.689  34.102  1.4817  0.5819  0.1582
  141SAPE   H9Y15451   0.052   1.809  34.019  1.9475 -0.1162  1.3859
  141SAPE  C31015452  -0.045   1.607  34.050  0.4429  0.4056 -0.4797
  141SAPE  H10X15453  -0.032   1.525  34.124 -1.0060 -2.5956 -3.3119
  141SAPE  H10Y15454   0.002   1.579  33.954 -0.0949  2.0257 -1.2536
  141SAPE  C31115455  -0.206   1.627  34.038 -1.1187 -0.0253 -0.3993
  141SAPE  H11X15456  -0.230   1.681  34.132  1.4029 -2.6487  1.9432
  141SAPE  H11Y15457  -0.264   1.532  34.045 -0.2606 -0.7593 -2.4447
  141SAPE  C31215458  -0.242   1.690  33.911  0.4852 -0.1271  0.2380
  141SAPE  H12X15459  -0.181   1.638  33.834  0.8292 -2.4892  1.9892
  141SAPE  H12Y15460  -0.215   1.798  33.905 -0.8668  0.2069 -0.1185
  141SAPE  C31315461  -0.393   1.670  33.884  0.1643 -0.0428  0.3164
  141SAPE  H13X15462  -0.459   1.733  33.947 -1.8644 -1.3876 -0.3559
  141SAPE  H13Y15463  -0.411   1.563  33.907  1.5827 -0.7299 -1.5094
  141SAPE  C31415464  -0.420   1.701  33.733  0.2437  0.3353 -0.2699
  141SAPE  H14X15465  -0.354   1.637  33.671  1.9154 -0.9211  2.6056
  141SAPE  H14Y15466  -0.398   1.810  33.724  2.9898 -0.0916  0.4484
  141SAPE  C31515467  -0.564   1.676  33.681  0.0698  0.7465  0.0619
  141SAPE  H15X15468  -0.566   1.702  33.573  2.8756  2.7962  0.3996
  141SAPE  H15Y15469  -0.627   1.756  33.726 -0.2089  0.1668  0.7249
  141SAPE  C31615470  -0.626   1.545  33.728 -0.5001  0.9923 -0.2427
  141SAPE  H16X15471  -0.735   1.536  33.708 -0.7036 -0.3957  1.2392
  141SAPE  H16Y15472  -0.622   1.547  33.839 -0.6724  0.5930 -0.2273
  141SAPE  C31715473  -0.545   1.428  33.678 -0.6247  0.0474  0.8657
  141SAPE  H17X15474  -0.596   1.340  33.723 -1.0364  0.7582  1.8205
  141SAPE  H17Y15475  -0.443   1.448  33.718  0.5720  3.4043 -3.0765
  141SAPE  C31815476  -0.540   1.420  33.523  0.2634 -0.7622  0.0127
  141SAPE  H18X15477  -0.479   1.503  33.481  0.1969  0.2808  1.8524
  141SAPE  H18Y15478  -0.646   1.433  33.494  0.0556 -0.9958  0.6477
  141SAPE  H18Z15479  -0.496   1.324  33.490  0.3470 -1.3602  1.7467
  142SAPE     N15480   0.560   1.889  38.625  0.4746 -0.1049 -0.4020
  142SAPE   HN115481   0.572   1.786  38.622 -1.0126 -0.2813 -2.3407
  142SAPE   HN215482   0.467   1.904  38.581 -0.4846  2.3402  2.2051
  142SAPE   HN315483   0.639   1.926  38.568  2.2439 -0.8368  1.4765
  142SAPE   C1215484   0.543   1.945  38.767 -0.4800  0.2276 -0.0236
  142SAPE  H12A15485   0.634   1.914  38.823 -0.0833 -0.9833 -1.2677
  142SAPE  H12B15486   0.465   1.885  38.817 -0.3851  0.9229  0.9959
  142SAPE   C1115487   0.526   2.092  38.771  0.5063 -0.0826 -0.3174
  142SAPE  H11A15488   0.538   2.118  38.878 -0.6694 -0.0070 -0.1818
  142SAPE  H11B15489   0.419   2.116  38.749  0.2488 -2.1137 -1.5100
  142SAPE     P15490   0.648   2.310  38.702  0.1619 -0.1063 -0.0303
  142SAPE   O1315491   0.749   2.332  38.807  0.3075 -0.2902  0.3433
  142SAPE   O1415492   0.682   2.357  38.566 -0.0682  0.3040 -0.2083
  142SAPE   O1215493   0.621   2.158  38.688  0.1094  0.3299 -0.6358
  142SAPE   O1115494   0.508   2.376  38.750  0.2444  0.7005  0.2300
  142SAPE    C115495   0.496   2.518  38.749  0.5122 -0.6942 -0.0577
  142SAPE    HA15496   0.595   2.568  38.759 -0.6838  1.3394  2.9861
  142SAPE    HB15497   0.450   2.569  38.662  0.4599  1.9083  1.4052
  142SAPE    C215498   0.410   2.556  38.872  0.5118 -0.2951 -0.1087
  142SAPE    HS15499   0.478   2.532  38.957  0.5272  1.0428  0.2846
  142SAPE   O2115500   0.287   2.469  38.866 -0.1377 -0.3180 -0.1527
  142SAPE   C2115501   0.298   2.351  38.934  0.0588 -0.2304  0.6936
  142SAPE   O2215502   0.370   2.333  39.029  0.1389 -0.2000  0.1606
  142SAPE   C2215503   0.190   2.267  38.872  0.3977  0.6462 -0.2043
  142SAPE   H2R15504   0.092   2.319  38.877  0.1312  0.1703 -0.4225
  142SAPE   H2S15505   0.212   2.266  38.763  2.8332  0.9956  0.2198
  142SAPE    C315506   0.369   2.706  38.890 -0.3211  0.2300  0.2958
  142SAPE    HX15507   0.453   2.779  38.892  0.0219  0.0747 -3.0339
  142SAPE    HY15508   0.310   2.706  38.985 -2.5322 -0.9908 -1.0061
  142SAPE   O3115509   0.286   2.748  38.785  0.3172  0.1513  0.0987
  142SAPE   C3115510   0.228   2.868  38.802 -0.2663 -0.4067  0.5058
  142SAPE   O3215511   0.257   2.945  38.888  0.4045  0.0445 -0.5774
  142SAPE   C3215512   0.123   2.898  38.690 -0.2342 -0.9337  0.6063
  142SAPE   H2X15513   0.157   2.838  38.603  2.7574  0.8992  0.3669
  142SAPE   H2Y15514   0.137   3.007  38.672  2.0713 -1.5092 -1.4527
  142SAPE   C2315515   0.186   2.124  38.921  0.6516 -0.1683 -0.2791
  142SAPE   H3R15516   0.150   2.122  39.025  1.0572  0.6263 -0.1158
  142SAPE   H3S15517   0.290   2.085  38.912  1.4037  2.0897 -2.7912
  142SAPE   C2415518   0.088   2.034  38.837 -0.9063  0.9152 -0.7220
  142SAPE   H4R15519   0.153   2.003  38.753  0.9990 -0.3643  1.1385
  142SAPE   H4S15520   0.007   2.094  38.790 -0.5715  1.5265 -0.5275
  142SAPE   C2515521   0.045   1.903  38.903  0.1839  0.3978 -0.0740
  142SAPE   H5R15522   0.108   1.863  38.985  0.0950 -0.2554 -0.3246
  142SAPE   C2615523  -0.071   1.837  38.878  0.4203  0.9024 -0.6545
  142SAPE   H6R15524  -0.091   1.743  38.932  1.2290  2.0934  1.8681
  142SAPE   C2715525  -0.176   1.865  38.776  0.4191 -0.1622 -0.3853
  142SAPE   H7R15526  -0.211   1.773  38.724  0.9578  0.2913 -1.5853
  142SAPE   H7S15527  -0.131   1.933  38.701  1.4396  0.0198  0.3700
  142SAPE   C2815528  -0.311   1.940  38.804 -0.9529  0.6223 -0.0297
  142SAPE   H8R15529  -0.308   2.042  38.765  0.3789  0.0307 -1.5600
  142SAPE   C2915530  -0.414   1.890  38.875  0.3982 -0.5463 -0.0718
  142SAPE   H9R15531  -0.497   1.962  38.887 -0.1930 -1.4680  1.6696
  142SAPE  C21015532  -0.424   1.743  38.925 -0.7707 -0.6827 -0.6305
  142SAPE  H10R15533  -0.355   1.683  38.861  1.7497  0.1478  1.1779
  142SAPE  H10S15534  -0.531   1.716  38.910 -1.7022  2.1088  0.3939
  142SAPE  C21115535  -0.396   1.735  39.077 -0.4630 -0.2262  0.4602
  142SAPE  H11R15536  -0.308   1.676  39.108  1.2330 -0.5082 -4.0638
  142SAPE  C21215537  -0.485   1.781  39.172  0.2126 -0.5539  0.1695
  142SAPE  H12R15538  -0.451   1.779  39.276 -1.5183 -0.2532  0.7731
  142SAPE  C21315539  -0.620   1.852  39.146  0.2945  0.0715  0.1791
  142SAPE  H13R15540  -0.705   1.785  39.122 -0.4241  0.8630  0.4620
  142SAPE  H13S15541  -0.614   1.926  39.063 -0.9469  1.8926  1.5998
  142SAPE  C21415542  -0.650   1.956  39.255  0.5748 -0.1132  0.4509
  142SAPE  H14R15543  -0.571   2.020  39.297 -1.2852  2.0187  0.9064
  142SAPE  C21515544  -0.775   1.982  39.294 -0.3507 -1.0580 -0.2435
  142SAPE  H15R15545  -0.785   2.053  39.378  1.9365 -0.2832 -0.5630
  142SAPE  C21615546  -0.893   1.911  39.246 -0.0799  0.1706  0.6148
  142SAPE  H16R15547  -0.904   1.807  39.283  0.1546  0.4607  1.5450
  142SAPE  H16S15548  -0.883   1.919  39.136  1.2107  0.3041  0.7202
  142SAPE  C21715549  -1.026   1.986  39.275 -0.6025  0.2076  0.2062
  142SAPE  H17R15550  -1.013   2.095  39.263 -1.1543  0.5353  2.2890
  142SAPE  H17S15551  -1.046   1.960  39.381 -2.1585  1.5083  0.2505
  142SAPE  C21815552  -1.136   1.953  39.174  0.1905  0.3954 -0.1244
  142SAPE  H18R15553  -1.112   1.957  39.066  1.2146 -1.6100 -0.0175
  142SAPE  H18S15554  -1.199   2.043  39.191 -0.2740  0.2264 -0.8967
  142SAPE  C21915555  -1.215   1.830  39.195 -0.6890 -0.6152  0.7679
  142SAPE  H19R15556  -1.228   1.819  39.305 -2.0866 -2.3840  0.4792
  142SAPE  H19S15557  -1.159   1.743  39.156  1.9205 -0.1086  3.0839
  142SAPE  C22015558  -1.358   1.819  39.136  0.0881  0.1021 -0.5311
  142SAPE  H20R15559  -1.418   1.913  39.134  0.2866  0.2149 -2.0696
  142SAPE  H20S15560  -1.421   1.741  39.184  0.9486  0.1032  0.6477
  142SAPE  H20T15561  -1.342   1.793  39.029 -0.6989  3.3122 -1.5331
  142SAPE   C3315562  -0.008   2.847  38.745  0.4292  0.7746  0.8317
  142SAPE   H3X15563  -0.008   2.737  38.766 -0.9948 -0.2513 -3.5357
  142SAPE   H3Y15564  -0.084   2.856  38.664 -0.9020  1.5941  2.1221
  142SAPE   C3415565  -0.069   2.920  38.868 -0.2264 -0.3458  0.1655
  142SAPE   H4X15566  -0.077   3.028  38.844 -1.0827 -0.1073  1.4384
  142SAPE   H4Y15567  -0.005   2.901  38.957 -0.0752 -0.8159 -0.0359
  142SAPE   C3515568  -0.205   2.874  38.912 -0.2654 -0.1709  0.0462
  142SAPE   H5X15569  -0.186   2.775  38.959 -0.5414 -0.2755 -0.0607
  142SAPE   H5Y15570  -0.270   2.845  38.826 -0.2811 -0.3134  0.1014
  142SAPE   C3615571  -0.282   2.951  39.022  0.6534 -0.6227 -0.2251
  142SAPE   H6X15572  -0.331   3.037  38.970 -2.4552 -2.0567  0.0602
  142SAPE   H6Y15573  -0.213   2.993  39.098  2.5509 -0.8322 -1.7672
  142SAPE   C3715574  -0.400   2.855  39.075 -0.4633  0.3683 -0.7424
  142SAPE   H7X15575  -0.440   2.921  39.155 -0.8422 -0.4501 -0.2401
  142SAPE   H7Y15576  -0.363   2.763  39.125  1.3879  1.0923 -0.7098
  142SAPE   C3815577  -0.502   2.829  38.968  0.0844  0.6101  0.4270
  142SAPE   H8X15578  -0.454   2.767  38.889  1.0118 -0.0499  1.4639
  142SAPE   H8Y15579  -0.536   2.923  38.920  0.0654  0.4491  0.1170
  142SAPE   C3915580  -0.619   2.745  39.016  0.6714 -0.3180  0.9645
  142SAPE   H9X15581  -0.707   2.754  38.948  0.0452 -1.2531  1.6230
  142SAPE   H9Y15582  -0.644   2.784  39.117  0.0596  1.4696  0.1496
  142SAPE  C31015583  -0.588   2.597  39.016  0.4272 -0.1603  0.0148
  142SAPE  H10X15584  -0.657   2.545  39.086  2.0243 -0.8997  1.1326
  142SAPE  H10Y15585  -0.482   2.590  39.051 -0.1242 -1.5355  1.5837
  142SAPE  C31115586  -0.599   2.522  38.886 -0.0042 -0.4992 -0.0748
  142SAPE  H11X15587  -0.562   2.417  38.896 -3.0419 -1.5950  1.0632
  142SAPE  H11Y15588  -0.535   2.565  38.807 -0.3257 -0.1014 -0.1185
  142SAPE  C31215589  -0.734   2.515  38.820 -0.0008 -0.2796  0.2907
  142SAPE  H12X15590  -0.743   2.592  38.740 -0.3866 -1.9676 -1.3626
  142SAPE  H12Y15591  -0.808   2.523  38.902  1.5041  0.4552  1.6303
  142SAPE  C31315592  -0.769   2.383  38.743 -0.9234 -0.0051  0.5329
  142SAPE  H13X15593  -0.687   2.366  38.670 -1.0969  3.6540 -0.7057
  142SAPE  H13Y15594  -0.865   2.403  38.692 -0.4016  0.6505 -0.2163
  142SAPE  C31415595  -0.791   2.256  38.818 -0.9144 -0.1051  0.4003
  142SAPE  H14X15596  -0.873   2.265  38.892 -0.6125 -0.5356  0.7916
  142SAPE  H14Y15597  -0.697   2.251  38.877 -0.0949 -0.3154 -0.8842
  142SAPE  C31515598  -0.805   2.144  38.722 -0.2019  0.3573 -0.2413
  142SAPE  H15X15599  -0.726   2.132  38.645  0.2791  0.3082  0.2485
  142SAPE  H15Y15600  -0.895   2.161  38.660 -0.7236  0.1233  0.4357
  142SAPE  C31615601  -0.841   2.020  38.802  0.5872 -0.2009 -1.2028
  142SAPE  H16X15602  -0.950   2.018  38.823  0.9143 -0.2281  0.6027
  142SAPE  H16Y15603  -0.796   2.014  38.903 -1.1768 -1.3438 -0.4531
  142SAPE  C31715604  -0.803   1.881  38.733 -0.8829 -1.3865 -0.3251
  142SAPE  H17X15605  -0.694   1.868  38.720 -0.9180 -2.9947  0.6869
  142SAPE  H17Y15606  -0.845   1.883  38.630  0.9332  1.4802 -1.1310
  142SAPE  C31815607  -0.859   1.767  38.818 -0.7000  0.7914  0.6797
  142SAPE  H18X15608  -0.850   1.669  38.767  2.2142  1.0145  0.5758
  142SAPE  H18Y15609  -0.967   1.787  38.833 -0.8098  0.3643  0.4702
  142SAPE  H18Z15610  -0.815   1.778  38.919  0.9706  1.3465 -0.0693
  143SAPE     N15611   1.532   3.025  35.165 -0.4916  0.0727 -0.7009
  143SAPE   HN115612   1.485   3.093  35.102  3.0314  0.5824 -3.0679
  143SAPE   HN215613   1.479   2.959  35.226  0.0779  0.6405  0.4373
  143SAPE   HN315614   1.598   3.076  35.227  1.0979  0.8801 -2.9372
  143SAPE   C1215615   1.623   2.934  35.083 -0.1000  0.2988 -1.2612
  143SAPE  H12A15616   1.699   3.004  35.040  1.2107  1.5196  2.6209
  143SAPE  H12B15617   1.552   2.878  35.018  0.3907  0.3889 -1.8849
  143SAPE   C1115618   1.702   2.830  35.168  0.0354  0.8951  0.2696
  143SAPE  H11A15619   1.781   2.884  35.226 -0.5808 -0.7677  2.8539
  143SAPE  H11B15620   1.759   2.755  35.109 -1.4041 -1.2675  1.4812
  143SAPE     P15621   1.537   2.641  35.228 -0.1722  0.2000  0.6389
  143SAPE   O1315622   1.481   2.564  35.336  0.1908  0.8492 -0.1364
  143SAPE   O1415623   1.445   2.672  35.116  0.1565  0.0176  0.2849
  143SAPE   O1215624   1.617   2.771  35.270 -0.3025 -0.0411 -0.0111
  143SAPE   O1115625   1.651   2.556  35.162  0.0122 -0.1372 -0.0361
  143SAPE    C115626   1.741   2.482  35.242 -0.5120 -0.0064 -0.1411
  143SAPE    HA15627   1.775   2.537  35.333  1.0796 -1.3727  0.1310
  143SAPE    HB15628   1.704   2.388  35.287 -0.1233 -0.1240 -0.0600
  143SAPE    C215629   1.854   2.443  35.159 -0.5725 -0.3639  0.7823
  143SAPE    HS15630   1.861   2.519  35.079 -0.6881 -1.0540  0.0989
  143SAPE   O2115631   1.841   2.313  35.111 -0.5740  0.4970  0.2569
  143SAPE   C2115632   1.794   2.310  34.992  1.0273  0.4040 -0.1571
  143SAPE   O2215633   1.767   2.407  34.924  0.6367 -0.0874 -0.2911
  143SAPE   C2215634   1.774   2.171  34.944 -0.2031  0.2097  0.8145
  143SAPE   H2R15635   1.725   2.109  35.022  0.5811 -1.5054  0.0127
  143SAPE   H2S15636   1.705   2.176  34.857  1.7619  1.4235 -0.7561
  143SAPE    C315637   1.993   2.456  35.231 -0.0075  0.1446 -0.0462
  143SAPE    HX15638   1.983   2.413  35.334  1.3759 -0.1443 -0.0152
  143SAPE    HY15639   2.029   2.560  35.243  0.2186 -0.0415  1.1001
  143SAPE   O3115640   2.097   2.384  35.162  0.2580  0.3005  0.0842
  143SAPE   C3115641   2.130   2.266  35.195  0.2124  0.8492 -0.4106
  143SAPE   O3215642   2.070   2.200  35.283  0.6230 -0.4222 -0.3902
  143SAPE   C3215643   2.240   2.214  35.103 -0.4292  0.5254  0.3104
  143SAPE   H2X15644   2.324   2.287  35.095  0.6331 -0.6454  0.3562
  143SAPE   H2Y15645   2.201   2.199  35.000  2.2508  1.8186 -1.0061
  143SAPE   C2315646   1.907   2.095  34.900  0.9396 -0.4088 -0.3790
  143SAPE   H3R15647   1.986   2.168  34.872  0.0796  0.7945  0.2257
  143SAPE   H3S15648   1.880   2.060  34.798 -0.7820  2.1432 -0.8889
  143SAPE   C2415649   1.943   1.988  35.001  0.6954 -0.7643  0.0381
  143SAPE   H4R15650   1.932   2.037  35.100  2.2185 -2.7156  1.2412
  143SAPE   H4S15651   2.052   1.965  34.998  0.7971 -0.4098 -3.4740
  143SAPE   C2515652   1.861   1.867  35.000 -0.6076  1.0196 -0.2662
  143SAPE   H5R15653   1.755   1.883  35.026 -0.7760 -1.6073  0.9029
  143SAPE   C2615654   1.902   1.743  34.966 -0.8111 -0.2864  0.5491
  143SAPE   H6R15655   1.827   1.663  34.960  0.9640 -1.9560 -1.9157
  143SAPE   C2715656   2.035   1.688  34.923  0.4527 -0.1935 -0.1984
  143SAPE   H7R15657   2.047   1.578  34.938  0.6127 -0.1122  0.2891
  143SAPE   H7S15658   2.111   1.735  34.989 -0.9201  1.8753  0.0083
  143SAPE   C2815659   2.065   1.733  34.779 -0.4603 -0.6969  0.0885
  143SAPE   H8R15660   1.977   1.749  34.715 -0.7452  0.5197  0.7699
  143SAPE   C2915661   2.187   1.731  34.720  0.0091  0.2109 -0.1575
  143SAPE   H9R15662   2.186   1.754  34.612 -0.6695 -2.5046 -0.8225
  143SAPE  C21015663   2.326   1.690  34.753 -0.4733 -0.6681 -0.0469
  143SAPE  H10R15664   2.389   1.778  34.778 -1.8517  0.1320  0.7454
  143SAPE  H10S15665   2.377   1.655  34.661 -1.6852  1.5510 -1.6547
  143SAPE  C21115666   2.337   1.592  34.867 -0.0421  0.0828  0.0946
  143SAPE  H11R15667   2.294   1.633  34.960  0.6723  1.5781 -0.1976
  143SAPE  C21215668   2.395   1.473  34.878 -1.2354 -0.7171  0.6376
  143SAPE  H12R15669   2.378   1.413  34.968 -0.5639 -1.0467  0.5517
  143SAPE  C21315670   2.469   1.395  34.773 -0.7702  0.1180  0.6490
  143SAPE  H13R15671   2.434   1.432  34.674  0.7286  0.0830  0.0877
  143SAPE  H13S15672   2.436   1.290  34.778  0.3430 -0.2667  0.2977
  143SAPE  C21415673   2.623   1.420  34.779  0.8830  0.6204  0.2266
  143SAPE  H14R15674   2.670   1.487  34.851  0.3676  1.3359 -0.0876
  143SAPE  C21515675   2.709   1.334  34.720 -0.2717 -0.0863  0.1504
  143SAPE  H15R15676   2.816   1.348  34.741 -0.2443  1.7240 -0.9569
  143SAPE  C21615677   2.667   1.228  34.627 -0.0194  0.1550 -0.7038
  143SAPE  H16R15678   2.556   1.218  34.621 -0.2808  3.1282 -2.3787
  143SAPE  H16S15679   2.712   1.138  34.675  0.0697  0.1112 -0.8729
  143SAPE  C21715680   2.729   1.279  34.495  0.6940  0.0030  0.5770
  143SAPE  H17R15681   2.833   1.241  34.486 -0.4061 -3.0705 -0.1157
  143SAPE  H17S15682   2.719   1.388  34.476 -1.7159  0.0288  1.6511
  143SAPE  C21815683   2.666   1.211  34.370  0.6724  0.4437 -0.9238
  143SAPE  H18R15684   2.682   1.290  34.294  2.3551  0.8347 -0.2030
  143SAPE  H18S15685   2.558   1.188  34.378  1.0422 -1.0245  0.6945
  143SAPE  C21915686   2.740   1.089  34.314  1.1044 -0.3547 -1.3814
  143SAPE  H19R15687   2.666   1.025  34.262 -0.3023  0.6135 -0.6390
  143SAPE  H19S15688   2.758   1.023  34.402 -1.1934 -0.9775 -1.3242
  143SAPE  C22015689   2.871   1.120  34.242  0.1976  0.0514 -0.3176
  143SAPE  H20R15690   2.920   1.025  34.212  0.3514 -0.1931  0.6738
  143SAPE  H20S15691   2.943   1.177  34.303  0.5018  0.4571 -1.0414
  143SAPE  H20T15692   2.859   1.172  34.145  0.2792 -1.5634 -1.2382
  143SAPE   C3315693   2.297   2.088  35.168 -0.2145 -0.7263  0.4236
  143SAPE   H3X15694   2.217   2.015  35.194 -1.2422  0.3501  0.3413
  143SAPE   H3Y15695   2.335   2.114  35.269  0.5517  1.6464 -0.4164
  143SAPE   C3415696   2.407   2.014  35.088 -0.0658 -0.2375  0.3409
  143SAPE   H4X15697   2.368   1.989  34.987  1.5086  0.7875 -0.5538
  143SAPE   H4Y15698   2.431   1.912  35.125  0.6224 -0.4342 -0.6112
  143SAPE   C3515699   2.536   2.095  35.098 -0.2736 -0.6110  0.1089
  143SAPE   H5X15700   2.564   2.128  35.200  2.4312  2.1298 -1.3536
  143SAPE   H5Y15701   2.538   2.185  35.033 -1.2937 -1.5607 -1.2740
  143SAPE   C3615702   2.654   2.013  35.048 -0.2216  0.2083 -1.0762
  143SAPE   H6X15703   2.629   1.964  34.951 -1.8753 -0.9301 -0.1297
  143SAPE   H6Y15704   2.665   1.922  35.110  0.8133  0.2250 -1.2199
  143SAPE   C3715705   2.777   2.095  35.037 -1.7240  0.1116  0.1494
  143SAPE   H7X15706   2.763   2.145  35.135 -1.3977 -2.6975  1.7629
  143SAPE   H7Y15707   2.771   2.174  34.959 -0.0435 -0.0344 -0.1619
  143SAPE   C3815708   2.897   2.000  35.028 -0.6782 -0.0242 -0.1871
  143SAPE   H8X15709   2.903   1.931  34.941  0.8871 -0.7822  0.4817
  143SAPE   H8Y15710   2.897   1.930  35.114  1.4975  1.9594  1.5964
  143SAPE   C3915711   3.033   2.084  35.042  0.4522  0.3636  0.1507
  143SAPE   H9X15712   3.023   2.161  35.122 -2.7638 -2.9823  3.4171
  143SAPE   H9Y15713   3.049   2.129  34.942  1.4669 -0.7588 -0.2145
  143SAPE  C31015714   3.155   2.004  35.087 -0.5491  0.1311 -0.4707
  143SAPE  H10X15715   3.186   1.941  35.001 -1.2661 -0.0882 -0.5766
  143SAPE  H10Y15716   3.125   1.952  35.181  0.0944  2.0597  0.8642
  143SAPE  C31115717   3.287   2.091  35.112  0.2447  0.2149  1.0153
  143SAPE  H11X15718   3.281   2.162  35.196 -2.7848  0.7020  0.4899
  143SAPE  H11Y15719   3.295   2.166  35.030  0.7770  1.1788  1.9253
  143SAPE  C31215720   3.424   2.016  35.116  0.5410 -0.4770  0.9577
  143SAPE  H12X15721   3.500   2.096  35.130 -1.6439  1.4125  2.5033
  143SAPE  H12Y15722   3.439   1.964  35.019  3.0947  0.4109  0.7930
  143SAPE  C31315723   3.429   1.917  35.235 -0.7253  0.9379 -0.3053
  143SAPE  H13X15724   3.351   1.839  35.229  0.3134 -0.3050  1.4507
  143SAPE  H13Y15725   3.430   1.973  35.331  1.1229  0.3171  0.0769
  143SAPE  C31415726   3.564   1.835  35.234 -0.9008 -0.3871 -0.6874
  143SAPE  H14X15727   3.648   1.900  35.200 -0.7525  1.0021  2.0794
  143SAPE  H14Y15728   3.548   1.760  35.153 -1.6657  1.7733 -2.6692
  143SAPE  C31515729   3.600   1.763  35.367  0.1213 -0.8602 -0.2941
  143SAPE  H15X15730   3.654   1.668  35.345  1.0352  0.1194 -2.6409
  143SAPE  H15Y15731   3.505   1.732  35.417  1.8412 -0.1799  3.7166
  143SAPE  C31615732   3.700   1.841  35.452  0.2637  0.3112  0.7260
  143SAPE  H16X15733   3.676   1.817  35.557 -1.5731  0.2040  0.3144
  143SAPE  H16Y15734   3.680   1.950  35.443 -0.4752  0.2363  1.3868
  143SAPE  C31715735   3.850   1.802  35.436 -0.1335  0.5174  0.0054
  143SAPE  H17X15736   3.902   1.848  35.349 -0.6865 -0.9065 -1.1272
  143SAPE  H17Y15737   3.840   1.691  35.426 -2.2076  0.7848 -1.6417
  143SAPE  C31815738   3.929   1.819  35.559 -0.7006  0.0157 -0.0280
  143SAPE  H18X15739   4.026   1.767  35.552 -1.4340 -1.4872  0.5186
  143SAPE  H18Y15740   3.880   1.789  35.655  1.9750 -0.2168  1.3669
  143SAPE  H18Z15741   3.955   1.927  35.570  0.7818 -0.4075  0.9992
  144SAPE     N15742   1.227   2.654  39.558 -0.3650 -0.5940  0.4494
  144SAPE   HN115743   1.221   2.558  39.598 -1.5235  0.0371  1.8790
  144SAPE   HN215744   1.232   2.717  39.640  1.3691 -1.6076  1.1847
  144SAPE   HN315745   1.138   2.690  39.519 -0.1040  0.1781  0.5479
  144SAPE   C1215746   1.348   2.686  39.477 -0.6809  0.6276 -0.5585
  144SAPE  H12A15747   1.387   2.591  39.433  0.0073 -0.9273  3.0613
  144SAPE  H12B15748   1.432   2.719  39.541  0.0887  2.9119 -2.5988
  144SAPE   C1115749   1.302   2.788  39.370  0.5770 -0.0553 -0.9469
  144SAPE  H11A15750   1.221   2.762  39.299 -1.4454  1.2288  0.7705
  144SAPE  H11B15751   1.397   2.798  39.312  0.2849  0.9609 -1.2729
  144SAPE     P15752   1.302   3.040  39.360  0.3953  0.3566  0.2826
  144SAPE   O1315753   1.249   3.030  39.224  0.3127 -0.6641  0.0839
  144SAPE   O1415754   1.264   3.165  39.436  0.1928  0.3624 -0.4182
  144SAPE   O1215755   1.261   2.909  39.436  0.0787  0.1938  0.1418
  144SAPE   O1115756   1.462   3.034  39.345  0.0856  0.2711 -0.6208
  144SAPE    C115757   1.540   3.000  39.462  0.3512  0.1570  0.3890
  144SAPE    HA15758   1.525   2.896  39.497 -3.0978  0.6367  0.6020
  144SAPE    HB15759   1.645   2.997  39.425 -0.6691  0.2271 -2.7701
  144SAPE    C215760   1.541   3.105  39.571 -0.2386  0.7952  0.0903
  144SAPE    HS15761   1.445   3.113  39.626  0.0473  3.3378  0.3496
  144SAPE   O2115762   1.572   3.235  39.510  0.0843  0.1599  0.0213
  144SAPE   C2115763   1.520   3.345  39.565  0.4052  0.6716  0.0288
  144SAPE   O2215764   1.453   3.347  39.670  0.2652 -0.0260  0.5143
  144SAPE   C2215765   1.551   3.460  39.478 -0.7744  0.0377  0.1094
  144SAPE   H2R15766   1.655   3.447  39.442 -1.4317  1.1369 -2.4089
  144SAPE   H2S15767   1.488   3.471  39.387  1.4686 -0.4715 -1.5963
  144SAPE    C315768   1.649   3.074  39.683 -0.3572 -0.0492  0.3573
  144SAPE    HX15769   1.611   2.986  39.738 -1.3710  1.4010  2.0971
  144SAPE    HY15770   1.645   3.151  39.763 -0.2870 -3.0139  3.4478
  144SAPE   O3115771   1.782   3.049  39.638  0.3348 -0.2239 -0.5573
  144SAPE   C3115772   1.867   3.018  39.739  0.2412  0.8181  0.2105
  144SAPE   O3215773   1.829   2.985  39.855 -0.0316 -0.8617 -0.2125
  144SAPE   C3215774   2.006   2.998  39.678 -0.1380  0.0874  0.6923
  144SAPE   H2X15775   2.015   3.078  39.601  1.1483 -1.3633 -0.7437
  144SAPE   H2Y15776   2.007   2.897  39.632  1.2955  0.8058 -0.9754
  144SAPE   C2315777   1.533   3.601  39.542  0.4783  0.3528  0.1857
  144SAPE   H3R15778   1.425   3.604  39.566  0.3149  0.0799 -0.5068
  144SAPE   H3S15779   1.546   3.688  39.475 -0.6400  0.6957  0.3970
  144SAPE   C2415780   1.633   3.628  39.651 -0.8323  0.0060  0.0344
  144SAPE   H4R15781   1.736   3.633  39.609 -0.5032 -3.3689  0.1682
  144SAPE   H4S15782   1.660   3.550  39.725  1.8493  1.0725  0.3073
  144SAPE   C2515783   1.604   3.761  39.708 -0.0100 -0.3933 -0.0912
  144SAPE   H5R15784   1.502   3.801  39.698 -1.8778 -4.8810 -1.2426
  144SAPE   C2615785   1.681   3.826  39.792 -0.2085 -0.6457 -0.0031
  144SAPE   H6R15786   1.651   3.917  39.845  0.4459 -0.0826 -0.5768
  144SAPE   C2715787   1.809   3.777  39.853 -0.0178 -0.9218  0.4222
  144SAPE   H7R15788   1.819   3.674  39.814  0.1290 -0.1570 -1.6858
  144SAPE   H7S15789   1.808   3.780  39.964 -0.3509 -0.4391  0.4067
  144SAPE   C2815790   1.934   3.847  39.810 -0.3891  0.0250  0.5664
  144SAPE   H8R15791   1.941   3.872  39.703  3.2208  1.3149  0.9746
  144SAPE   C2915792   2.027   3.895  39.885 -0.4096 -0.6714  0.3483
  144SAPE   H9R15793   2.103   3.942  39.820 -1.8536 -1.2001 -1.8236
  144SAPE  C21015794   2.050   3.885  40.033 -0.2791 -0.0253  0.2269
  144SAPE  H10R15795   1.979   3.815  40.082 -1.3315  0.1444 -1.0167
  144SAPE  H10S15796   2.040   3.992  40.061 -2.0618 -0.0713 -0.1330
  144SAPE  C21115797   2.194   3.842  40.071 -0.0723 -0.1980  0.7912
  144SAPE  H11R15798   2.206   3.750  40.130  1.0907  0.5551  1.7734
  144SAPE  C21215799   2.308   3.919  40.051  0.0899 -0.1295  0.6850
  144SAPE  H12R15800   2.408   3.882  40.076  0.8886  1.6678  0.3708
  144SAPE  C21315801   2.292   4.055  39.988 -0.1524 -0.1832 -0.5810
  144SAPE  H13R15802   2.199   4.107  40.019 -1.5170 -2.7584 -0.0905
  144SAPE  H13S15803   2.293   4.049  39.877 -2.2127  1.3441 -0.7256
  144SAPE  C21415804   2.404   4.139  40.035  0.4828 -0.2350  0.0214
  144SAPE  H14R15805   2.484   4.141  39.960  0.6510  0.3373  0.2123
  144SAPE  C21515806   2.402   4.225  40.138 -0.4586  0.2380  0.1181
  144SAPE  H15R15807   2.500   4.266  40.165  0.8053 -2.0329 -0.7527
  144SAPE  C21615808   2.302   4.238  40.253  0.0560  0.4876  0.2106
  144SAPE  H16R15809   2.353   4.246  40.352  2.7445 -0.7817 -0.9538
  144SAPE  H16S15810   2.242   4.148  40.278  1.2981 -0.8226 -1.3210
  144SAPE  C21715811   2.203   4.344  40.232  1.1019 -0.8197  0.0994
  144SAPE  H17R15812   2.177   4.360  40.126 -0.3355 -0.2715  0.5093
  144SAPE  H17S15813   2.244   4.442  40.265  0.6382  0.2115 -2.2196
  144SAPE  C21815814   2.066   4.306  40.293  0.0640  0.5355  0.0687
  144SAPE  H18R15815   2.090   4.265  40.394  2.0207  3.5475  0.9759
  144SAPE  H18S15816   2.012   4.231  40.232 -0.4887 -0.6927  1.9923
  144SAPE  C21915817   1.966   4.416  40.321 -0.1352 -0.2362  0.0387
  144SAPE  H19R15818   2.016   4.501  40.373  0.4238  0.1485 -1.0913
  144SAPE  H19S15819   1.884   4.391  40.391 -1.4125  2.4022 -0.3634
  144SAPE  C22015820   1.892   4.460  40.197 -0.2519 -0.3414 -0.5496
  144SAPE  H20R15821   1.826   4.378  40.161  0.7671 -0.6080 -1.8931
  144SAPE  H20S15822   1.956   4.485  40.110 -1.3566 -1.1473 -1.6379
  144SAPE  H20T15823   1.829   4.549  40.218 -1.1962 -1.1293  0.0429
  144SAPE   C3315824   2.127   3.006  39.778  0.2796  0.8831 -0.2532
  144SAPE   H3X15825   2.129   2.937  39.865  3.4201 -0.3738 -1.1855
  144SAPE   H3Y15826   2.131   3.112  39.811 -1.1481  1.0184 -0.4498
  144SAPE   C3415827   2.258   2.968  39.699  0.2115  0.4487 -0.4341
  144SAPE   H4X15828   2.242   2.999  39.594 -1.4096  0.1821 -0.2839
  144SAPE   H4Y15829   2.257   2.858  39.685  0.3837  0.7293 -3.1400
  144SAPE   C3515830   2.389   3.027  39.753 -0.2091  0.0313 -0.1738
  144SAPE   H5X15831   2.395   3.019  39.863  0.1159  1.4515 -0.0585
  144SAPE   H5Y15832   2.380   3.135  39.727 -0.3173 -0.1225 -0.7900
  144SAPE   C3615833   2.517   2.971  39.673  0.3549 -0.3699 -0.2203
  144SAPE   H6X15834   2.489   2.988  39.567 -1.5921 -2.0841 -0.0483
  144SAPE   H6Y15835   2.523   2.862  39.693  2.2922  0.2222  3.2971
  144SAPE   C3715836   2.656   3.037  39.704 -0.0287  0.5521  0.5955
  144SAPE   H7X15837   2.694   3.003  39.803  0.1299 -0.6422  0.1398
  144SAPE   H7Y15838   2.642   3.146  39.715  0.0019  0.4763  1.4803
  144SAPE   C3815839   2.758   3.001  39.598 -0.3238 -0.0975 -0.4576
  144SAPE   H8X15840   2.844   3.071  39.602 -1.1565  1.1926 -2.7984
  144SAPE   H8Y15841   2.717   2.999  39.494  0.3890 -2.6139 -0.7494
  144SAPE   C3915842   2.811   2.861  39.609  0.2795 -0.1145  0.1092
  144SAPE   H9X15843   2.732   2.784  39.612 -0.3482  0.4403 -1.2001
  144SAPE   H9Y15844   2.880   2.859  39.697 -0.6620 -2.5597  0.8529
  144SAPE  C31015845   2.909   2.816  39.497 -0.0328  0.7857  0.3930
  144SAPE  H10X15846   2.991   2.886  39.472 -1.0312  1.5258 -0.9576
  144SAPE  H10Y15847   2.852   2.786  39.406 -1.4890  1.8785  0.9033
  144SAPE  C31115848   2.988   2.687  39.540 -0.1068  0.9402 -0.6994
  144SAPE  H11X15849   2.920   2.600  39.554  2.7508 -1.6749 -2.0244
  144SAPE  H11Y15850   3.033   2.715  39.637  0.2890  1.3303 -0.9898
  144SAPE  C31215851   3.107   2.655  39.451 -0.5870  0.4692  0.4390
  144SAPE  H12X15852   3.171   2.746  39.457 -1.5460  1.0550  2.9430
  144SAPE  H12Y15853   3.079   2.651  39.343 -0.1893 -0.5788  0.3608
  144SAPE  C31315854   3.180   2.531  39.499  0.7323 -0.4798  0.0040
  144SAPE  H13X15855   3.103   2.453  39.479  0.9819 -0.8324  0.4094
  144SAPE  H13Y15856   3.204   2.532  39.607 -1.0824 -0.0779  0.4361
  144SAPE  C31415857   3.300   2.494  39.406 -1.2721 -0.1783  0.1829
  144SAPE  H14X15858   3.267   2.479  39.301  1.4250 -1.4195 -0.5829
  144SAPE  H14Y15859   3.343   2.399  39.443  0.1529  0.7573  1.0325
  144SAPE  C31515860   3.406   2.607  39.406 -0.2662  0.5874 -0.1438
  144SAPE  H15X15861   3.415   2.645  39.511 -1.0002  0.0004  0.1378
  144SAPE  H15Y15862   3.371   2.689  39.340  0.4917 -0.7615 -2.3007
  144SAPE  C31615863   3.537   2.557  39.354  0.0312  0.1246 -0.5907
  144SAPE  H16X15864   3.527   2.523  39.248 -0.0887 -2.3151  0.1407
  144SAPE  H16Y15865   3.565   2.465  39.409 -2.0039  0.8450  1.8731
  144SAPE  C31715866   3.653   2.656  39.372  0.6791 -0.3326  0.1335
  144SAPE  H17X15867   3.675   2.679  39.478  3.6111 -0.4130 -0.3766
  144SAPE  H17Y15868   3.638   2.742  39.303 -1.7326 -2.6465 -2.4489
  144SAPE  C31815869   3.786   2.595  39.322  0.0965  0.3288  0.0501
  144SAPE  H18X15870   3.857   2.677  39.301 -0.1241  0.7975  1.0679
  144SAPE  H18Y15871   3.776   2.527  39.235  2.8177 -0.7496  0.4799
  144SAPE  H18Z15872   3.828   2.532  39.404 -2.7356 -1.4985  0.2454
  145SAPE     N15873   1.347   3.138  36.733  0.6563  0.3078 -0.2014
  145SAPE   HN115874   1.427   3.204  36.740  0.1383  0.9775 -0.4551
  145SAPE   HN215875   1.389   3.045  36.751  1.1265  0.1515 -1.9009
  145SAPE   HN315876   1.310   3.151  36.636  0.3943 -1.6556 -0.4174
  145SAPE   C1215877   1.232   3.188  36.831 -0.5284  0.0226  0.7602
  145SAPE  H12A15878   1.198   3.280  36.778 -0.9403 -0.1924  0.6498
  145SAPE  H12B15879   1.284   3.222  36.923 -0.2887 -0.6158  0.8627
  145SAPE   C1115880   1.126   3.076  36.847 -0.5938 -0.1593 -0.1119
  145SAPE  H11A15881   1.119   3.026  36.749 -2.1927 -1.7665  0.7629
  145SAPE  H11B15882   1.033   3.132  36.871  0.0903  1.4101 -1.0080
  145SAPE     P15883   1.235   2.845  36.917 -0.0450  0.0127  0.0748
  145SAPE   O1315884   1.304   2.793  37.037  0.0703  0.1669 -0.3376
  145SAPE   O1415885   1.138   2.752  36.850 -0.5959 -0.2349  0.3784
  145SAPE   O1215886   1.167   2.981  36.950  0.0724 -0.5498 -0.2681
  145SAPE   O1115887   1.342   2.873  36.805 -0.0984 -0.2517 -0.0451
  145SAPE    C115888   1.480   2.843  36.813 -0.4822 -0.0942 -0.4341
  145SAPE    HA15889   1.500   2.733  36.813  1.0531  0.1002 -2.8527
  145SAPE    HB15890   1.532   2.882  36.723 -0.0130 -1.2430 -0.6767
  145SAPE    C215891   1.546   2.906  36.938 -0.2956 -1.2002  0.0084
  145SAPE    HS15892   1.527   2.841  37.025  1.4118 -0.8408  0.6905
  145SAPE   O2115893   1.509   3.045  36.971 -0.2856  0.4942 -0.4244
  145SAPE   C2115894   1.555   3.084  37.086  0.0368 -0.5917 -0.2139
  145SAPE   O2215895   1.604   3.015  37.176  0.3327 -0.1899 -0.3668
  145SAPE   C2215896   1.522   3.241  37.103 -0.1313 -0.0373 -0.6051
  145SAPE   H2R15897   1.418   3.268  37.075 -1.1188 -1.9964  0.9338
  145SAPE   H2S15898   1.530   3.258  37.212  2.4474  2.2317 -1.0542
  145SAPE    C315899   1.706   2.900  36.921 -0.6422 -0.3485 -0.5516
  145SAPE    HX15900   1.760   2.944  37.008 -0.8530 -0.3866 -0.4024
  145SAPE    HY15901   1.746   2.969  36.843  1.3612  1.3340  1.7832
  145SAPE   O3115902   1.758   2.772  36.888 -0.2163 -0.6242 -0.3016
  145SAPE   C3115903   1.764   2.692  36.988 -0.2540 -0.7141  0.3994
  145SAPE   O3215904   1.726   2.716  37.102  0.0365 -0.6637  0.0631
  145SAPE   C3215905   1.817   2.557  36.943 -0.3646  0.3157 -0.5153
  145SAPE   H2X15906   1.853   2.560  36.838  1.0448  1.6159 -0.0386
  145SAPE   H2Y15907   1.740   2.478  36.950  2.3826 -2.4969  0.5239
  145SAPE   C2315908   1.638   3.329  37.036  0.6936 -0.1772 -0.1034
  145SAPE   H3R15909   1.590   3.426  37.059  3.9741  1.8994 -1.4119
  145SAPE   H3S15910   1.640   3.309  36.927 -0.3440 -2.2256  0.1938
  145SAPE   C2415911   1.779   3.330  37.101 -0.5364 -0.2198  0.3167
  145SAPE   H4R15912   1.818   3.227  37.084 -0.9467 -0.3098 -0.1055
  145SAPE   H4S15913   1.775   3.349  37.211 -1.3025  0.9437  0.1110
  145SAPE   C2515914   1.861   3.428  37.028  0.5514  0.4725 -0.2208
  145SAPE   H5R15915   1.846   3.435  36.919  1.2600 -2.8024 -0.6181
  145SAPE   C2615916   1.947   3.520  37.081  0.1273 -1.2013 -0.9244
  145SAPE   H6R15917   2.014   3.582  37.020 -2.2577  2.7678  0.1169
  145SAPE   C2715918   1.984   3.513  37.220  0.3056  0.4595 -0.5979
  145SAPE   H7R15919   2.023   3.411  37.240  0.6076  1.0696  2.2860
  145SAPE   H7S15920   1.891   3.516  37.281  0.4522 -1.0636 -0.2701
  145SAPE   C2815921   2.066   3.631  37.249 -0.0880 -0.3656  0.0857
  145SAPE   H8R15922   2.003   3.720  37.262  0.2074 -0.2398  0.7183
  145SAPE   C2915923   2.202   3.637  37.276  0.3264 -0.4307 -0.2911
  145SAPE   H9R15924   2.241   3.739  37.289  1.9564 -1.0824  0.1449
  145SAPE  C21015925   2.295   3.517  37.292  0.4092  0.1063  0.0494
  145SAPE  H10R15926   2.232   3.426  37.287 -1.2822  1.1519  1.4189
  145SAPE  H10S15927   2.339   3.527  37.394  0.1194 -1.9978  0.4330
  145SAPE  C21115928   2.426   3.507  37.217  0.0345  0.3068 -0.0349
  145SAPE  H11R15929   2.444   3.599  37.159 -0.0198  1.0808  1.1340
  145SAPE  C21215930   2.492   3.390  37.198 -0.4720  0.0491 -0.3470
  145SAPE  H12R15931   2.591   3.384  37.150 -0.9114 -0.1401 -1.2485
  145SAPE  C21315932   2.478   3.255  37.271  0.8406 -0.0087  0.0601
  145SAPE  H13R15933   2.446   3.283  37.373 -1.0390  2.2869 -1.0465
  145SAPE  H13S15934   2.571   3.195  37.273 -0.4679 -2.1431  1.5965
  145SAPE  C21415935   2.373   3.168  37.201  0.6793  0.4374 -0.0738
  145SAPE  H14R15936   2.289   3.230  37.166 -1.4799 -2.0316  0.4603
  145SAPE  C21515937   2.356   3.039  37.188 -0.2682 -0.1879  0.3976
  145SAPE  H15R15938   2.270   2.998  37.134  0.4794  0.3888 -1.2896
  145SAPE  C21615939   2.452   2.936  37.220  0.0981  0.2545 -0.0910
  145SAPE  H16R15940   2.553   2.980  37.236 -1.1549  3.7141 -0.7808
  145SAPE  H16S15941   2.448   2.869  37.132  1.4233 -0.1009  0.1006
  145SAPE  C21715942   2.392   2.858  37.334 -0.0629  0.8544  0.1120
  145SAPE  H17R15943   2.457   2.773  37.364 -0.1276  0.7020 -0.1788
  145SAPE  H17S15944   2.290   2.817  37.321  0.2711 -1.1140  2.8353
  145SAPE  C21815945   2.394   2.949  37.460  0.0399  0.3417 -0.4375
  145SAPE  H18R15946   2.324   3.030  37.428 -1.5444 -0.9838 -0.4529
  145SAPE  H18S15947   2.492   2.997  37.482  1.1323 -0.3710 -3.3427
  145SAPE  C21915948   2.324   2.883  37.579  0.5676 -0.7151 -0.5523
  145SAPE  H19R15949   2.360   2.778  37.587 -1.2169 -1.2700  0.7255
  145SAPE  H19S15950   2.216   2.865  37.558  0.5092 -0.8774 -0.1259
  145SAPE  C22015951   2.335   2.958  37.715 -0.4591  0.6438 -0.0259
  145SAPE  H20R15952   2.294   3.061  37.715 -2.0755  0.0859  2.0685
  145SAPE  H20S15953   2.443   2.963  37.740 -0.1714 -0.2985 -1.0065
  145SAPE  H20T15954   2.286   2.897  37.795  0.9509  0.4038  0.6880
  145SAPE   C3315955   1.932   2.515  37.034  0.0518 -0.2409 -0.9021
  145SAPE   H3X15956   1.915   2.406  37.037 -1.7972  0.0335 -0.1089
  145SAPE   H3Y15957   1.905   2.531  37.141  0.3411 -2.4917 -0.4378
  145SAPE   C3415958   2.070   2.555  36.987  0.1366 -0.7799 -0.1207
  145SAPE   H4X15959   2.077   2.661  37.021  0.0077 -1.0325  0.7032
  145SAPE   H4Y15960   2.073   2.561  36.876  2.5305  1.6469 -0.0325
  145SAPE   C3515961   2.182   2.471  37.042 -0.2898 -0.0195 -0.2443
  145SAPE   H5X15962   2.277   2.513  37.003 -1.7210  1.3571 -2.4832
  145SAPE   H5Y15963   2.171   2.367  37.007  1.9984 -1.0044  1.6856
  145SAPE   C3615964   2.178   2.466  37.199 -0.5562 -0.2441  0.2072
  145SAPE   H6X15965   2.076   2.427  37.218 -1.2281  1.2184 -0.2860
  145SAPE   H6Y15966   2.190   2.570  37.236 -2.1634  0.1402 -0.2817
  145SAPE   C3715967   2.290   2.388  37.265  0.0533  0.5180 -0.1138
  145SAPE   H7X15968   2.277   2.282  37.233 -0.9969  1.1774 -2.0273
  145SAPE   H7Y15969   2.275   2.379  37.374  2.4937  2.0760  0.4359
  145SAPE   C3815970   2.426   2.449  37.233 -0.1595 -0.1330  0.6640
  145SAPE   H8X15971   2.419   2.559  37.249 -0.5313 -0.0014 -0.3607
  145SAPE   H8Y15972   2.444   2.436  37.125  1.1790  0.6103  0.7699
  145SAPE   C3915973   2.548   2.392  37.309  0.1924 -0.4370 -0.0121
  145SAPE   H9X15974   2.533   2.284  37.290  0.1486 -0.2456 -1.1373
  145SAPE   H9Y15975   2.545   2.409  37.419 -0.2959  0.2615 -0.1239
  145SAPE  C31015976   2.682   2.456  37.256 -0.1688  0.3308  0.5060
  145SAPE  H10X15977   2.683   2.459  37.145  0.7099 -2.4719  0.3629
  145SAPE  H10Y15978   2.763   2.391  37.293 -0.0399 -0.5518 -1.2164
  145SAPE  C31115979   2.713   2.601  37.309  0.0137  0.2569  0.2509
  145SAPE  H11X15980   2.727   2.609  37.419 -0.0719  1.0527  0.2119
  145SAPE  H11Y15981   2.621   2.660  37.289 -0.3423  0.3660  2.1122
  145SAPE  C31215982   2.824   2.678  37.229  0.4385  0.0205 -0.3075
  145SAPE  H12X15983   2.771   2.721  37.141 -1.2743 -0.9151  0.2205
  145SAPE  H12Y15984   2.893   2.598  37.195 -0.5074 -0.8865 -0.1324
  145SAPE  C31315985   2.899   2.800  37.291  0.2028  0.3734 -0.4115
  145SAPE  H13X15986   2.997   2.802  37.237 -0.2924 -0.1071 -1.3633
  145SAPE  H13Y15987   2.932   2.775  37.394  0.3954  0.6912 -0.3985
  145SAPE  C31415988   2.811   2.924  37.293 -0.4380  0.4237  0.6092
  145SAPE  H14X15989   2.725   2.894  37.357 -0.2511 -3.3420 -0.6402
  145SAPE  H14Y15990   2.767   2.932  37.192  3.3165  0.9468 -1.1683
  145SAPE  C31515991   2.896   3.044  37.320  0.2621 -0.2260 -0.0687
  145SAPE  H15X15992   2.968   3.014  37.399 -0.8978 -0.6841  0.8381
  145SAPE  H15Y15993   2.829   3.122  37.363  0.8399 -0.5174  1.4557
  145SAPE  C31615994   2.958   3.099  37.198  0.6588  1.0899 -0.0041
  145SAPE  H16X15995   2.881   3.099  37.118 -0.4080 -1.0718  0.9421
  145SAPE  H16Y15996   3.046   3.041  37.162 -0.5080  1.4635 -3.8247
  145SAPE  C31715997   2.998   3.239  37.214  0.4983  1.0914 -0.5027
  145SAPE  H17X15998   2.927   3.293  37.280 -0.4207 -0.6653 -0.0044
  145SAPE  H17Y15999   3.001   3.300  37.121 -0.9452  0.3493 -1.0727
  145SAPE  C31816000   3.132   3.259  37.284 -0.9023 -0.6364 -0.2938
  145SAPE  H18X16001   3.137   3.227  37.390 -0.4669  0.2165 -0.0501
  145SAPE  H18Y16002   3.145   3.369  37.281  0.1967 -0.6638  1.6422
  145SAPE  H18Z16003   3.212   3.216  37.220 -0.8374 -1.5012  0.3538
  146SAPE     N16004   0.710   1.227  38.616 -0.8765  0.2878 -0.5142
  146SAPE   HN116005   0.682   1.318  38.656 -0.1317  0.3201 -0.0452
  146SAPE   HN216006   0.640   1.196  38.545 -0.6130  0.5707 -0.9027
  146SAPE   HN316007   0.716   1.163  38.698 -0.6372  2.4566  1.2418
  146SAPE   C1216008   0.840   1.242  38.543  0.4681  0.1272  0.6808
  146SAPE  H12A16009   0.858   1.150  38.483 -1.6853 -0.8348  1.4031
  146SAPE  H12B16010   0.921   1.285  38.606  1.3290  0.9440 -0.9362
  146SAPE   C1116011   0.811   1.347  38.424 -0.0275  0.5868 -0.5016
  146SAPE  H11A16012   0.730   1.295  38.369 -0.1947  0.7101 -0.3747
  146SAPE  H11B16013   0.896   1.347  38.353 -0.4265  0.8440 -0.9865
  146SAPE     P16014   0.643   1.548  38.434  0.2663  0.4864  0.5839
  146SAPE   O1316015   0.607   1.640  38.544  0.5223 -0.1631  0.4106
  146SAPE   O1416016   0.657   1.596  38.297  0.3441  0.2130 -0.6110
  146SAPE   O1216017   0.779   1.476  38.472 -0.2219  0.9674 -0.5392
  146SAPE   O1116018   0.538   1.425  38.432  0.3129  0.1942 -0.2321
  146SAPE    C116019   0.399   1.471  38.433 -0.1297 -0.2269 -0.0926
  146SAPE    HA16020   0.383   1.540  38.519 -0.9591 -0.8651  0.2828
  146SAPE    HB16021   0.384   1.540  38.348  2.1396  0.3291 -0.0957
  146SAPE    C216022   0.287   1.356  38.423 -0.1683 -0.2330  0.2059
  146SAPE    HS16023   0.191   1.411  38.409  1.2511  2.7250  1.1323
  146SAPE   O2116024   0.286   1.271  38.535  0.4123  0.0169 -0.1035
  146SAPE   C2116025   0.266   1.337  38.654 -0.7056 -0.5066  0.6623
  146SAPE   O2216026   0.228   1.449  38.668  0.1566  0.0264 -0.1185
  146SAPE   C2216027   0.268   1.222  38.758  0.6367  0.1176 -0.1095
  146SAPE   H2R16028   0.179   1.158  38.743 -0.1209  0.4284  2.4990
  146SAPE   H2S16029   0.359   1.162  38.737 -0.5635 -0.9634 -2.6332
  146SAPE    C316030   0.314   1.267  38.295  0.0382 -0.5046 -0.0230
  146SAPE    HX16031   0.413   1.218  38.300  0.4535  0.4166  1.5667
  146SAPE    HY16032   0.298   1.334  38.208 -1.7080 -0.6809  0.1324
  146SAPE   O3116033   0.205   1.177  38.278 -0.2494  0.0316  0.5500
  146SAPE   C3116034   0.223   1.060  38.221 -0.0110  0.2787 -0.2841
  146SAPE   O3216035   0.323   1.022  38.161  0.2445  0.2785 -0.1624
  146SAPE   C3216036   0.107   0.971  38.234  0.4776  0.0802 -0.4665
  146SAPE   H2X16037   0.078   0.928  38.135  2.5798  0.7491 -1.4253
  146SAPE   H2Y16038   0.020   1.030  38.271  1.1126  0.3095  0.7185
  146SAPE   C2316039   0.264   1.277  38.899 -0.0541 -1.2037 -0.5087
  146SAPE   H3R16040   0.198   1.363  38.925  0.5446 -0.5166 -1.2007
  146SAPE   H3S16041   0.361   1.323  38.927 -0.1528 -2.2149  1.7191
  146SAPE   C2416042   0.238   1.166  39.000  0.3418  0.3337 -0.0162
  146SAPE   H4R16043   0.156   1.100  38.966  0.3033  0.9803 -1.2455
  146SAPE   H4S16044   0.190   1.212  39.089 -0.5612  1.5488 -1.0824
  146SAPE   C2516045   0.362   1.090  39.045  0.1536  0.6577 -0.2192
  146SAPE   H5R16046   0.432   1.068  38.963 -1.4955  0.3018 -1.5899
  146SAPE   C2616047   0.378   1.021  39.161  0.0789 -0.4117  0.2695
  146SAPE   H6R16048   0.479   0.987  39.188 -0.1661 -0.5171  1.0888
  146SAPE   C2716049   0.296   1.027  39.285  0.2464  0.3587 -0.4772
  146SAPE   H7R16050   0.290   0.925  39.327 -0.4544  1.0304  1.1265
  146SAPE   H7S16051   0.190   1.055  39.273 -0.2424 -0.8598  0.7686
  146SAPE   C2816052   0.345   1.123  39.397  0.0415 -0.0141  0.0513
  146SAPE   H8R16053   0.390   1.217  39.362 -0.3416 -0.0036 -0.4126
  146SAPE   C2916054   0.314   1.099  39.529  0.1015  1.1084  0.1988
  146SAPE   H9R16055   0.355   1.169  39.604  0.1759  2.5610 -1.1359
  146SAPE  C21016056   0.226   0.986  39.576  0.9507  0.7987  0.2764
  146SAPE  H10R16057   0.276   0.886  39.568 -0.9261 -0.0548 -1.7848
  146SAPE  H10S16058   0.133   0.974  39.518 -0.5623  0.2292  2.6579
  146SAPE  C21116059   0.164   1.012  39.715  0.4312  0.3819 -0.5223
  146SAPE  H11R16060   0.236   0.979  39.791  1.4424  0.3903 -1.4633
  146SAPE  C21216061   0.070   1.105  39.748 -0.3597  0.1785 -0.5954
  146SAPE  H12R16062   0.040   1.119  39.853  1.5738 -0.2398  0.0568
  146SAPE  C21316063  -0.017   1.175  39.644  0.0348 -0.2428 -0.1136
  146SAPE  H13R16064  -0.096   1.106  39.608  0.2480 -1.0717  0.9718
  146SAPE  H13S16065   0.045   1.211  39.559  0.4491  2.2343  1.1381
  146SAPE  C21416066  -0.070   1.303  39.716  0.4365  0.1094 -0.5492
  146SAPE  H14R16067  -0.006   1.393  39.716  0.4446  0.1062 -0.0471
  146SAPE  C21516068  -0.199   1.318  39.757 -0.6829  0.0696  0.1629
  146SAPE  H15R16069  -0.237   1.410  39.804 -0.2760 -0.3398  1.3248
  146SAPE  C21616070  -0.299   1.203  39.759 -0.2481 -0.6376  0.0824
  146SAPE  H16R16071  -0.254   1.104  39.738 -0.9544 -1.0902  0.6534
  146SAPE  H16S16072  -0.377   1.218  39.681  1.1441  0.4391 -1.1695
  146SAPE  C21716073  -0.368   1.200  39.896  0.7011 -0.4367 -0.1190
  146SAPE  H17R16074  -0.451   1.126  39.887 -1.7537  2.1065  0.3878
  146SAPE  H17S16075  -0.417   1.294  39.927  0.5184 -0.0435 -1.5194
  146SAPE  C21816076  -0.278   1.151  40.011 -0.0562  0.0817  1.2283
  146SAPE  H18R16077  -0.188   1.216  40.009 -0.3589  0.4981  0.7612
  146SAPE  H18S16078  -0.242   1.054  39.971  0.6268  0.5923  0.5781
  146SAPE  C21916079  -0.341   1.156  40.146 -0.2622 -0.0449  0.6374
  146SAPE  H19R16080  -0.428   1.087  40.144  0.5315 -1.0511 -0.3122
  146SAPE  H19S16081  -0.366   1.260  40.175 -0.0774  0.1515  0.0859
  146SAPE  C22016082  -0.253   1.111  40.269  0.1003 -0.0126 -0.1262
  146SAPE  H20R16083  -0.309   1.128  40.364  1.8653  0.2521  0.9047
  146SAPE  H20S16084  -0.166   1.179  40.277 -0.0187  0.0074  1.2934
  146SAPE  H20T16085  -0.211   1.009  40.259  1.0801  0.4873 -1.3076
  146SAPE   C3316086   0.115   0.857  38.343  0.8176  0.1614 -0.4224
  146SAPE   H3X16087   0.199   0.786  38.326 -0.3127 -1.4101  0.2424
  146SAPE   H3Y16088   0.023   0.796  38.327  0.8424 -0.2376  0.8468
  146SAPE   C3416089   0.121   0.913  38.491  0.3038  0.5132 -0.0825
  146SAPE   H4X16090   0.032   0.977  38.510  0.4301  1.4571 -2.3551
  146SAPE   H4Y16091   0.200   0.982  38.526  0.1204 -0.2098  1.9303
  146SAPE   C3516092   0.132   0.794  38.584 -0.2211  0.2388  0.2142
  146SAPE   H5X16093   0.233   0.751  38.567 -0.7782 -1.1113  0.2320
  146SAPE   H5Y16094   0.065   0.712  38.551  1.1011 -0.8257  0.0793
  146SAPE   C3616095   0.091   0.825  38.731  0.6416 -0.2375  0.0672
  146SAPE   H6X16096  -0.006   0.878  38.730  0.3223 -0.8015  0.1723
  146SAPE   H6Y16097   0.153   0.906  38.773  0.7656 -0.1123 -0.3572
  146SAPE   C3716098   0.067   0.695  38.813 -0.9699 -0.2698 -0.5576
  146SAPE   H7X16099   0.170   0.652  38.811 -0.7439  0.2380 -0.0291
  146SAPE   H7Y16100  -0.012   0.634  38.764  0.3993 -2.5108 -0.0961
  146SAPE   C3816101   0.024   0.733  38.960  0.3219  0.2310 -0.0013
  146SAPE   H8X16102  -0.060   0.804  38.941  0.2017  0.2109  0.4546
  146SAPE   H8Y16103   0.103   0.786  39.018  0.0041 -0.1993  0.8411
  146SAPE   C3916104  -0.014   0.601  39.032 -0.0339 -0.3219  0.4039
  146SAPE   H9X16105   0.082   0.547  39.048 -0.1751 -0.7439 -0.1377
  146SAPE   H9Y16106  -0.083   0.534  38.977 -0.9219  0.7425  0.1670
  146SAPE  C31016107  -0.092   0.645  39.161 -0.0138 -0.5878 -0.2508
  146SAPE  H10X16108  -0.169   0.568  39.188  2.0532 -2.8592 -0.4757
  146SAPE  H10Y16109  -0.158   0.733  39.144  2.4190  1.2424 -0.6584
  146SAPE  C31116110  -0.017   0.680  39.285 -0.2617  0.4713 -0.0969
  146SAPE  H11X16111  -0.082   0.717  39.368 -0.9057 -1.8035  0.4870
  146SAPE  H11Y16112   0.054   0.764  39.270 -0.1731  0.2866 -0.7643
  146SAPE  C31216113   0.063   0.559  39.336 -0.0479 -0.7156 -0.2904
  146SAPE  H12X16114   0.155   0.555  39.275 -0.1846  1.2402 -0.6928
  146SAPE  H12Y16115   0.014   0.459  39.329  0.7752 -1.2208  0.7769
  146SAPE  C31316116   0.106   0.578  39.484  1.3859  0.1557 -0.2206
  146SAPE  H13X16117   0.016   0.564  39.549  1.1926  0.5886 -0.3888
  146SAPE  H13Y16118   0.119   0.688  39.484 -0.0149  0.5618 -4.8528
  146SAPE  C31416119   0.225   0.506  39.542 -0.3710 -0.2451  0.0914
  146SAPE  H14X16120   0.310   0.541  39.481  0.0953 -2.5443 -0.6964
  146SAPE  H14Y16121   0.224   0.395  39.550 -0.3500 -0.3609 -1.2857
  146SAPE  C31516122   0.243   0.559  39.684  0.3326 -0.7385 -0.2575
  146SAPE  H15X16123   0.160   0.531  39.752  1.2571 -1.6741  0.5140
  146SAPE  H15Y16124   0.245   0.670  39.688 -0.3039 -0.7447  0.3908
  146SAPE  C31616125   0.372   0.528  39.757 -0.7464  0.9086  0.1811
  146SAPE  H16X16126   0.458   0.560  39.695 -0.2910  1.0661  0.8792
  146SAPE  H16Y16127   0.378   0.417  39.763 -0.1769  0.9401  0.2270
  146SAPE  C31716128   0.390   0.594  39.897  0.0170 -0.5391  0.4833
  146SAPE  H17X16129   0.483   0.559  39.947  1.3102  3.4457  1.2674
  146SAPE  H17Y16130   0.311   0.559  39.966 -2.0395  1.6572 -0.6018
  146SAPE  C31816131   0.384   0.745  39.893  0.2359 -0.3978  0.0311
  146SAPE  H18X16132   0.413   0.773  39.996 -0.3688 -0.8798  0.3321
  146SAPE  H18Y16133   0.280   0.779  39.876 -0.7674 -0.3042  4.9354
  146SAPE  H18Z16134   0.452   0.782  39.813  0.1751  3.0691  1.3976
  147SAPE     N16135   3.421   2.238  29.418 -0.3055 -0.0806  0.5008
  147SAPE   HN116136   3.470   2.191  29.498 -0.7490  0.5743  1.1683
  147SAPE   HN216137   3.382   2.325  29.460 -3.2889 -1.1389  0.1196
  147SAPE   HN316138   3.346   2.170  29.394  0.8751 -0.8460 -1.2142
  147SAPE   C1216139   3.498   2.274  29.301 -0.6483  0.0170  0.5655
  147SAPE  H12A16140   3.422   2.304  29.227 -0.7760 -0.0619  0.6656
  147SAPE  H12B16141   3.564   2.195  29.258  1.5894  0.8429  2.2548
  147SAPE   C1116142   3.581   2.404  29.320 -0.2283  0.1015 -0.2772
  147SAPE  H11A16143   3.634   2.428  29.225  2.1467 -0.1850  0.8899
  147SAPE  H11B16144   3.673   2.385  29.381 -1.1966  0.3118  1.3173
  147SAPE     P16145   3.387   2.587  29.301 -0.1742 -0.1303 -0.3519
  147SAPE   O1316146   3.266   2.505  29.322  0.3581  0.1289 -0.4293
  147SAPE   O1416147   3.383   2.719  29.366  0.1368 -0.5763  1.0991
  147SAPE   O1216148   3.502   2.507  29.379  0.2163  0.8158  0.2541
  147SAPE   O1116149   3.429   2.594  29.145  0.3461  0.2535 -0.0122
  147SAPE    C116150   3.333   2.602  29.039 -0.6666 -0.4216  0.4166
  147SAPE    HA16151   3.352   2.531  28.956 -0.7376  1.7704 -1.5624
  147SAPE    HB16152   3.227   2.586  29.069 -0.8237 -1.8983 -0.7919
  147SAPE    C216153   3.325   2.743  28.979 -0.0619  0.5620  0.3906
  147SAPE    HS16154   3.258   2.736  28.890  0.3708  3.6129 -0.2790
  147SAPE   O2116155   3.459   2.783  28.942 -0.4922  0.0056  0.3845
  147SAPE   C2116156   3.515   2.721  28.843 -0.7670  0.1237  1.0376
  147SAPE   O2216157   3.460   2.650  28.761  0.4472 -0.0740  0.4120
  147SAPE   C2216158   3.671   2.752  28.860 -0.2935  0.3992  0.5802
  147SAPE   H2R16159   3.691   2.858  28.830  2.1766  0.0264  0.6858
  147SAPE   H2S16160   3.698   2.747  28.968  3.6263  2.0610 -0.1379
  147SAPE    C316161   3.266   2.851  29.074 -0.5157  0.1822  0.7246
  147SAPE    HX16162   3.280   2.942  29.013 -5.6044  0.0556 -1.0372
  147SAPE    HY16163   3.327   2.844  29.167  0.5631  2.3627  0.2365
  147SAPE   O3116164   3.121   2.827  29.101 -0.4000  0.1500 -0.4076
  147SAPE   C3116165   3.077   2.894  29.204  0.5949  0.9852 -0.1086
  147SAPE   O3216166   3.143   2.969  29.274 -0.2475  0.1821  0.1738
  147SAPE   C3216167   2.931   2.850  29.233  0.2691 -0.0798 -0.1315
  147SAPE   H2X16168   2.890   2.793  29.147  0.2340  0.1679 -0.2799
  147SAPE   H2Y16169   2.873   2.941  29.259 -0.6621 -0.1027 -1.9801
  147SAPE   C2316170   3.763   2.648  28.780 -0.2628  0.3026 -0.2596
  147SAPE   H3R16171   3.724   2.640  28.677 -1.3420 -0.4699  0.1840
  147SAPE   H3S16172   3.758   2.551  28.835  1.3078 -0.2805 -1.0937
  147SAPE   C2416173   3.900   2.705  28.784  0.1282 -0.3535 -0.0363
  147SAPE   H4R16174   3.924   2.732  28.889  0.3833 -1.0390  0.0844
  147SAPE   H4S16175   3.888   2.807  28.740 -0.7047 -0.3118  0.2678
  147SAPE   C2516176   3.996   2.616  28.706  0.1367 -0.7211 -0.3651
  147SAPE   H5R16177   3.953   2.515  28.697 -1.2144 -0.7295  4.0091
  147SAPE   C2616178   4.107   2.650  28.636  0.4119  0.6098  0.5298
  147SAPE   H6R16179   4.144   2.566  28.576 -1.2525  0.0026  0.2795
  147SAPE   C2716180   4.180   2.781  28.655  0.7574  0.5837 -0.4005
  147SAPE   H7R16181   4.277   2.738  28.689 -0.1373 -1.3455 -0.1719
  147SAPE   H7S16182   4.136   2.846  28.734 -2.8681 -0.2518 -1.5608
  147SAPE   C2816183   4.211   2.848  28.526  0.3418 -0.1888  0.6237
  147SAPE   H8R16184   4.140   2.826  28.444  2.0028 -2.4390 -0.3199
  147SAPE   C2916185   4.322   2.921  28.496  0.4517 -0.7826 -0.1284
  147SAPE   H9R16186   4.316   2.974  28.400 -2.1920 -0.3311  0.2213
  147SAPE  C21016187   4.442   2.952  28.576 -0.1555  0.4104  0.1719
  147SAPE  H10R16188   4.529   2.939  28.508  1.0824 -0.9174  1.8909
  147SAPE  H10S16189   4.450   2.868  28.648 -1.0380  0.9355  0.9032
  147SAPE  C21116190   4.442   3.085  28.640  0.4817 -0.3167 -0.2750
  147SAPE  H11R16191   4.342   3.127  28.656  0.0200 -0.5538 -2.2438
  147SAPE  C21216192   4.539   3.158  28.696 -0.0012 -0.8318  0.1210
  147SAPE  H12R16193   4.530   3.251  28.754  0.6728 -2.0917  2.3556
  147SAPE  C21316194   4.684   3.109  28.685  0.5221  0.0757  0.1307
  147SAPE  H13R16195   4.708   3.027  28.614  0.8679 -0.1284  0.4827
  147SAPE  H13S16196   4.718   3.075  28.785  1.2393  3.8472  1.3357
  147SAPE  C21416197   4.767   3.222  28.644 -0.2578 -0.6723  0.2090
  147SAPE  H14R16198   4.723   3.290  28.570 -0.1977  0.6520  1.3571
  147SAPE  C21516199   4.902   3.227  28.667  0.5719 -0.1381 -0.4149
  147SAPE  H15R16200   4.955   3.316  28.630 -1.6562  1.3802 -0.1188
  147SAPE  C21616201   4.982   3.143  28.759  0.5433  0.2758  0.9818
  147SAPE  H16R16202   4.921   3.101  28.842  0.3345 -0.3759  0.5099
  147SAPE  H16S16203   5.058   3.211  28.803  0.7366 -0.5002  1.8933
  147SAPE  C21716204   5.046   3.023  28.681  0.0270  0.1051  0.3574
  147SAPE  H17R16205   4.980   2.957  28.620  0.9307 -0.7885  0.3108
  147SAPE  H17S16206   5.095   2.958  28.756  0.3502  0.0875  0.1332
  147SAPE  C21816207   5.169   3.068  28.596  0.1214 -0.1337 -0.1234
  147SAPE  H18R16208   5.241   3.130  28.655 -1.2434  0.5850  0.8299
  147SAPE  H18S16209   5.124   3.137  28.522  0.1447  2.4937  2.1577
  147SAPE  C21916210   5.246   2.960  28.527  0.0527  0.3898  0.2119
  147SAPE  H19R16211   5.179   2.886  28.478  0.0921  0.3483  0.2204
  147SAPE  H19S16212   5.294   2.894  28.601 -2.2426 -1.2879  0.3220
  147SAPE  C22016213   5.355   3.018  28.438  0.4057  0.2364  0.2824
  147SAPE  H20R16214   5.433   2.941  28.418  2.0356  2.0568 -0.7619
  147SAPE  H20S16215   5.404   3.106  28.487 -1.6041  2.0136 -0.7392
  147SAPE  H20T16216   5.311   3.055  28.343  1.3325  1.2102  0.2038
  147SAPE   C3316217   2.917   2.763  29.360 -0.2963 -0.1871  0.0925
  147SAPE   H3X16218   2.941   2.832  29.443 -1.1558 -0.8799  0.9381
  147SAPE   H3Y16219   2.997   2.687  29.352 -0.2085 -0.0513 -0.3554
  147SAPE   C3416220   2.772   2.714  29.403 -0.0314  0.2946 -0.1292
  147SAPE   H4X16221   2.792   2.665  29.501  2.0082  2.0267  0.4054
  147SAPE   H4Y16222   2.741   2.635  29.331  1.0059  0.0014 -0.2779
  147SAPE   C3516223   2.686   2.828  29.423  0.7043 -0.0899  0.1466
  147SAPE   H5X16224   2.703   2.884  29.328  1.7097 -0.3263  0.1823
  147SAPE   H5Y16225   2.720   2.895  29.505 -0.2856  0.3800  0.1892
  147SAPE   C3616226   2.546   2.783  29.452  0.3697 -0.0705 -0.3368
  147SAPE   H6X16227   2.541   2.736  29.552  0.6644 -2.9415 -1.5557
  147SAPE   H6Y16228   2.521   2.704  29.377 -1.2660  0.5807 -0.5202
  147SAPE   C3716229   2.441   2.901  29.438  0.0266 -0.0148 -0.3426
  147SAPE   H7X16230   2.477   2.960  29.351  2.0320  0.6872  0.8843
  147SAPE   H7Y16231   2.448   2.961  29.531  0.7142  1.3757 -1.2498
  147SAPE   C3816232   2.290   2.859  29.432  0.2035 -0.2837 -0.1022
  147SAPE   H8X16233   2.284   2.787  29.348  0.1218 -1.7286  1.1116
  147SAPE   H8Y16234   2.229   2.951  29.415 -1.5745 -1.7292 -2.0569
  147SAPE   C3916235   2.233   2.791  29.562  0.1522 -0.4788  0.0646
  147SAPE   H9X16236   2.247   2.857  29.650 -0.7739  0.0696 -0.1827
  147SAPE   H9Y16237   2.293   2.698  29.569  1.2578  0.0902 -1.3427
  147SAPE  C31016238   2.083   2.757  29.553 -0.4929 -0.8574  0.1639
  147SAPE  H10X16239   2.051   2.695  29.467  1.4255 -1.4333 -0.1733
  147SAPE  H10Y16240   2.030   2.854  29.544 -1.1730 -1.3252 -1.2101
  147SAPE  C31116241   2.051   2.676  29.681 -0.0044 -0.8752  0.8190
  147SAPE  H11X16242   2.075   2.731  29.775 -2.7244  0.5843  0.7570
  147SAPE  H11Y16243   2.111   2.583  29.683  2.2954  0.4627 -0.5893
  147SAPE  C31216244   1.901   2.640  29.695  0.2440 -0.5301 -0.3850
  147SAPE  H12X16245   1.882   2.573  29.608  0.6576 -0.1866 -0.7381
  147SAPE  H12Y16246   1.845   2.736  29.690 -1.9001 -1.5212  2.0807
  147SAPE  C31316247   1.879   2.558  29.824  0.7364  0.1019  0.3932
  147SAPE  H13X16248   1.770   2.560  29.846  0.6797  1.2623  0.0704
  147SAPE  H13Y16249   1.925   2.612  29.910  1.2777 -1.2578  0.9768
  147SAPE  C31416250   1.906   2.404  29.816 -0.1532  0.0171 -0.2904
  147SAPE  H14X16251   1.911   2.346  29.911 -1.3736 -0.5898 -0.5720
  147SAPE  H14Y16252   2.005   2.389  29.767  0.3979  0.9400  0.5147
  147SAPE  C31516253   1.808   2.326  29.735 -0.1016  0.7400  0.0712
  147SAPE  H15X16254   1.821   2.356  29.629 -0.4281 -2.0553 -0.8318
  147SAPE  H15Y16255   1.708   2.360  29.769  0.0045  1.4193 -0.2679
  147SAPE  C31616256   1.832   2.180  29.737 -0.0402 -0.0842 -0.5111
  147SAPE  H16X16257   1.841   2.142  29.841 -1.2805 -2.4326 -1.1811
  147SAPE  H16Y16258   1.918   2.141  29.680  0.2225  0.7865 -0.7227
  147SAPE  C31716259   1.710   2.101  29.681  0.1549  0.5954  0.4335
  147SAPE  H17X16260   1.702   2.119  29.572  0.4520 -1.5618  0.0193
  147SAPE  H17Y16261   1.615   2.145  29.718 -0.8406 -0.0177 -1.2984
  147SAPE  C31816262   1.714   1.950  29.691  0.2065  0.8952  0.0548
  147SAPE  H18X16263   1.718   1.916  29.797 -2.0394 -2.6877 -0.8448
  147SAPE  H18Y16264   1.810   1.911  29.650 -1.2048 -3.1619  0.1519
  147SAPE  H18Z16265   1.637   1.898  29.631  0.0313  1.9643 -0.6690
  148SAPE     N16266   2.723   0.955  22.605  0.8279 -0.5777  0.1274
  148SAPE   HN116267   2.628   0.982  22.636 -0.4903  1.1610 -4.5956
  148SAPE   HN216268   2.732   0.858  22.639  1.7610  0.6005  3.6385
  148SAPE   HN316269   2.795   1.015  22.650  0.0638  0.6578 -0.2227
  148SAPE   C1216270   2.730   0.964  22.457  0.6585  0.5721  0.0545
  148SAPE  H12A16271   2.688   1.066  22.442 -3.1580 -0.7955  0.2274
  148SAPE  H12B16272   2.652   0.897  22.414 -0.3857  0.8491  1.4665
  148SAPE   C1116273   2.870   0.932  22.411 -0.5022 -0.0993 -0.4103
  148SAPE  H11A16274   2.918   1.031  22.419 -1.3130  0.2585  0.1540
  148SAPE  H11B16275   2.859   0.910  22.303 -0.4565 -0.0709 -0.4210
  148SAPE     P16276   3.030   0.730  22.426 -0.5120  0.1996 -0.1379
  148SAPE   O1316277   2.958   0.600  22.423 -0.2157  0.1034  0.3984
  148SAPE   O1416278   3.082   0.775  22.294  0.5260 -0.3352  0.1619
  148SAPE   O1216279   2.937   0.836  22.493  0.0142  0.9561  0.0114
  148SAPE   O1116280   3.155   0.722  22.517  0.4617 -0.4756 -0.1666
  148SAPE    C116281   3.221   0.834  22.568  0.5656 -0.3481 -0.3153
  148SAPE    HA16282   3.329   0.828  22.543  1.3213 -3.2859  2.9661
  148SAPE    HB16283   3.180   0.933  22.538  0.6550  0.4447  1.9592
  148SAPE    C216284   3.223   0.825  22.722 -0.9651 -0.2418 -0.1085
  148SAPE    HS16285   3.279   0.736  22.756 -0.3244 -0.2750 -1.1921
  148SAPE   O2116286   3.086   0.836  22.765 -0.8203  0.2550  0.0339
  148SAPE   C2116287   3.047   0.725  22.844  0.2216  0.0746  0.9645
  148SAPE   O2216288   3.124   0.636  22.875  0.2385 -0.6564 -0.7118
  148SAPE   C2216289   2.907   0.750  22.884 -0.5822  0.1696  0.1685
  148SAPE   H2R16290   2.894   0.856  22.915  2.0230  0.2082  1.3207
  148SAPE   H2S16291   2.850   0.730  22.791 -0.1418  1.5544 -0.4291
  148SAPE    C316292   3.312   0.933  22.786  0.4509  0.4255 -0.3683
  148SAPE    HX16293   3.264   1.030  22.760  0.5974 -0.0311 -2.5176
  148SAPE    HY16294   3.405   0.922  22.727 -0.6803  1.4474 -2.4748
  148SAPE   O3116295   3.341   0.905  22.926 -0.0171  0.9927 -0.5674
  148SAPE   C3116296   3.285   0.980  23.013  0.0045  0.1266  0.5988
  148SAPE   O3216297   3.196   1.060  22.997  0.1574  0.7510 -0.4821
  148SAPE   C3216298   3.353   0.961  23.148  0.0031  0.4233  0.1714
  148SAPE   H2X16299   3.463   0.957  23.136 -0.0922 -3.4436 -0.7471
  148SAPE   H2Y16300   3.330   0.860  23.188  0.6805  1.0061  2.1276
  148SAPE   C2316301   2.852   0.648  22.991 -0.2098 -0.1323  0.1215
  148SAPE   H3R16302   2.873   0.542  22.966  0.3462 -0.3199  1.3368
  148SAPE   H3S16303   2.741   0.654  22.992 -0.2547  1.7977  4.4991
  148SAPE   C2416304   2.902   0.678  23.133  0.6339  0.6259  0.1994
  148SAPE   H4R16305   2.856   0.775  23.162 -0.0279  0.1931  0.6098
  148SAPE   H4S16306   3.013   0.678  23.145  0.8330 -2.4824 -0.8023
  148SAPE   C2516307   2.850   0.571  23.222  0.0353  0.3857 -0.6862
  148SAPE   H5R16308   2.752   0.581  23.272 -0.1333 -0.6979 -0.7944
  148SAPE   C2616309   2.928   0.467  23.261 -0.3285  0.9485  0.2738
  148SAPE   H6R16310   2.890   0.398  23.339  1.3694  0.1525  0.4338
  148SAPE   C2716311   3.070   0.440  23.216  0.0945  0.2534 -0.3097
  148SAPE   H7R16312   3.130   0.516  23.270 -2.0537  2.5007 -0.8796
  148SAPE   H7S16313   3.067   0.465  23.107  0.2679 -1.7109 -0.7958
  148SAPE   C2816314   3.107   0.299  23.242 -0.6223  0.0015  0.0162
  148SAPE   H8R16315   3.038   0.249  23.312 -1.8228 -1.2642 -1.9683
  148SAPE   C2916316   3.203   0.229  23.173 -0.6123  0.7404 -0.2466
  148SAPE   H9R16317   3.231   0.125  23.195  0.9156  0.9681 -0.9586
  148SAPE  C21016318   3.298   0.281  23.065  0.5083  0.1317 -0.3642
  148SAPE  H10R16319   3.263   0.383  23.038  0.3509  0.8688  2.3364
  148SAPE  H10S16320   3.296   0.220  22.972 -0.9817 -3.8002  1.9754
  148SAPE  C21116321   3.437   0.293  23.119 -0.0972  0.4925  0.0006
  148SAPE  H11R16322   3.453   0.377  23.187  0.4723 -0.4805  1.1033
  148SAPE  C21216323   3.551   0.219  23.105 -0.0715  0.0601  0.1492
  148SAPE  H12R16324   3.642   0.263  23.148 -0.6483  0.7128  0.7400
  148SAPE  C21316325   3.559   0.087  23.037  0.4420 -0.6689  0.1530
  148SAPE  H13R16326   3.599   0.128  22.942 -0.4368  0.3506  0.2036
  148SAPE  H13S16327   3.461   0.037  23.018  0.1224  0.3511 -1.0081
  148SAPE  C21416328   3.650  -0.006  23.101 -0.1146  0.1359 -0.0856
  148SAPE  H14R16329   3.755   0.020  23.081 -1.1380  3.8587 -1.5420
  148SAPE  C21516330   3.628  -0.128  23.156 -0.0974  0.0600 -0.2059
  148SAPE  H15R16331   3.709  -0.189  23.197 -0.2634 -1.0972 -1.5201
  148SAPE  C21616332   3.489  -0.172  23.188  0.5555 -0.3703 -0.1290
  148SAPE  H16R16333   3.460  -0.249  23.114  1.1516 -0.8901  0.1730
  148SAPE  H16S16334   3.420  -0.086  23.174 -0.5546 -0.8140  2.1506
  148SAPE  C21716335   3.483  -0.219  23.336  0.6504 -0.2375  0.3465
  148SAPE  H17R16336   3.550  -0.308  23.343  0.7363 -0.2761 -0.7132
  148SAPE  H17S16337   3.376  -0.250  23.339  0.4674 -0.1501 -2.2563
  148SAPE  C21816338   3.500  -0.119  23.441  0.4878  0.3727  0.5640
  148SAPE  H18R16339   3.412  -0.052  23.451 -0.2236  0.2046 -3.1703
  148SAPE  H18S16340   3.589  -0.057  23.417 -0.6199  2.1735  0.8963
  148SAPE  C21916341   3.546  -0.170  23.576 -0.3367 -0.0241 -0.3839
  148SAPE  H19R16342   3.653  -0.199  23.571  0.0387  1.3636 -0.8502
  148SAPE  H19S16343   3.494  -0.263  23.607  0.5476  0.7123  3.8412
  148SAPE  C22016344   3.532  -0.070  23.692 -0.3520  0.1851 -0.5068
  148SAPE  H20R16345   3.429  -0.029  23.691 -0.5639 -0.3345 -1.3232
  148SAPE  H20S16346   3.606   0.012  23.681 -0.8081  0.9991  1.9665
  148SAPE  H20T16347   3.554  -0.109  23.793 -2.7798  3.5321  1.5138
  148SAPE   C3316348   3.310   1.068  23.247 -0.3269 -0.0094 -0.2437
  148SAPE   H3X16349   3.311   1.168  23.198 -0.6296  1.1403  1.9642
  148SAPE   H3Y16350   3.388   1.071  23.327  0.9662  1.5161 -1.4932
  148SAPE   C3416351   3.171   1.056  23.305  0.4025  0.0107 -0.2634
  148SAPE   H4X16352   3.095   1.016  23.234  0.7124 -0.5239 -0.2953
  148SAPE   H4Y16353   3.135   1.158  23.329 -1.4596 -1.0404  1.7543
  148SAPE   C3516354   3.155   0.977  23.443 -0.0484 -0.2486  0.2901
  148SAPE   H5X16355   3.179   0.869  23.428  0.9493  0.1651 -1.3695
  148SAPE   H5Y16356   3.051   0.995  23.475 -0.4545  0.3746 -1.2607
  148SAPE   C3616357   3.246   1.031  23.557  0.0828  0.1979  0.4384
  148SAPE   H6X16358   3.248   1.141  23.542  2.5693 -0.0018 -1.3181
  148SAPE   H6Y16359   3.348   0.992  23.533 -0.0816  1.3826 -2.5552
  148SAPE   C3716360   3.192   0.994  23.696  0.0160 -0.1159  0.5022
  148SAPE   H7X16361   3.155   0.889  23.697 -2.5328  0.6914 -0.1554
  148SAPE   H7Y16362   3.100   1.052  23.719  0.2628 -0.1046  1.5127
  148SAPE   C3816363   3.283   1.020  23.819 -0.0133  0.3849  0.3529
  148SAPE   H8X16364   3.346   0.929  23.824 -3.1726 -1.9584  0.0447
  148SAPE   H8Y16365   3.233   1.021  23.918  2.6066 -2.3666  1.8471
  148SAPE   C3916366   3.382   1.136  23.804  0.0766 -0.5187 -0.0758
  148SAPE   H9X16367   3.324   1.227  23.779 -0.4153 -1.1093 -1.1387
  148SAPE   H9Y16368   3.442   1.120  23.713  2.5214 -1.0885  1.5327
  148SAPE  C31016369   3.480   1.164  23.924 -0.2220  0.6681 -0.0895
  148SAPE  H10X16370   3.547   1.249  23.899  1.0140  0.1270  1.2781
  148SAPE  H10Y16371   3.546   1.076  23.940 -0.5388  0.9681  3.6219
  148SAPE  C31116372   3.403   1.185  24.055 -0.0244  0.2446  0.1523
  148SAPE  H11X16373   3.344   1.095  24.079  0.2109  0.2297  0.6738
  148SAPE  H11Y16374   3.340   1.273  24.030  1.3527  0.5545 -2.7197
  148SAPE  C31216375   3.502   1.216  24.168 -0.2419  0.1156 -0.1662
  148SAPE  H12X16376   3.550   1.315  24.149 -2.3710  1.5960  1.6029
  148SAPE  H12Y16377   3.581   1.138  24.168 -0.2668  0.0874 -0.5656
  148SAPE  C31316378   3.441   1.243  24.302  0.4722  0.5666  0.8296
  148SAPE  H13X16379   3.389   1.151  24.336 -2.0823  1.6729  0.1025
  148SAPE  H13Y16380   3.375   1.332  24.297 -1.3196 -0.5500  2.8312
  148SAPE  C31416381   3.555   1.281  24.397  0.3532 -1.1924 -0.9595
  148SAPE  H14X16382   3.647   1.222  24.375  0.8049 -1.4141  1.2105
  148SAPE  H14Y16383   3.514   1.261  24.499  2.6094 -0.4088  0.1915
  148SAPE  C31516384   3.588   1.431  24.406  0.7929  0.1496 -0.1584
  148SAPE  H15X16385   3.490   1.484  24.406  1.3011  1.3516 -3.4670
  148SAPE  H15Y16386   3.637   1.451  24.308  1.2385 -0.3213 -0.0322
  148SAPE  C31616387   3.667   1.473  24.527 -0.1909  0.5456  0.0541
  148SAPE  H16X16388   3.704   1.574  24.500  0.3191  0.5577  0.7754
  148SAPE  H16Y16389   3.762   1.415  24.532 -1.0579 -0.9152  0.2261
  148SAPE  C31716390   3.590   1.477  24.657 -0.4268 -0.2954  0.0844
  148SAPE  H17X16391   3.553   1.379  24.694  1.9008 -1.1263  0.3107
  148SAPE  H17Y16392   3.505   1.547  24.641  0.9280  1.1466 -1.1461
  148SAPE  C31816393   3.668   1.539  24.777  0.0960 -1.1365 -0.5120
  148SAPE  H18X16394   3.657   1.649  24.774  2.0955 -0.9066 -1.2112
  148SAPE  H18Y16395   3.775   1.510  24.786  0.4448  0.6949  3.3391
  148SAPE  H18Z16396   3.623   1.500  24.870  1.4972 -0.0585  0.6629
  149SAPE     N16397   2.629   3.291  28.563  0.3924  0.7454  0.4287
  149SAPE   HN116398   2.576   3.204  28.582 -1.5916  1.6045 -0.9172
  149SAPE   HN216399   2.633   3.289  28.460 -1.1845 -2.7631  0.2873
  149SAPE   HN316400   2.726   3.291  28.602  0.4417  0.8321  0.3052
  149SAPE   C1216401   2.573   3.425  28.596  0.5320  0.1945 -0.3897
  149SAPE  H12A16402   2.642   3.500  28.552  1.8024  0.1651  1.4446
  149SAPE  H12B16403   2.574   3.429  28.707 -2.2048 -0.4146 -0.2841
  149SAPE   C1116404   2.426   3.426  28.547 -0.5387  0.0744  0.4232
  149SAPE  H11A16405   2.392   3.526  28.584 -1.1889 -0.5003  1.4183
  149SAPE  H11B16406   2.367   3.351  28.604 -0.8505  1.0988  1.5058
  149SAPE     P16407   2.412   3.501  28.286 -0.0252 -0.1792  0.3994
  149SAPE   O1316408   2.320   3.612  28.316 -0.0728 -0.1475  0.6367
  149SAPE   O1416409   2.555   3.535  28.284 -0.1402 -0.4153  0.0891
  149SAPE   O1216410   2.404   3.402  28.404  0.0471  0.0690 -0.4504
  149SAPE   O1116411   2.369   3.419  28.158  0.6221  0.2232  0.6752
  149SAPE    C116412   2.322   3.284  28.151 -0.7388 -0.0810 -0.0009
  149SAPE    HA16413   2.346   3.243  28.051  0.3832  1.4922 -0.4163
  149SAPE    HB16414   2.372   3.226  28.232 -0.0809  2.3586  1.4655
  149SAPE    C216415   2.172   3.262  28.171 -0.2045  0.5935  0.8056
  149SAPE    HS16416   2.123   3.344  28.115 -0.2836 -0.4964 -0.7917
  149SAPE   O2116417   2.140   3.273  28.313 -0.8145 -0.2460  0.1440
  149SAPE   C2116418   2.034   3.345  28.343  0.7307 -0.2975 -0.1650
  149SAPE   O2216419   1.952   3.392  28.263 -0.1720  0.1053  0.1055
  149SAPE   C2216420   2.022   3.370  28.496 -0.1915 -0.6011  0.0264
  149SAPE   H2R16421   2.038   3.278  28.557  3.1502  0.1857  0.5023
  149SAPE   H2S16422   2.111   3.430  28.524 -0.9759  0.1526  0.9676
  149SAPE    C316423   2.135   3.117  28.119 -0.5942  0.0336 -0.3066
  149SAPE    HX16424   2.166   3.043  28.196  1.9663  1.9407  0.6350
  149SAPE    HY16425   2.192   3.096  28.026  0.3448 -1.8960  0.6493
  149SAPE   O3116426   1.991   3.127  28.096  0.0349 -0.1871 -0.4451
  149SAPE   C3116427   1.947   2.999  28.070 -0.6704  0.0510  0.3999
  149SAPE   O3216428   2.017   2.897  28.059  0.4893  0.1032  0.2559
  149SAPE   C3216429   1.795   2.997  28.043 -0.0837 -0.2502  0.3262
  149SAPE   H2X16430   1.788   2.917  27.966 -0.9080  0.6315 -0.5527
  149SAPE   H2Y16431   1.756   3.087  27.990  2.9712 -0.6087 -2.9186
  149SAPE   C2316432   1.890   3.440  28.543  0.2191 -0.1477 -0.1976
  149SAPE   H3R16433   1.800   3.377  28.523 -0.8589  0.7551  1.5108
  149SAPE   H3S16434   1.888   3.535  28.486  3.5220 -0.2289 -0.6208
  149SAPE   C2416435   1.877   3.463  28.693 -0.2951 -0.2964 -0.2489
  149SAPE   H4R16436   1.906   3.362  28.728  0.9652 -0.2622 -1.1346
  149SAPE   H4S16437   1.772   3.475  28.724 -0.5023 -2.8041  0.2089
  149SAPE   C2516438   1.979   3.565  28.753  0.1717 -0.0371  0.5008
  149SAPE   H5R16439   2.081   3.556  28.715 -0.3688 -2.3272 -0.5652
  149SAPE   C2616440   1.941   3.665  28.840 -0.2341  0.7197 -0.2191
  149SAPE   H6R16441   2.006   3.749  28.868 -0.0626  0.1575  1.1221
  149SAPE   C2716442   1.801   3.695  28.895 -0.5296  0.3203 -0.2704
  149SAPE   H7R16443   1.723   3.633  28.845  0.7771 -1.3531 -0.3125
  149SAPE   H7S16444   1.780   3.802  28.869  0.7522  0.6680  0.0757
  149SAPE   C2816445   1.792   3.653  29.041  0.0672 -0.1447 -0.1262
  149SAPE   H8R16446   1.838   3.559  29.074 -1.8126 -0.4913  1.7383
  149SAPE   C2916447   1.765   3.739  29.150 -0.0187 -0.8923 -0.3931
  149SAPE   H9R16448   1.773   3.692  29.249  1.0204  0.3649  0.1363
  149SAPE  C21016449   1.701   3.881  29.149 -0.0750  0.5735 -0.6137
  149SAPE  H10R16450   1.782   3.956  29.133  0.3870  0.3742  0.6255
  149SAPE  H10S16451   1.671   3.905  29.253  0.1826 -2.5729  0.3089
  149SAPE  C21116452   1.589   3.899  29.050 -0.5342  0.6609 -0.7644
  149SAPE  H11R16453   1.584   3.831  28.964 -0.0192  1.6521 -1.5913
  149SAPE  C21216454   1.506   3.999  29.043  0.7587  0.8490  0.2392
  149SAPE  H12R16455   1.435   4.006  28.959 -1.2405  0.9301  1.8532
  149SAPE  C21316456   1.504   4.113  29.128  0.3254  0.4160  0.3386
  149SAPE  H13R16457   1.564   4.104  29.221  0.0261  0.5930  0.5512
  149SAPE  H13S16458   1.397   4.119  29.159  0.3257  0.6846  0.2917
  149SAPE  C21416459   1.531   4.240  29.054  0.8604 -0.1026 -0.1535
  149SAPE  H14R16460   1.632   4.278  29.071  0.4589 -0.0461  2.4920
  149SAPE  C21516461   1.441   4.321  28.998  0.3459  0.5389 -0.1098
  149SAPE  H15R16462   1.477   4.405  28.938  0.4584  0.2486 -0.4485
  149SAPE  C21616463   1.294   4.283  28.991  0.2249  0.4610  1.2004
  149SAPE  H16R16464   1.276   4.173  28.995  1.0852  0.2028 -0.7528
  149SAPE  H16S16465   1.262   4.294  28.885 -0.4863 -0.4246  1.3040
  149SAPE  C21716466   1.199   4.350  29.084 -0.0158  0.2981 -0.5943
  149SAPE  H17R16467   1.223   4.323  29.190 -1.5225 -0.4062 -0.3994
  149SAPE  H17S16468   1.099   4.305  29.072  0.2033 -0.3202 -0.1559
  149SAPE  C21816469   1.208   4.503  29.081  0.2567 -0.2388  0.2101
  149SAPE  H18R16470   1.187   4.538  28.978  2.8838  0.0473 -0.2937
  149SAPE  H18S16471   1.309   4.539  29.112  0.4512 -1.2159  0.7589
  149SAPE  C21916472   1.103   4.567  29.171 -0.9836 -0.4343  0.0705
  149SAPE  H19R16473   1.122   4.553  29.279 -0.0088  0.2954  0.0145
  149SAPE  H19S16474   1.004   4.527  29.142 -1.4993  0.3161  0.7544
  149SAPE  C22016475   1.106   4.721  29.150 -0.0257 -0.4701  1.2017
  149SAPE  H20R16476   1.078   4.735  29.043  1.3386 -0.1136  0.8671
  149SAPE  H20S16477   1.205   4.771  29.153 -0.3290  0.2433 -0.0305
  149SAPE  H20T16478   1.035   4.769  29.221 -1.0935 -1.5322  0.8911
  149SAPE   C3316479   1.707   2.950  28.154  0.3711  0.5834  0.0187
  149SAPE   H3X16480   1.681   3.027  28.230  0.6196  2.2152 -1.4902
  149SAPE   H3Y16481   1.753   2.870  28.217  0.2700  3.0030  3.4641
  149SAPE   C3416482   1.566   2.890  28.120  0.1043 -0.1421  0.3726
  149SAPE   H4X16483   1.576   2.798  28.059  2.2565 -1.1685  2.1132
  149SAPE   H4Y16484   1.513   2.969  28.063  0.6006 -1.1506 -1.5388
  149SAPE   C3516485   1.483   2.852  28.250 -0.6228  0.8118 -0.0837
  149SAPE   H5X16486   1.473   2.941  28.315 -0.6633  0.3167  0.5922
  149SAPE   H5Y16487   1.527   2.768  28.307 -3.6050 -0.8770 -0.1023
  149SAPE   C3616488   1.355   2.797  28.193 -0.4944 -0.6857  0.2754
  149SAPE   H6X16489   1.379   2.702  28.142  1.6619 -0.4370  0.7441
  149SAPE   H6Y16490   1.316   2.874  28.123 -1.1582  0.5201  1.8841
  149SAPE   C3716491   1.251   2.771  28.301 -0.4867  0.0245 -0.4169
  149SAPE   H7X16492   1.155   2.746  28.252 -0.0778 -1.9940 -0.2818
  149SAPE   H7Y16493   1.253   2.869  28.354 -1.1062 -0.5519  0.7259
  149SAPE   C3816494   1.288   2.653  28.382 -0.1266  0.1562  0.0614
  149SAPE   H8X16495   1.392   2.662  28.421 -0.4284  2.8262  0.4348
  149SAPE   H8Y16496   1.278   2.554  28.333  0.6165 -1.3535  2.7631
  149SAPE   C3916497   1.205   2.642  28.516  0.4074 -0.0734  0.2946
  149SAPE   H9X16498   1.101   2.651  28.477  0.6323  0.9976 -0.0688
  149SAPE   H9Y16499   1.222   2.715  28.597  2.1403 -0.6362  0.4765
  149SAPE  C31016500   1.222   2.513  28.593 -0.2158  0.2030  0.1535
  149SAPE  H10X16501   1.325   2.494  28.629  0.2078 -0.2468 -1.2110
  149SAPE  H10Y16502   1.200   2.421  28.535 -0.1977 -1.1482  2.1780
  149SAPE  C31116503   1.120   2.517  28.711  0.0525  0.5950  0.4910
  149SAPE  H11X16504   1.015   2.536  28.682 -0.3253 -2.7214 -0.8362
  149SAPE  H11Y16505   1.156   2.591  28.785  0.0864  3.7722 -2.4839
  149SAPE  C31216506   1.111   2.377  28.776 -0.1861 -0.6799 -0.1621
  149SAPE  H12X16507   1.213   2.369  28.819  0.5405 -0.7486 -1.7887
  149SAPE  H12Y16508   1.081   2.287  28.719 -0.9847  0.8354 -2.2655
  149SAPE  C31316509   1.026   2.383  28.906  0.4652  0.0301  0.9234
  149SAPE  H13X16510   1.028   2.486  28.947  0.4856  1.3806 -2.1790
  149SAPE  H13Y16511   1.051   2.306  28.982 -0.6847 -0.5309  0.7617
  149SAPE  C31416512   0.874   2.358  28.879  0.2941  0.7148  0.5162
  149SAPE  H14X16513   0.855   2.261  28.828  2.0216  0.7371 -0.2430
  149SAPE  H14Y16514   0.837   2.437  28.811  0.3641 -1.4693 -2.2509
  149SAPE  C31516515   0.801   2.370  29.008  0.4853  0.4138  0.4682
  149SAPE  H15X16516   0.831   2.469  29.050  1.9344 -0.2665  1.1119
  149SAPE  H15Y16517   0.821   2.280  29.071  0.4826  0.2395  0.2203
  149SAPE  C31616518   0.655   2.352  28.986  0.4447 -0.8388 -0.6208
  149SAPE  H16X16519   0.643   2.247  28.949 -0.2769  0.1261 -3.4157
  149SAPE  H16Y16520   0.609   2.426  28.916 -2.1365 -2.3678 -0.6869
  149SAPE  C31716521   0.569   2.376  29.111 -0.8543 -0.8190  0.2318
  149SAPE  H17X16522   0.594   2.479  29.142 -0.8363 -1.0613  1.0455
  149SAPE  H17Y16523   0.598   2.304  29.190 -1.2893 -1.3550 -0.0890
  149SAPE  C31816524   0.419   2.367  29.094 -0.1065 -0.1021 -0.4319
  149SAPE  H18X16525   0.375   2.469  29.097 -2.7367 -1.1639  0.4047
  149SAPE  H18Y16526   0.376   2.308  29.178  1.9795 -0.0793  0.7116
  149SAPE  H18Z16527   0.403   2.321  28.994  0.3757 -1.7749  0.2322
  150SAPE     N16528   2.590   3.404  27.930  1.1211 -0.1371  0.3138
  150SAPE   HN116529   2.653   3.487  27.927  0.0860  0.8504  2.7636
  150SAPE   HN216530   2.495   3.433  27.963  1.0181 -1.2753  1.0747
  150SAPE   HN316531   2.624   3.334  27.999 -2.1686 -0.7529  1.4965
  150SAPE   C1216532   2.589   3.351  27.797  0.1462  0.0540  0.2856
  150SAPE  H12A16533   2.682   3.304  27.759  1.6090  3.9388 -1.4896
  150SAPE  H12B16534   2.553   3.430  27.727 -1.0359  1.1306  2.0274
  150SAPE   C1116535   2.480   3.238  27.792  0.7935  0.0581  0.2328
  150SAPE  H11A16536   2.386   3.281  27.834  1.9051  2.1957  0.6369
  150SAPE  H11B16537   2.496   3.140  27.841 -0.6529 -1.6721 -2.4690
  150SAPE     P16538   2.357   3.102  27.613 -0.2516 -0.2794  0.0962
  150SAPE   O1316539   2.303   3.138  27.477 -0.2270 -0.3333 -0.3922
  150SAPE   O1416540   2.429   2.975  27.628  0.1999  0.6004 -0.1375
  150SAPE   O1216541   2.455   3.220  27.654  0.2067  0.4815 -0.3402
  150SAPE   O1116542   2.240   3.107  27.714  0.2193 -0.1366  0.0554
  150SAPE    C116543   2.141   3.214  27.720  0.0045  0.1601 -0.2177
  150SAPE    HA16544   2.148   3.269  27.817  0.7221 -1.6607  0.8141
  150SAPE    HB16545   2.153   3.283  27.634 -2.1940  0.9349  0.0417
  150SAPE    C216546   1.997   3.151  27.730 -0.3000 -0.4311 -0.0581
  150SAPE    HS16547   2.005   3.099  27.828  1.1328  1.4757  0.9129
  150SAPE   O2116548   1.973   3.070  27.617 -0.0628 -0.7674 -0.2689
  150SAPE   C2116549   1.985   2.943  27.638 -0.3190 -0.2422  0.5015
  150SAPE   O2216550   2.011   2.893  27.744 -0.1407  0.2055 -0.5942
  150SAPE   C2216551   1.977   2.868  27.506  0.0798 -0.5440 -0.0703
  150SAPE   H2R16552   1.896   2.917  27.448 -0.5342 -2.4518 -0.8984
  150SAPE   H2S16553   2.074   2.893  27.458 -0.0544  2.3731  0.9993
  150SAPE    C316554   1.892   3.276  27.742  0.0590  0.1426  0.1316
  150SAPE    HX16555   1.943   3.340  27.666  1.7265 -1.6548 -0.3415
  150SAPE    HY16556   1.900   3.328  27.840 -0.0495  1.3979 -0.5007
  150SAPE   O3116557   1.758   3.235  27.710  0.1544 -0.1645 -0.0926
  150SAPE   C3116558   1.685   3.348  27.704  0.0448 -0.4233  0.4509
  150SAPE   O3216559   1.721   3.461  27.737 -0.0971  0.1065  0.0131
  150SAPE   C3216560   1.548   3.320  27.650 -0.2728  0.6934 -0.6375
  150SAPE   H2X16561   1.492   3.251  27.717 -1.4016  2.3260  0.1613
  150SAPE   H2Y16562   1.553   3.271  27.551 -0.1245  2.0151 -1.3028
  150SAPE   C2316563   1.950   2.721  27.534  0.0523  0.4279 -0.0222
  150SAPE   H3R16564   1.853   2.720  27.588 -0.1236  4.1789 -0.0225
  150SAPE   H3S16565   2.033   2.670  27.588  1.4913  0.8285 -1.7698
  150SAPE   C2416566   1.934   2.636  27.400 -0.0947 -0.1164 -0.2589
  150SAPE   H4R16567   1.936   2.525  27.408 -0.9623 -0.3422 -2.4420
  150SAPE   H4S16568   2.009   2.663  27.323  0.8517  3.8777  1.8087
  150SAPE   C2516569   1.795   2.666  27.339  0.2157 -0.0395 -0.1845
  150SAPE   H5R16570   1.776   2.766  27.296  0.9432 -0.0362 -0.5211
  150SAPE   C2616571   1.689   2.584  27.317 -0.0966  0.0485  0.4502
  150SAPE   H6R16572   1.593   2.624  27.280  0.2224  0.6143  0.2201
  150SAPE   C2716573   1.666   2.441  27.375 -0.4367  0.1975 -0.2377
  150SAPE   H7R16574   1.720   2.417  27.469 -1.5471 -0.8672  0.1486
  150SAPE   H7S16575   1.707   2.366  27.304 -0.9948  0.0873 -0.4416
  150SAPE   C2816576   1.521   2.405  27.371  0.0034  0.2447 -0.0432
  150SAPE   H8R16577   1.452   2.473  27.319 -0.8194  0.8697  1.7821
  150SAPE   C2916578   1.462   2.310  27.458 -0.5100 -0.3501 -0.3020
  150SAPE   H9R16579   1.353   2.292  27.452 -0.3338 -1.6552  0.1075
  150SAPE  C21016580   1.536   2.225  27.552 -1.2468  0.4191  0.0154
  150SAPE  H10R16581   1.503   2.243  27.656  1.6897 -0.4448  1.2160
  150SAPE  H10S16582   1.644   2.252  27.551 -0.4673 -2.3466  1.0458
  150SAPE  C21116583   1.532   2.080  27.525 -0.4714 -0.2098  0.0109
  150SAPE  H11R16584   1.535   2.041  27.422  0.4010  1.8483 -0.8208
  150SAPE  C21216585   1.540   1.984  27.622 -0.1825  0.0978 -0.1249
  150SAPE  H12R16586   1.534   1.879  27.592 -0.5598 -0.0784  0.5470
  150SAPE  C21316587   1.563   2.008  27.768  0.1337 -0.3990  0.7389
  150SAPE  H13R16588   1.482   2.067  27.815 -1.0038 -1.2367 -0.1191
  150SAPE  H13S16589   1.658   2.066  27.765  0.2871 -0.6152  1.2962
  150SAPE  C21416590   1.615   1.887  27.849 -0.2091 -0.9854  0.0744
  150SAPE  H14R16591   1.720   1.905  27.873 -0.7214  0.6171  1.3173
  150SAPE  C21516592   1.561   1.773  27.897 -0.3437 -0.3641  0.8232
  150SAPE  H15R16593   1.628   1.718  27.965  0.4968  3.0536  3.0639
  150SAPE  C21616594   1.417   1.723  27.879  0.1634  0.2389  0.1729
  150SAPE  H16R16595   1.347   1.809  27.884  0.8148  0.7256  1.5965
  150SAPE  H16S16596   1.387   1.653  27.961 -1.1542  0.6363  0.0431
  150SAPE  C21716597   1.393   1.651  27.742 -0.0972 -0.1016 -0.3261
  150SAPE  H17R16598   1.443   1.708  27.661 -1.2268  2.2456  0.5486
  150SAPE  H17S16599   1.283   1.656  27.724 -0.7353  0.1478  3.0113
  150SAPE  C21816600   1.453   1.514  27.745  0.5729 -0.7563 -0.2025
  150SAPE  H18R16601   1.398   1.445  27.813  0.4866 -1.9449 -1.4506
  150SAPE  H18S16602   1.557   1.522  27.785  0.8933 -1.8958 -0.7483
  150SAPE  C21916603   1.453   1.433  27.611 -0.7411 -0.5553  0.7115
  150SAPE  H19R16604   1.535   1.478  27.552 -0.9416 -0.3150  0.6149
  150SAPE  H19S16605   1.356   1.457  27.561  0.2236 -2.0680 -2.1636
  150SAPE  C22016606   1.484   1.284  27.618  0.1969  0.3843  0.3477
  150SAPE  H20R16607   1.551   1.265  27.532 -1.2587 -1.3475 -0.4703
  150SAPE  H20S16608   1.391   1.224  27.609 -1.0934  2.4941 -1.4358
  150SAPE  H20T16609   1.538   1.269  27.715 -1.9711  1.6620  1.8360
  150SAPE   C3316610   1.458   3.444  27.635  0.0569  0.5792  0.0734
  150SAPE   H3X16611   1.487   3.526  27.567  0.5713 -1.7740 -2.7479
  150SAPE   H3Y16612   1.457   3.489  27.737  0.1044 -1.7498  1.1908
  150SAPE   C3416613   1.318   3.404  27.581 -0.2975 -0.2788 -0.0938
  150SAPE   H4X16614   1.327   3.338  27.492  5.4635  1.4778 -1.2998
  150SAPE   H4Y16615   1.270   3.498  27.546  2.0696  0.9320 -0.3597
  150SAPE   C3516616   1.212   3.338  27.672  0.0596 -0.2776  0.2506
  150SAPE   H5X16617   1.210   3.406  27.760  0.0087  0.0238  0.0195
  150SAPE   H5Y16618   1.227   3.232  27.699  1.4481  0.0456  0.8212
  150SAPE   C3616619   1.075   3.349  27.598  1.2004  0.0280 -0.0243
  150SAPE   H6X16620   1.051   3.272  27.521 -1.3265 -0.1201  0.8094
  150SAPE   H6Y16621   1.048   3.444  27.548 -2.9459 -0.8061  0.2787
  150SAPE   C3716622   0.960   3.340  27.691  0.0880  0.0445 -0.8005
  150SAPE   H7X16623   0.969   3.239  27.736  2.1603  0.6490  0.2455
  150SAPE   H7Y16624   0.865   3.339  27.632  0.2642 -1.7370 -1.1157
  150SAPE   C3816625   0.968   3.447  27.800  0.0842 -0.2837 -0.5519
  150SAPE   H8X16626   1.054   3.426  27.867  2.0544  3.3910 -1.6880
  150SAPE   H8Y16627   0.873   3.437  27.858  0.5294  2.0649  0.7152
  150SAPE   C3916628   0.996   3.590  27.758 -0.3424 -0.1855  0.4154
  150SAPE   H9X16629   0.915   3.630  27.693  0.0033 -1.8324 -1.1090
  150SAPE   H9Y16630   1.096   3.607  27.712  0.4163  0.4367  2.1907
  150SAPE  C31016631   0.996   3.682  27.885  0.2807 -0.4067 -0.3199
  150SAPE  H10X16632   1.092   3.664  27.938  0.9332  1.4494 -0.7607
  150SAPE  H10Y16633   0.912   3.657  27.953  0.4617 -1.3148 -0.4142
  150SAPE  C31116634   1.005   3.831  27.842  0.5081 -0.3360  0.5801
  150SAPE  H11X16635   0.914   3.849  27.782  1.4073  1.0203 -0.4669
  150SAPE  H11Y16636   1.091   3.836  27.771  0.3041  0.7441  0.3968
  150SAPE  C31216637   1.016   3.930  27.964  0.0779 -0.3409  0.4568
  150SAPE  H12X16638   0.947   3.891  28.041  1.2691 -2.5425  0.5029
  150SAPE  H12Y16639   1.007   4.032  27.922  0.9989  0.2439  1.6263
  150SAPE  C31316640   1.151   3.926  28.039  0.5294 -0.3365 -0.2283
  150SAPE  H13X16641   1.238   3.941  27.971  1.2852  1.8757  1.1248
  150SAPE  H13Y16642   1.159   3.824  28.082 -1.4071 -0.4002  0.0748
  150SAPE  C31416643   1.148   4.019  28.150 -0.5258 -0.1978 -0.0970
  150SAPE  H14X16644   1.074   3.983  28.224 -0.7416  0.8216  0.1961
  150SAPE  H14Y16645   1.128   4.123  28.117  1.5673  0.9938  2.1302
  150SAPE  C31516646   1.279   4.027  28.228  0.3981 -0.1513  0.2091
  150SAPE  H15X16647   1.355   4.034  28.148 -0.8867 -1.2813 -1.1825
  150SAPE  H15Y16648   1.295   3.932  28.283  1.0650  0.9806  2.0580
  150SAPE  C31616649   1.288   4.156  28.315 -0.0837  0.5030  0.0530
  150SAPE  H16X16650   1.200   4.170  28.381  0.7156  0.3170  1.1762
  150SAPE  H16Y16651   1.297   4.242  28.245 -0.2798  1.4936  1.1993
  150SAPE  C31716652   1.418   4.167  28.391  0.5730 -0.6118 -0.4746
  150SAPE  H17X16653   1.500   4.186  28.319  1.8189 -0.0652  1.0352
  150SAPE  H17Y16654   1.434   4.067  28.438 -2.1381 -1.2642 -0.7395
  150SAPE  C31816655   1.437   4.279  28.493  0.1875 -0.4424 -0.4278
  150SAPE  H18X16656   1.529   4.267  28.553  0.3052  1.3354 -0.1854
  150SAPE  H18Y16657   1.352   4.274  28.565  1.5957 -3.1224  1.2340
  150SAPE  H18Z16658   1.435   4.378  28.443 -0.9875 -0.9458 -1.4188
  151SAPE     N16659   2.783   2.092  29.827 -0.4756 -0.2020 -0.0321
  151SAPE   HN116660   2.819   2.140  29.912 -0.1449 -2.1762  1.0035
  151SAPE   HN216661   2.733   2.005  29.855 -1.0713  0.0605 -0.2744
  151SAPE   HN316662   2.865   2.081  29.764 -0.1866 -2.2715  0.6411
  151SAPE   C1216663   2.682   2.181  29.761  0.1168  0.1391 -0.4565
  151SAPE  H12A16664   2.587   2.148  29.807  0.1504 -0.5960 -0.8978
  151SAPE  H12B16665   2.678   2.156  29.653  0.9346 -0.1786 -0.4242
  151SAPE   C1116666   2.723   2.328  29.798 -0.2308 -0.4005  0.4322
  151SAPE  H11A16667   2.643   2.397  29.762  0.8670  0.1169 -1.1287
  151SAPE  H11B16668   2.810   2.335  29.729  0.5482  0.3268  1.4625
  151SAPE     P16669   2.705   2.420  30.050  0.0873 -0.3329 -0.5121
  151SAPE   O1316670   2.753   2.363  30.179 -0.0098  0.7428  0.0242
  151SAPE   O1416671   2.707   2.566  30.030 -0.1018 -0.2896  0.7662
  151SAPE   O1216672   2.777   2.347  29.927  0.3434  0.2770 -0.1404
  151SAPE   O1116673   2.556   2.374  30.030 -1.0025  0.3142  0.0027
  151SAPE    C116674   2.454   2.446  29.966 -0.1882  0.4079  0.4571
  151SAPE    HA16675   2.480   2.495  29.870 -2.1164 -0.4653 -0.5688
  151SAPE    HB16676   2.373   2.376  29.934 -0.0291  0.3137  0.2592
  151SAPE    C216677   2.378   2.547  30.058 -0.1452  0.2332 -0.4409
  151SAPE    HS16678   2.456   2.621  30.084 -0.3044  1.1583 -2.4320
  151SAPE   O2116679   2.330   2.472  30.175 -0.2085  0.0676 -0.2789
  151SAPE   C2116680   2.354   2.534  30.289  0.1340  0.1958  0.8547
  151SAPE   O2216681   2.399   2.641  30.305 -0.0563 -0.0515  0.2367
  151SAPE   C2216682   2.302   2.454  30.409 -0.3370  0.1254 -0.3013
  151SAPE   H2R16683   2.338   2.501  30.502 -0.2869 -2.7214  1.2299
  151SAPE   H2S16684   2.191   2.448  30.415 -0.3071  1.2021  2.7852
  151SAPE    C316685   2.263   2.605  29.980  1.2743  0.1425 -0.3097
  151SAPE    HX16686   2.188   2.526  29.954 -0.1357  0.6984  1.7987
  151SAPE    HY16687   2.304   2.642  29.884  0.2515 -0.4671 -1.0089
  151SAPE   O3116688   2.193   2.704  30.062 -0.1420  0.6055  0.2408
  151SAPE   C3116689   2.249   2.825  30.059 -0.4692  0.0628  0.3469
  151SAPE   O3216690   2.338   2.859  29.986 -0.2864  0.1455  0.1925
  151SAPE   C3216691   2.186   2.912  30.162 -0.0665 -0.0092 -0.4689
  151SAPE   H2X16692   2.138   2.850  30.241 -1.4542  1.4016 -0.1565
  151SAPE   H2Y16693   2.112   2.974  30.107  1.2401  0.3887 -1.8480
  151SAPE   C2316694   2.357   2.305  30.412  0.2794  0.2949  0.9113
  151SAPE   H3R16695   2.466   2.305  30.388  0.3311  0.4408  1.1424
  151SAPE   H3S16696   2.319   2.245  30.327 -0.5899 -0.2726  1.6962
  151SAPE   C2416697   2.337   2.232  30.541 -0.0229 -0.6094  0.2750
  151SAPE   H4R16698   2.368   2.300  30.623 -2.0966  1.1394 -0.3094
  151SAPE   H4S16699   2.390   2.134  30.543 -1.9089 -1.7002 -0.6014
  151SAPE   C2516700   2.196   2.191  30.561  0.5314  0.5299 -0.2532
  151SAPE   H5R16701   2.172   2.109  30.492  2.1970 -2.1067  2.1307
  151SAPE   C2616702   2.109   2.220  30.658 -0.3207 -0.3539  0.0523
  151SAPE   H6R16703   2.011   2.170  30.654 -0.9787  0.9857 -2.1946
  151SAPE   C2716704   2.116   2.315  30.776 -0.5568  0.5000  0.3119
  151SAPE   H7R16705   2.197   2.390  30.757  0.2172  0.2584  2.3724
  151SAPE   H7S16706   2.143   2.258  30.867  1.1768 -0.4847 -0.7654
  151SAPE   C2816707   1.987   2.389  30.793 -0.0042  0.0581 -0.1873
  151SAPE   H8R16708   1.911   2.379  30.714 -1.2128  0.5627  0.8879
  151SAPE   C2916709   1.968   2.478  30.896  0.3257  0.0387 -0.2237
  151SAPE   H9R16710   1.872   2.530  30.909 -0.4625 -0.9166 -1.8131
  151SAPE  C21016711   2.070   2.516  31.003 -0.4002  0.1429 -0.5812
  151SAPE  H10R16712   2.168   2.464  30.994 -0.9851 -1.3449  0.9862
  151SAPE  H10S16713   2.025   2.491  31.101 -2.0373  1.7888 -0.8627
  151SAPE  C21116714   2.106   2.658  30.997  0.1892 -0.5465 -0.2474
  151SAPE  H11R16715   2.188   2.688  30.931 -0.4992  2.9884  0.3036
  151SAPE  C21216716   2.028   2.760  31.052  0.0671 -0.3239  0.7170
  151SAPE  H12R16717   2.054   2.862  31.021  0.2080  0.1180  2.2082
  151SAPE  C21316718   1.904   2.730  31.130 -0.4809  0.0611  0.1890
  151SAPE  H13R16719   1.925   2.780  31.228  0.7559 -0.4663  0.2074
  151SAPE  H13S16720   1.885   2.622  31.144 -0.6039  0.1089  0.4086
  151SAPE  C21416721   1.784   2.804  31.072 -0.3547 -0.6398 -0.3535
  151SAPE  H14R16722   1.802   2.908  31.040 -0.0808 -1.0815 -1.7065
  151SAPE  C21516723   1.663   2.753  31.050 -0.3963 -0.1033 -0.7285
  151SAPE  H15R16724   1.579   2.813  31.011 -0.6850  0.8579  1.1953
  151SAPE  C21616725   1.629   2.616  31.092 -0.1273  0.0850  0.5720
  151SAPE  H16R16726   1.692   2.566  31.169 -0.8341 -1.2438  0.3215
  151SAPE  H16S16727   1.624   2.549  31.003 -1.4480 -0.5085  1.0627
  151SAPE  C21716728   1.488   2.602  31.164 -0.0871  0.1896 -0.1019
  151SAPE  H17R16729   1.474   2.492  31.168 -0.2980  0.1265 -1.7796
  151SAPE  H17S16730   1.412   2.642  31.093  2.1260  0.8831 -2.1983
  151SAPE  C21816731   1.473   2.641  31.316  0.0654  0.1644  0.1889
  151SAPE  H18R16732   1.567   2.610  31.367 -0.2299 -3.3902 -1.1634
  151SAPE  H18S16733   1.400   2.567  31.355  1.1298 -1.0205  0.0084
  151SAPE  C21916734   1.448   2.788  31.336 -0.6315 -0.5082 -0.5290
  151SAPE  H19R16735   1.347   2.811  31.295 -0.8401  1.8171  1.0837
  151SAPE  H19S16736   1.528   2.849  31.290  1.8272 -1.7495  1.8028
  151SAPE  C22016737   1.448   2.820  31.485  0.5748  0.3044 -0.2360
  151SAPE  H20R16738   1.550   2.824  31.527  1.0369 -0.8316 -1.1804
  151SAPE  H20S16739   1.396   2.916  31.507 -1.4662  0.1209 -3.5155
  151SAPE  H20T16740   1.399   2.740  31.545  0.7745 -0.3702 -0.9536
  151SAPE   C3316741   2.287   3.013  30.227 -0.3018 -0.0091 -0.0538
  151SAPE   H3X16742   2.341   3.055  30.139 -0.7523  0.4345 -0.1280
  151SAPE   H3Y16743   2.356   2.961  30.297 -0.3434 -0.6891 -0.5143
  151SAPE   C3416744   2.212   3.133  30.288  0.3253  0.1797  0.2251
  151SAPE   H4X16745   2.147   3.094  30.369 -0.1360 -0.2637 -0.3535
  151SAPE   H4Y16746   2.162   3.177  30.199  2.6174  2.5054 -0.0592
  151SAPE   C3516747   2.305   3.251  30.323 -0.1282  0.5941  0.7034
  151SAPE   H5X16748   2.344   3.297  30.230 -1.5140  1.9176  0.7348
  151SAPE   H5Y16749   2.396   3.222  30.380  0.6871  2.5919  0.4806
  151SAPE   C3616750   2.230   3.362  30.388 -0.8457  0.0577  0.3539
  151SAPE   H6X16751   2.151   3.385  30.313 -0.8974  0.5208  0.5452
  151SAPE   H6Y16752   2.293   3.454  30.380 -1.3731  0.2936 -1.5221
  151SAPE   C3716753   2.199   3.336  30.537 -0.2267 -0.3284 -0.8025
  151SAPE   H7X16754   2.289   3.337  30.603 -0.3892 -1.1857 -0.5610
  151SAPE   H7Y16755   2.162   3.232  30.544 -0.3897 -0.1636  2.4344
  151SAPE   C3816756   2.084   3.425  30.597 -0.0032 -0.2456  1.2668
  151SAPE   H8X16757   1.998   3.425  30.527  0.8274 -0.4291  0.2190
  151SAPE   H8Y16758   2.120   3.531  30.597  0.4540 -0.3995  1.1614
  151SAPE   C3916759   2.046   3.408  30.740 -0.3330  0.4546 -0.2257
  151SAPE   H9X16760   2.129   3.415  30.814  1.5014 -0.4244 -2.1104
  151SAPE   H9Y16761   2.017   3.302  30.754 -3.1881  1.0631 -0.8698
  151SAPE  C31016762   1.919   3.484  30.783 -0.0108 -0.4422  0.2645
  151SAPE  H10X16763   1.830   3.465  30.719  0.1532  1.9236 -0.7399
  151SAPE  H10Y16764   1.930   3.594  30.769 -0.3590 -0.3237  0.8591
  151SAPE  C31116765   1.870   3.453  30.926  0.8048 -0.3027 -0.4397
  151SAPE  H11X16766   1.772   3.504  30.941  0.5435 -0.1097 -2.5026
  151SAPE  H11Y16767   1.933   3.492  31.008 -1.3731  4.6968 -0.7404
  151SAPE  C31216768   1.851   3.305  30.962 -0.6230  0.5468  1.0264
  151SAPE  H12X16769   1.948   3.260  30.991 -0.7232  0.4848  1.2698
  151SAPE  H12Y16770   1.807   3.245  30.879  0.9013 -1.3663  1.5204
  151SAPE  C31316771   1.767   3.280  31.079  0.7247  0.1245  0.2757
  151SAPE  H13X16772   1.780   3.361  31.154 -1.4216  2.9914 -2.2260
  151SAPE  H13Y16773   1.802   3.192  31.138  0.4368  2.3669  4.0860
  151SAPE  C31416774   1.617   3.255  31.047  0.1525 -0.3297  0.1325
  151SAPE  H14X16775   1.621   3.163  30.985  0.6665 -1.0087  1.1403
  151SAPE  H14Y16776   1.583   3.347  30.994  2.3729 -1.8731 -4.5290
  151SAPE  C31516777   1.532   3.243  31.176 -0.5416 -0.1376  0.4997
  151SAPE  H15X16778   1.519   3.347  31.212  2.9073  0.5047  0.2604
  151SAPE  H15Y16779   1.591   3.196  31.259 -1.5061 -1.2959  0.5480
  151SAPE  C31616780   1.406   3.153  31.172  0.3542  0.4505  0.3763
  151SAPE  H16X16781   1.353   3.150  31.270  2.9065  0.6684  1.8504
  151SAPE  H16Y16782   1.455   3.054  31.171 -0.5995 -0.0597  1.3562
  151SAPE  C31716783   1.316   3.172  31.052  0.2387 -0.4131  0.5022
  151SAPE  H17X16784   1.384   3.148  30.967 -0.7618 -2.1395  0.1421
  151SAPE  H17Y16785   1.283   3.278  31.048 -0.5826 -0.5215  3.0036
  151SAPE  C31816786   1.195   3.083  31.042  0.0610  0.2035 -0.2058
  151SAPE  H18X16787   1.143   3.084  30.944 -0.6902 -1.9569  0.1208
  151SAPE  H18Y16788   1.124   3.095  31.127  0.3454  1.3606 -0.1137
  151SAPE  H18Z16789   1.236   2.981  31.058  1.5589  0.7659 -0.3191
  152SAPE     N16790   2.337   0.411  25.681  0.5838 -0.3365  0.3232
  152SAPE   HN116791   2.363   0.477  25.757 -0.6935  1.2155 -0.5350
  152SAPE   HN216792   2.233   0.407  25.690  0.7628  0.2000  3.9452
  152SAPE   HN316793   2.380   0.321  25.710  2.0548 -0.7229 -2.6502
  152SAPE   C1216794   2.391   0.454  25.550  0.1095 -0.5064 -0.4627
  152SAPE  H12A16795   2.371   0.380  25.469 -0.3679  0.7742 -1.5590
  152SAPE  H12B16796   2.502   0.453  25.558  0.0797  0.6546  0.3091
  152SAPE   C1116797   2.348   0.595  25.518 -0.5617 -0.3272 -0.6923
  152SAPE  H11A16798   2.242   0.602  25.487 -0.0033 -1.1112 -2.9827
  152SAPE  H11B16799   2.406   0.631  25.430  0.9212 -2.3685 -0.6256
  152SAPE     P16800   2.498   0.762  25.655  0.3439  0.3107 -0.3154
  152SAPE   O1316801   2.465   0.845  25.772 -0.6236  0.1704 -0.4978
  152SAPE   O1416802   2.613   0.673  25.683 -0.2953  0.0814  0.0067
  152SAPE   O1216803   2.366   0.687  25.621  0.0956  0.4379 -0.2905
  152SAPE   O1116804   2.531   0.841  25.520  0.3082  0.0060  0.2620
  152SAPE    C116805   2.450   0.956  25.497 -0.2794 -0.4520 -0.9272
  152SAPE    HA16806   2.341   0.933  25.488 -0.1532 -1.5639  0.1749
  152SAPE    HB16807   2.457   1.028  25.581 -1.5736 -1.0219 -0.2996
  152SAPE    C216808   2.496   1.028  25.371  0.2013  0.7794 -0.2887
  152SAPE    HS16809   2.439   1.123  25.369  0.4437  0.9218 -1.8099
  152SAPE   O2116810   2.473   0.949  25.249  0.7303  0.4396 -0.0671
  152SAPE   C2116811   2.344   0.921  25.224  0.4590  0.2348 -0.6727
  152SAPE   O2216812   2.251   0.977  25.280 -0.3856  0.2593 -0.1570
  152SAPE   C2216813   2.345   0.805  25.127  0.5048  0.8175  0.3447
  152SAPE   H2R16814   2.346   0.845  25.023 -1.5910  0.1086 -0.0112
  152SAPE   H2S16815   2.433   0.738  25.137 -0.0185  0.0872  0.1961
  152SAPE    C316816   2.645   1.077  25.376 -0.0369 -0.1437 -0.4209
  152SAPE    HX16817   2.704   0.983  25.371 -0.7438 -0.5901 -0.7089
  152SAPE    HY16818   2.671   1.121  25.474  1.8861 -3.7329  0.8401
  152SAPE   O3116819   2.676   1.160  25.265 -0.0127 -0.0451 -0.0428
  152SAPE   C3116820   2.662   1.291  25.275 -0.1576 -0.2018  0.2325
  152SAPE   O3216821   2.628   1.349  25.379 -0.0512  0.3035 -0.5847
  152SAPE   C3216822   2.699   1.351  25.136  0.0751  0.4453  0.2063
  152SAPE   H2X16823   2.741   1.270  25.073 -0.3043 -1.0337  1.7918
  152SAPE   H2Y16824   2.771   1.435  25.145 -0.9575  1.2521  1.3678
  152SAPE   C2316825   2.213   0.726  25.147  0.2104  0.3791  0.1166
  152SAPE   H3R16826   2.128   0.797  25.137  1.6230  1.8415 -2.6170
  152SAPE   H3S16827   2.227   0.666  25.240  2.2334 -0.9852 -0.9774
  152SAPE   C2416828   2.195   0.611  25.040 -0.2858 -0.0903 -0.2340
  152SAPE   H4R16829   2.098   0.557  25.053 -1.1576  1.2531 -0.8763
  152SAPE   H4S16830   2.274   0.534  25.040 -2.1277 -2.2570  3.3632
  152SAPE   C2516831   2.184   0.669  24.898 -0.4404  0.7080 -0.8391
  152SAPE   H5R16832   2.086   0.704  24.864 -0.8419 -0.8035 -1.3152
  152SAPE   C2616833   2.280   0.670  24.801 -0.5133  0.1590 -0.2453
  152SAPE   H6R16834   2.252   0.717  24.706 -0.6617  0.1009 -0.2298
  152SAPE   C2716835   2.417   0.619  24.809 -0.2611 -0.2672 -0.0659
  152SAPE   H7R16836   2.421   0.519  24.760 -0.2714 -1.1840  1.7423
  152SAPE   H7S16837   2.446   0.604  24.915  0.2135  2.4889  0.2576
  152SAPE   C2816838   2.516   0.715  24.749 -0.7736 -0.4250  0.2692
  152SAPE   H8R16839   2.518   0.819  24.783  0.3585 -0.6354  0.9011
  152SAPE   C2916840   2.622   0.675  24.670  0.5415  1.1086 -0.4711
  152SAPE   H9R16841   2.674   0.761  24.625 -0.6093  1.6066 -0.8797
  152SAPE  C21016842   2.652   0.538  24.608 -1.0343  0.0833  0.0416
  152SAPE  H10R16843   2.732   0.549  24.532  1.1615  1.8024  2.4080
  152SAPE  H10S16844   2.556   0.507  24.562 -0.6362 -0.2417 -0.5780
  152SAPE  C21116845   2.685   0.435  24.721 -0.5952 -0.0180 -0.1302
  152SAPE  H11R16846   2.645   0.473  24.817  1.9699  2.6177  0.0206
  152SAPE  C21216847   2.763   0.328  24.717 -0.5763 -0.6910 -0.7616
  152SAPE  H12R16848   2.774   0.272  24.811 -1.1461 -1.1669 -0.9735
  152SAPE  C21316849   2.832   0.275  24.598  0.1708 -0.3920  0.5068
  152SAPE  H13R16850   2.805   0.340  24.512 -0.0716  0.2800  1.0788
  152SAPE  H13S16851   2.772   0.190  24.561  0.5830  1.4267 -5.4220
  152SAPE  C21416852   2.984   0.268  24.601 -0.2547 -0.3509  0.5967
  152SAPE  H14R16853   3.032   0.354  24.552 -2.1726  0.9426  0.8564
  152SAPE  C21516854   3.052   0.150  24.637  0.7167  0.3518  0.2506
  152SAPE  H15R16855   3.162   0.150  24.631  0.6740  1.3202 -1.3237
  152SAPE  C21616856   2.993   0.019  24.690  0.2843 -0.1801 -0.2716
  152SAPE  H16R16857   2.914  -0.025  24.627  0.0707 -1.8584  1.0855
  152SAPE  H16S16858   2.954   0.033  24.793  1.6476  0.2157  0.2208
  152SAPE  C21716859   3.091  -0.100  24.706 -0.1963  0.0484 -0.0270
  152SAPE  H17R16860   3.156  -0.081  24.794 -0.9588  0.3643  0.4720
  152SAPE  H17S16861   3.160  -0.118  24.620 -0.0626 -0.0413  0.0972
  152SAPE  C21816862   3.005  -0.233  24.727  0.2902  0.0752  0.0736
  152SAPE  H18R16863   3.079  -0.311  24.758 -0.4982 -0.2956  1.0608
  152SAPE  H18S16864   2.973  -0.275  24.629 -0.6406 -1.7183  1.1016
  152SAPE  C21916865   2.892  -0.227  24.836  0.2127  0.5977  0.3205
  152SAPE  H19R16866   2.824  -0.152  24.791  0.7510  0.2013 -1.2221
  152SAPE  H19S16867   2.933  -0.189  24.931  0.2963 -2.2753  1.5244
  152SAPE  C22016868   2.835  -0.363  24.875  0.4782 -0.3504  0.7439
  152SAPE  H20R16869   2.911  -0.436  24.909 -1.4062 -3.0645 -0.4805
  152SAPE  H20S16870   2.793  -0.414  24.785  0.6325 -2.0261  1.5891
  152SAPE  H20T16871   2.751  -0.349  24.946 -0.9281 -3.1773 -0.2208
  152SAPE   C3316872   2.572   1.401  25.058 -0.2950  0.2649  0.6333
  152SAPE   H3X16873   2.607   1.462  24.972 -1.5621 -1.5403 -1.2788
  152SAPE   H3Y16874   2.507   1.453  25.132  0.2383 -0.2594  1.4855
  152SAPE   C3416875   2.474   1.284  25.015  0.7345 -0.4862 -0.1765
  152SAPE   H4X16876   2.380   1.323  24.970  0.8002  0.4398  0.4546
  152SAPE   H4Y16877   2.465   1.212  25.099  0.7512 -0.9152 -0.5381
  152SAPE   C3516878   2.545   1.198  24.904  1.3864 -0.6180 -0.4996
  152SAPE   H5X16879   2.630   1.137  24.942  1.6696 -0.2621 -0.5669
  152SAPE   H5Y16880   2.570   1.252  24.811 -1.7180  2.4419  0.2201
  152SAPE   C3616881   2.448   1.079  24.853  0.6273  0.3825 -0.2314
  152SAPE   H6X16882   2.433   1.017  24.944 -0.4425  0.2942 -0.4504
  152SAPE   H6Y16883   2.498   1.025  24.769 -1.9370 -0.2680 -1.4375
  152SAPE   C3716884   2.326   1.139  24.789  0.3158  0.0459 -0.0827
  152SAPE   H7X16885   2.355   1.210  24.708 -2.0175  0.9071 -0.2324
  152SAPE   H7Y16886   2.269   1.207  24.857  0.8491  1.9889 -1.4889
  152SAPE   C3816887   2.216   1.042  24.728  0.0246 -0.7428  0.1743
  152SAPE   H8X16888   2.156   1.015  24.818  1.0355 -0.3773  0.9763
  152SAPE   H8Y16889   2.274   0.961  24.679  0.7561  0.4397 -1.0055
  152SAPE   C3916890   2.123   1.115  24.630  0.3049 -0.0448 -0.1598
  152SAPE   H9X16891   2.169   1.137  24.531  0.4965 -1.2181 -0.3446
  152SAPE   H9Y16892   2.085   1.213  24.668  0.7779 -0.0008  0.2076
  152SAPE  C31016893   1.992   1.030  24.593  0.2391 -0.3954  0.7159
  152SAPE  H10X16894   1.936   1.017  24.688 -0.5181 -2.3038  0.0560
  152SAPE  H10Y16895   2.020   0.929  24.556 -0.2521  0.1877 -1.3525
  152SAPE  C31116896   1.902   1.100  24.487 -0.4369  0.3582  0.4876
  152SAPE  H11X16897   1.888   1.203  24.525 -0.4909  1.6723 -2.7211
  152SAPE  H11Y16898   1.806   1.044  24.493 -1.9465  2.5588 -1.5478
  152SAPE  C31216899   1.964   1.103  24.345 -0.1054 -0.1979  0.0305
  152SAPE  H12X16900   2.008   1.003  24.324 -0.3923 -0.2939 -0.1298
  152SAPE  H12Y16901   2.050   1.172  24.334 -2.9939  4.6204  3.6278
  152SAPE  C31316902   1.852   1.130  24.238 -0.6527 -0.1178  0.8077
  152SAPE  H13X16903   1.807   1.232  24.241 -1.1834 -0.3314  0.3012
  152SAPE  H13Y16904   1.767   1.070  24.276 -0.4889  0.4532  2.1326
  152SAPE  C31416905   1.896   1.094  24.095 -0.1643 -0.2233  0.6783
  152SAPE  H14X16906   1.957   1.002  24.105  0.2041 -0.0815 -0.2194
  152SAPE  H14Y16907   1.951   1.181  24.054 -1.3870 -0.1547 -0.8805
  152SAPE  C31516908   1.771   1.055  24.011 -0.2334 -1.4151 -0.0819
  152SAPE  H15X16909   1.696   1.136  24.026  0.7407  0.1675 -2.8990
  152SAPE  H15Y16910   1.720   0.960  24.040 -0.8180 -0.7607  1.1070
  152SAPE  C31616911   1.797   1.056  23.860  0.7099 -0.6451  0.7673
  152SAPE  H16X16912   1.861   0.967  23.841  0.2014 -0.0788 -6.1411
  152SAPE  H16Y16913   1.844   1.151  23.827  2.5945 -2.0496 -0.7462
  152SAPE  C31716914   1.665   1.050  23.781  0.4186 -0.8822  0.0246
  152SAPE  H17X16915   1.590   1.125  23.817  0.9675 -0.9647  1.4112
  152SAPE  H17Y16916   1.612   0.956  23.811  1.1781 -1.6697 -1.0549
  152SAPE  C31816917   1.688   1.055  23.631  0.7174  0.2599 -0.0621
  152SAPE  H18X16918   1.752   0.967  23.610  0.0035 -0.9468  2.4048
  152SAPE  H18Y16919   1.743   1.146  23.598  0.4794  0.2873 -0.3956
  152SAPE  H18Z16920   1.597   1.045  23.568 -0.3002 -0.6311  1.4948
  153SAPE     N16921   2.659   3.435  26.497  0.3324  0.0983  0.4274
  153SAPE   HN116922   2.597   3.353  26.484 -1.0266  1.1536  0.0803
  153SAPE   HN216923   2.761   3.414  26.486  0.6655  1.1579  1.3061
  153SAPE   HN316924   2.658   3.462  26.598  0.5979 -0.5490  0.6115
  153SAPE   C1216925   2.603   3.541  26.398 -0.3423 -0.6096  0.3758
  153SAPE  H12A16926   2.626   3.514  26.292  0.5367  1.0800  0.0919
  153SAPE  H12B16927   2.665   3.629  26.426  1.1903 -0.8509 -1.9596
  153SAPE   C1116928   2.454   3.558  26.433  1.3979  0.1153  0.3467
  153SAPE  H11A16929   2.405   3.460  26.417  0.1774  0.7755 -0.1689
  153SAPE  H11B16930   2.411   3.632  26.363  2.0438 -2.3688 -2.8869
  153SAPE     P16931   2.483   3.720  26.642  0.1886 -0.1022 -0.7302
  153SAPE   O1316932   2.495   3.832  26.553  0.5714 -0.3524 -0.2819
  153SAPE   O1416933   2.392   3.739  26.758  0.0057  0.1852 -0.2876
  153SAPE   O1216934   2.435   3.589  26.574  0.7885 -0.8185 -0.0454
  153SAPE   O1116935   2.624   3.678  26.697 -0.0166  0.0781  0.0004
  153SAPE    C116936   2.704   3.763  26.778 -0.3066  0.0984  0.9117
  153SAPE    HA16937   2.668   3.868  26.776  0.0703  0.2258 -0.1846
  153SAPE    HB16938   2.706   3.729  26.883  0.1977  0.9142  1.1734
  153SAPE    C216939   2.846   3.773  26.710  0.1576 -0.4435  0.5237
  153SAPE    HS16940   2.913   3.842  26.766  0.8741 -0.4043 -0.3594
  153SAPE   O2116941   2.831   3.802  26.573 -0.1771 -0.4757  0.1892
  153SAPE   C2116942   2.792   3.922  26.529 -0.7775 -0.1561 -0.5058
  153SAPE   O2216943   2.786   4.019  26.603  0.0312 -0.1995  0.2936
  153SAPE   C2216944   2.755   3.925  26.379  0.3134  0.2145  0.4622
  153SAPE   H2R16945   2.655   3.878  26.365  0.1581  0.8777 -0.8350
  153SAPE   H2S16946   2.736   4.028  26.339 -2.3086 -0.1811  0.4990
  153SAPE    C316947   2.910   3.635  26.706  0.1152  0.8249 -0.4045
  153SAPE    HX16948   2.844   3.557  26.662  0.5643  0.3039 -0.1643
  153SAPE    HY16949   2.918   3.597  26.810 -1.1278 -0.6716 -0.8255
  153SAPE   O3116950   3.043   3.630  26.643 -0.1496 -0.1754  0.6706
  153SAPE   C3116951   3.048   3.577  26.520  0.2186 -0.3443 -0.7858
  153SAPE   O3216952   2.950   3.548  26.457  0.8501  0.1829  0.7528
  153SAPE   C3216953   3.193   3.576  26.478  0.6512  0.4382  0.5572
  153SAPE   H2X16954   3.258   3.553  26.565  0.5791  0.4105  0.6055
  153SAPE   H2Y16955   3.212   3.679  26.439  0.5158  0.7802  1.3683
  153SAPE   C2316956   2.850   3.843  26.293  1.3195  0.2314 -0.4764
  153SAPE   H3R16957   2.836   3.868  26.186  0.1280  2.5260  0.1501
  153SAPE   H3S16958   2.838   3.735  26.317  1.8350  0.5929  1.6301
  153SAPE   C2416959   2.996   3.865  26.314  0.0513 -0.8902  0.0690
  153SAPE   H4R16960   3.051   3.805  26.237 -0.6432 -0.0569 -1.1113
  153SAPE   H4S16961   3.033   3.834  26.414 -0.1777 -1.4527 -0.0142
  153SAPE   C2516962   3.035   4.013  26.303  0.3721 -0.2375 -1.1930
  153SAPE   H5R16963   2.973   4.074  26.370 -0.0467  0.1902 -1.9619
  153SAPE   C2616964   3.124   4.073  26.222  0.0072  0.3731 -0.2881
  153SAPE   H6R16965   3.122   4.183  26.213 -1.1616  0.5192  1.3318
  153SAPE   C2716966   3.193   4.006  26.104  0.3063  0.5843 -0.9646
  153SAPE   H7R16967   3.164   4.063  26.013 -3.5872 -0.2987 -0.4499
  153SAPE   H7S16968   3.129   3.917  26.087 -0.5420  1.3964 -2.2164
  153SAPE   C2816969   3.343   3.969  26.096  0.1591 -0.2064  1.1142
  153SAPE   H8R16970   3.376   3.880  26.152  0.5469 -1.5626 -1.1481
  153SAPE   C2916971   3.439   4.040  26.028  0.7345 -0.0187  0.6877
  153SAPE   H9R16972   3.537   3.993  26.009  1.1921  1.9009 -2.4332
  153SAPE  C21016973   3.423   4.159  25.933 -0.2865 -0.0078 -0.3080
  153SAPE  H10R16974   3.526   4.200  25.926  0.5711 -2.0466 -0.3077
  153SAPE  H10S16975   3.355   4.233  25.981 -1.0412  0.1401 -1.5618
  153SAPE  C21116976   3.376   4.123  25.800 -0.3828 -0.9277  0.2909
  153SAPE  H11R16977   3.276   4.076  25.807 -0.4114 -0.8721  0.2555
  153SAPE  C21216978   3.432   4.143  25.680  0.2680  0.3669  0.1830
  153SAPE  H12R16979   3.393   4.091  25.590  0.7131  1.2533 -0.5396
  153SAPE  C21316980   3.573   4.205  25.655  0.0290  0.9809 -0.1163
  153SAPE  H13R16981   3.621   4.153  25.570  0.3876  0.1443  0.5826
  153SAPE  H13S16982   3.641   4.191  25.741  0.8666 -1.5367 -1.1177
  153SAPE  C21416983   3.562   4.351  25.629  0.0397 -0.3279  0.0943
  153SAPE  H14R16984   3.483   4.405  25.684  0.6244 -1.6320  2.3484
  153SAPE  C21516985   3.641   4.426  25.551  0.6912  0.1873  0.3660
  153SAPE  H15R16986   3.622   4.535  25.553 -2.7151 -0.2851 -0.3743
  153SAPE  C21616987   3.760   4.377  25.470  0.2129 -0.2274 -0.3637
  153SAPE  H16R16988   3.785   4.269  25.481  0.5664 -0.0696  0.4333
  153SAPE  H16S16989   3.849   4.426  25.514 -0.7148  1.0558  0.1490
  153SAPE  C21716990   3.758   4.420  25.322 -0.0442 -0.9446 -0.8967
  153SAPE  H17R16991   3.650   4.411  25.297 -0.0922 -1.9953 -0.3809
  153SAPE  H17S16992   3.822   4.349  25.264  4.4014 -0.9361  3.3169
  153SAPE  C21816993   3.802   4.572  25.311  0.4479  0.5539  0.2426
  153SAPE  H18R16994   3.912   4.585  25.312  0.5337  0.1460 -1.2702
  153SAPE  H18S16995   3.746   4.634  25.384 -1.1635  0.4556 -0.8498
  153SAPE  C21916996   3.759   4.621  25.174 -0.0249 -0.5435 -0.4164
  153SAPE  H19R16997   3.653   4.593  25.159 -0.1431 -0.0779 -0.4620
  153SAPE  H19S16998   3.822   4.573  25.096 -0.1180  2.2896 -2.3984
  153SAPE  C22016999   3.774   4.777  25.165  0.0577  0.1810 -0.4423
  153SAPE  H20R17000   3.871   4.808  25.210  0.3315 -0.9533 -0.2100
  153SAPE  H20S17001   3.690   4.828  25.217  0.6116 -0.2149  0.8869
  153SAPE  H20T17002   3.764   4.797  25.056 -0.1753  2.6534 -0.0039
  153SAPE   C3317003   3.215   3.471  26.357 -0.1046 -0.3481  0.1642
  153SAPE   H3X17004   3.153   3.504  26.271 -1.2745  0.2138  1.1849
  153SAPE   H3Y17005   3.165   3.381  26.398 -1.5422 -0.2417 -1.2468
  153SAPE   C3417006   3.360   3.460  26.302 -0.3372  0.0980 -0.2252
  153SAPE   H4X17007   3.362   3.363  26.248 -0.0270 -0.0290  0.0077
  153SAPE   H4Y17008   3.421   3.453  26.395  0.1071  1.4306 -0.3967
  153SAPE   C3517009   3.407   3.567  26.205 -0.1529 -0.1573  0.7811
  153SAPE   H5X17010   3.405   3.661  26.264 -0.8746 -0.7000  1.6434
  153SAPE   H5Y17011   3.327   3.579  26.129  1.0435  4.2473 -0.0094
  153SAPE   C3617012   3.547   3.544  26.141  0.6297  0.6086 -0.4105
  153SAPE   H6X17013   3.543   3.456  26.074  0.5877  1.5285 -1.6634
  153SAPE   H6Y17014   3.621   3.531  26.223 -2.9686 -0.2260  3.0242
  153SAPE   C3717015   3.603   3.666  26.069 -0.3419  0.5778 -0.4155
  153SAPE   H7X17016   3.604   3.759  26.130 -2.4272  0.5548 -0.2736
  153SAPE   H7Y17017   3.530   3.686  25.988 -2.3228 -1.2154  0.8138
  153SAPE   C3817018   3.741   3.627  26.009 -0.1857 -0.0303  0.8017
  153SAPE   H8X17019   3.724   3.543  25.938  2.2868 -0.5485  0.7299
  153SAPE   H8Y17020   3.808   3.597  26.092  1.2748  0.5753 -0.1175
  153SAPE   C3917021   3.804   3.752  25.944 -0.4020 -0.8342  0.3739
  153SAPE   H9X17022   3.903   3.713  25.914  0.1179 -0.2448  1.2644
  153SAPE   H9Y17023   3.828   3.830  26.020 -0.0960 -0.1624 -0.4029
  153SAPE  C31017024   3.730   3.801  25.820  0.4904  0.6839  0.2445
  153SAPE  H10X17025   3.622   3.820  25.839 -0.1241 -2.2773  0.1735
  153SAPE  H10Y17026   3.739   3.715  25.751 -1.4868  0.6865 -0.0573
  153SAPE  C31117027   3.800   3.919  25.754  0.2492 -0.1779 -0.4482
  153SAPE  H11X17028   3.748   3.959  25.665  0.1531 -1.5809 -1.0470
  153SAPE  H11Y17029   3.900   3.883  25.724  0.7014  0.1154  0.6628
  153SAPE  C31217030   3.839   4.036  25.846  0.2056 -1.0423 -0.4792
  153SAPE  H12X17031   3.880   4.002  25.943 -0.0601  1.0179  0.4155
  153SAPE  H12Y17032   3.747   4.094  25.871  0.1425 -1.7856  1.1634
  153SAPE  C31317033   3.945   4.122  25.775 -0.2581 -0.2331  0.0238
  153SAPE  H13X17034   3.908   4.164  25.679  3.5122  0.8786 -1.1063
  153SAPE  H13Y17035   4.035   4.060  25.758  0.6392  1.0787 -0.1992
  153SAPE  C31417036   3.987   4.241  25.860 -1.0537 -0.2772 -0.1344
  153SAPE  H14X17037   3.900   4.310  25.864 -1.3163 -0.5625 -0.8010
  153SAPE  H14Y17038   4.063   4.300  25.806 -0.8906  0.5004  0.9109
  153SAPE  C31517039   4.021   4.216  26.008  0.0984 -0.6234  0.4435
  153SAPE  H15X17040   4.094   4.134  26.026  1.1274 -0.0385 -0.8768
  153SAPE  H15Y17041   3.932   4.193  26.070  1.4932  0.5030  2.9942
  153SAPE  C31617042   4.073   4.338  26.070 -0.4519  0.6664  0.0657
  153SAPE  H16X17043   4.007   4.422  26.041  0.5302  0.9235 -1.5180
  153SAPE  H16Y17044   4.174   4.363  26.031 -0.2922  0.0126  0.0364
  153SAPE  C31717045   4.090   4.341  26.227 -0.1251 -0.2682 -0.0600
  153SAPE  H17X17046   4.188   4.292  26.244  1.2268  1.6473 -1.8090
  153SAPE  H17Y17047   4.011   4.279  26.275  0.0280 -1.4228 -1.2596
  153SAPE  C31817048   4.105   4.483  26.285  0.3893 -0.2655  0.4899
  153SAPE  H18X17049   4.014   4.547  26.281 -0.2248 -1.1583 -1.4443
  153SAPE  H18Y17050   4.176   4.543  26.223 -1.0335 -0.7701 -1.7741
  153SAPE  H18Z17051   4.128   4.489  26.393  0.7549 -2.3040  0.5625
  154SAPE     N17052   2.324   0.843  27.228 -1.1316 -0.3370 -0.0019
  154SAPE   HN117053   2.305   0.755  27.177 -3.4788 -0.9702  1.7381
  154SAPE   HN217054   2.227   0.877  27.249 -0.9347  0.1248  0.1959
  154SAPE   HN317055   2.372   0.910  27.165 -1.9750  1.4062  1.0796
  154SAPE   C1217056   2.407   0.816  27.356  0.1370 -0.0196  0.7079
  154SAPE  H12A17057   2.410   0.907  27.419  2.0298  0.2149  0.3341
  154SAPE  H12B17058   2.510   0.785  27.329  0.4053  0.8395  0.7292
  154SAPE   C1117059   2.346   0.695  27.427 -0.3234  0.1672  1.4335
  154SAPE  H11A17060   2.252   0.739  27.468 -1.1108  1.8862 -1.8659
  154SAPE  H11B17061   2.425   0.669  27.501  1.2182  0.3816 -0.0763
  154SAPE     P17062   2.276   0.447  27.379  0.1117  0.4363 -0.5857
  154SAPE   O1317063   2.143   0.408  27.325  0.2280  0.3371  0.1349
  154SAPE   O1417064   2.387   0.356  27.350  0.2725  0.2899 -0.2573
  154SAPE   O1217065   2.323   0.590  27.336  1.0181  0.0792 -0.0773
  154SAPE   O1117066   2.263   0.457  27.537 -0.5357 -0.0660  0.5359
  154SAPE    C117067   2.145   0.400  27.594 -0.5051 -0.2312 -0.4374
  154SAPE    HA17068   2.125   0.305  27.540  1.5623 -1.0013  0.0226
  154SAPE    HB17069   2.171   0.368  27.697 -2.2659  1.6153  0.6526
  154SAPE    C217070   2.036   0.502  27.597 -0.0484  0.3440 -0.2258
  154SAPE    HS17071   2.007   0.533  27.495 -0.7909  1.4260  0.2977
  154SAPE   O2117072   2.088   0.615  27.662  0.5091 -0.0297  0.3346
  154SAPE   C2117073   2.056   0.736  27.624 -0.2474  0.3025  0.3747
  154SAPE   O2217074   1.995   0.772  27.522 -0.4866 -0.7111 -0.6289
  154SAPE   C2217075   2.120   0.832  27.725  0.6738 -0.5922 -0.2324
  154SAPE   H2R17076   2.095   0.786  27.823 -3.4982  2.0071  0.2033
  154SAPE   H2S17077   2.228   0.849  27.704  0.4454  2.3760  0.6075
  154SAPE    C317078   1.909   0.449  27.658 -0.0655 -0.0571  0.0278
  154SAPE    HX17079   1.933   0.403  27.756 -2.3318 -0.4219  0.4660
  154SAPE    HY17080   1.867   0.374  27.587  2.8249  1.3593 -3.4870
  154SAPE   O3117081   1.813   0.552  27.674  0.6772  0.0215 -0.3335
  154SAPE   C3117082   1.723   0.562  27.586  0.5881 -0.3745  0.8638
  154SAPE   O3217083   1.693   0.480  27.502 -0.2058 -0.3776 -0.3406
  154SAPE   C3217084   1.651   0.695  27.590  0.5104 -0.7154  0.6313
  154SAPE   H2X17085   1.596   0.698  27.493 -0.7918  1.9374  1.3592
  154SAPE   H2Y17086   1.725   0.778  27.594 -1.3711  1.0546  0.1534
  154SAPE   C2317087   2.047   0.963  27.716  0.0488  0.0754  0.1306
  154SAPE   H3R17088   1.937   0.945  27.710  0.0082 -0.4051  1.8229
  154SAPE   H3S17089   2.073   1.016  27.622  0.2974 -0.4588 -0.1044
  154SAPE   C2417090   2.069   1.060  27.840 -0.4601 -0.0981 -0.1253
  154SAPE   H4R17091   2.035   1.004  27.930 -2.6706  1.9917  0.4374
  154SAPE   H4S17092   2.013   1.155  27.825 -1.7857 -0.6947  0.7823
  154SAPE   C2517093   2.208   1.113  27.872  0.4854  0.0667  0.1052
  154SAPE   H5R17094   2.278   1.100  27.788 -1.1036 -0.8231 -1.1447
  154SAPE   C2617095   2.252   1.163  27.988  0.0181  1.1290 -0.2285
  154SAPE   H6R17096   2.356   1.199  27.990  0.6123 -0.1024 -3.1229
  154SAPE   C2717097   2.171   1.183  28.115  0.0067  0.3134  0.0113
  154SAPE   H7R17098   2.090   1.107  28.116  0.5684 -0.2937  0.3444
  154SAPE   H7S17099   2.117   1.280  28.116 -1.2388 -0.3538  1.4374
  154SAPE   C2817100   2.257   1.156  28.234 -0.3055 -0.7162  0.3298
  154SAPE   H8R17101   2.326   1.070  28.233  0.4084 -0.2835  3.0842
  154SAPE   C2917102   2.255   1.229  28.349  0.4045 -0.2223 -0.3497
  154SAPE   H9R17103   2.319   1.196  28.431  1.6764  0.0223 -1.2234
  154SAPE  C21017104   2.170   1.347  28.387 -0.1032  0.2020 -0.6057
  154SAPE  H10R17105   2.191   1.431  28.318 -0.1157  1.2962  0.6738
  154SAPE  H10S17106   2.205   1.381  28.487 -0.9801  0.5699 -0.4129
  154SAPE  C21117107   2.026   1.314  28.402  0.0293 -0.7452  0.5205
  154SAPE  H11R17108   2.005   1.217  28.450 -1.0800 -0.3669  0.8309
  154SAPE  C21217109   1.919   1.375  28.352 -0.3382 -0.2580 -0.3151
  154SAPE  H12R17110   1.821   1.329  28.373 -0.9426  1.5306  0.9083
  154SAPE  C21317111   1.928   1.509  28.286  0.8669  0.1496  0.4872
  154SAPE  H13R17112   1.991   1.565  28.359 -1.7905  1.2601  2.1036
  154SAPE  H13S17113   1.830   1.557  28.308  2.7207  3.9060  1.3638
  154SAPE  C21417114   1.967   1.503  28.134  0.2058 -0.1747 -0.5556
  154SAPE  H14R17115   2.055   1.563  28.108  0.5446 -0.3463  0.1712
  154SAPE  C21517116   1.875   1.479  28.039 -0.0740 -0.6524 -0.4365
  154SAPE  H15R17117   1.899   1.472  27.932 -2.1091 -1.9637 -0.8736
  154SAPE  C21617118   1.733   1.425  28.065 -0.0742 -0.1719  0.3333
  154SAPE  H16R17119   1.664   1.509  28.043  0.1890 -0.1713 -0.5081
  154SAPE  H16S17120   1.716   1.398  28.172  2.7180 -0.5734  0.7440
  154SAPE  C21717121   1.682   1.301  27.983  0.0560 -0.9205  0.3934
  154SAPE  H17R17122   1.705   1.318  27.875 -0.0354 -1.1741  0.3339
  154SAPE  H17S17123   1.573   1.285  27.998  0.0403  1.1212  3.3108
  154SAPE  C21817124   1.752   1.176  28.038  1.2932  0.6579 -0.6333
  154SAPE  H18R17125   1.726   1.179  28.145 -0.2644  0.3130 -0.9860
  154SAPE  H18S17126   1.860   1.196  28.016  1.4956  0.3579  0.0800
  154SAPE  C21917127   1.719   1.038  27.977  0.6486 -0.3006 -0.0589
  154SAPE  H19R17128   1.768   1.027  27.877 -0.0975 -1.2239 -0.3447
  154SAPE  H19S17129   1.611   1.026  27.955  0.8309 -0.6339 -0.8335
  154SAPE  C22017130   1.779   0.914  28.052  0.4131 -0.0640  0.1085
  154SAPE  H20R17131   1.737   0.814  28.026  1.1405  0.0130 -1.4696
  154SAPE  H20S17132   1.751   0.918  28.159 -0.0202 -1.3442  0.0666
  154SAPE  H20T17133   1.890   0.923  28.045  0.3870  0.8798  0.8302
  154SAPE   C3317134   1.535   0.701  27.689 -0.0422  0.3895 -0.3164
  154SAPE   H3X17135   1.573   0.669  27.788 -0.1309 -1.2734 -0.8006
  154SAPE   H3Y17136   1.460   0.625  27.659 -0.0543  0.2535  0.0620
  154SAPE   C3417137   1.471   0.839  27.711 -0.5747  0.0240 -0.3702
  154SAPE   H4X17138   1.465   0.882  27.609 -1.4773  1.7167  0.3608
  154SAPE   H4Y17139   1.547   0.895  27.770  0.6565 -0.4839 -1.4370
  154SAPE   C3517140   1.343   0.829  27.800  0.3321  0.1397  0.0487
  154SAPE   H5X17141   1.356   0.778  27.897 -2.3956  0.1506  0.4927
  154SAPE   H5Y17142   1.272   0.762  27.746  1.9346 -2.9881  1.5500
  154SAPE   C3617143   1.290   0.967  27.844  0.6075 -0.1636  0.6454
  154SAPE   H6X17144   1.272   1.021  27.748  3.4415 -1.0391 -0.4892
  154SAPE   H6Y17145   1.380   1.009  27.892  0.2145  1.8727 -0.3038
  154SAPE   C3717146   1.161   0.965  27.941  0.6066 -0.3978 -0.0488
  154SAPE   H7X17147   1.106   1.061  27.937  1.8259  0.3293  0.3241
  154SAPE   H7Y17148   1.207   0.933  28.037  0.1138 -0.9763  0.0010
  154SAPE   C3817149   1.045   0.866  27.888 -0.6896 -0.1427 -0.0005
  154SAPE   H8X17150   1.094   0.767  27.900  0.9297  0.7858  1.5430
  154SAPE   H8Y17151   1.030   0.875  27.778  0.1570 -0.9681 -0.1946
  154SAPE   C3917152   0.908   0.874  27.965 -0.8055 -0.1363 -0.2499
  154SAPE   H9X17153   0.869   0.973  27.933  1.5605  1.3040  1.0519
  154SAPE   H9Y17154   0.936   0.865  28.072 -0.3667  0.1888 -0.3406
  154SAPE  C31017155   0.808   0.767  27.928  0.2529 -1.0207  0.4703
  154SAPE  H10X17156   0.713   0.790  27.980  1.2665  0.5143  1.7410
  154SAPE  H10Y17157   0.843   0.667  27.962  1.3995 -0.4954  0.8998
  154SAPE  C31117158   0.779   0.768  27.777 -0.2960  0.2423  0.2641
  154SAPE  H11X17159   0.865   0.724  27.722 -0.5979 -0.0085 -0.0095
  154SAPE  H11Y17160   0.752   0.873  27.752  0.9883  0.1840 -1.5128
  154SAPE  C31217161   0.662   0.681  27.743  1.0918 -0.3907 -0.1883
  154SAPE  H12X17162   0.579   0.737  27.791  2.1393  2.4618 -1.4663
  154SAPE  H12Y17163   0.686   0.585  27.794  2.0320 -0.1695 -0.1927
  154SAPE  C31317164   0.633   0.660  27.592 -0.1469  0.4273 -0.2368
  154SAPE  H13X17165   0.686   0.570  27.554 -0.7496 -0.6360  1.3476
  154SAPE  H13Y17166   0.668   0.756  27.549 -0.2945  0.6338  0.1027
  154SAPE  C31417167   0.475   0.665  27.564 -0.3081 -0.1636 -0.0188
  154SAPE  H14X17168   0.418   0.587  27.619  0.3888 -2.1736 -1.9796
  154SAPE  H14Y17169   0.464   0.629  27.459  0.4371  0.0456 -0.1806
  154SAPE  C31517170   0.406   0.800  27.598  1.3440  0.4707  0.0278
  154SAPE  H15X17171   0.383   0.816  27.705 -0.9595  2.6659 -0.6834
  154SAPE  H15Y17172   0.303   0.793  27.556  2.0604  0.3155 -1.8012
  154SAPE  C31617173   0.460   0.927  27.538 -0.3581  0.4991  0.2758
  154SAPE  H16X17174   0.381   0.975  27.478  1.1323  2.7479  0.0071
  154SAPE  H16Y17175   0.544   0.896  27.473  0.8578  1.3315  1.3897
  154SAPE  C31717176   0.507   1.024  27.638 -0.4771  0.6870 -0.1366
  154SAPE  H17X17177   0.588   0.980  27.700 -0.4011 -1.4398 -1.6725
  154SAPE  H17Y17178   0.425   1.047  27.710 -0.8987 -1.4017  0.1045
  154SAPE  C31817179   0.554   1.160  27.582  0.0421  0.8972 -0.1884
  154SAPE  H18X17180   0.640   1.143  27.514  0.1657 -0.1113  0.2069
  154SAPE  H18Y17181   0.581   1.234  27.661  2.0805 -0.4118  0.4164
  154SAPE  H18Z17182   0.469   1.197  27.521 -2.4128 -0.5491  2.1232
  155SAPE     N17183   3.269   1.439  29.047 -0.1768 -0.0987  0.7228
  155SAPE   HN117184   3.200   1.491  29.105 -0.9138 -0.0374 -0.1982
  155SAPE   HN217185   3.364   1.448  29.087 -0.1128  1.4226  0.2715
  155SAPE   HN317186   3.274   1.483  28.953  0.4067  0.6115  1.0875
  155SAPE   C1217187   3.230   1.293  29.046  0.5150  0.3958 -0.0733
  155SAPE  H12A17188   3.273   1.235  28.962 -1.9089  0.3840 -1.3875
  155SAPE  H12B17189   3.119   1.290  29.037  0.6644 -1.6322 -2.4839
  155SAPE   C1117190   3.278   1.233  29.179 -0.2997  0.3080  0.0563
  155SAPE  H11A17191   3.387   1.238  29.158 -0.7220  2.2698 -2.1188
  155SAPE  H11B17192   3.241   1.129  29.194  1.3576  0.0092  2.7438
  155SAPE     P17193   3.219   1.281  29.439  0.0368  0.2365  0.1264
  155SAPE   O1317194   3.303   1.163  29.475 -0.7039 -0.2841 -0.1479
  155SAPE   O1417195   3.253   1.403  29.514 -0.0494 -0.0182 -0.1085
  155SAPE   O1217196   3.226   1.314  29.283 -0.7859  0.2162 -0.1750
  155SAPE   O1117197   3.069   1.245  29.450  0.3221 -0.5665 -0.8289
  155SAPE    C117198   3.028   1.111  29.414  0.1001  0.4879 -0.0687
  155SAPE    HA17199   3.110   1.041  29.390  0.1344  0.5432 -0.1123
  155SAPE    HB17200   2.975   1.069  29.502  0.4974  1.2423  0.5354
  155SAPE    C217201   2.921   1.090  29.301 -0.3557  1.0427 -0.2445
  155SAPE    HS17202   2.972   1.106  29.204  0.0655 -0.9427 -0.3892
  155SAPE   O2117203   2.819   1.188  29.318  0.8974  0.4612  0.4914
  155SAPE   C2117204   2.763   1.238  29.206  0.0467  0.0428 -0.4928
  155SAPE   O2217205   2.798   1.223  29.089  0.4324  0.1018  0.1783
  155SAPE   C2217206   2.632   1.306  29.246  0.5158  0.3132 -0.4808
  155SAPE   H2R17207   2.609   1.282  29.352  2.6446 -0.5892 -0.1884
  155SAPE   H2S17208   2.661   1.413  29.236  0.2813  0.5172  0.8458
  155SAPE    C317209   2.860   0.949  29.292 -0.4485  0.4124 -0.0161
  155SAPE    HX17210   2.784   0.932  29.372 -0.5803 -2.8781 -0.6807
  155SAPE    HY17211   2.934   0.865  29.293 -0.2016  0.6214 -0.4427
  155SAPE   O3117212   2.795   0.940  29.163 -0.5299 -0.5760 -0.6396
  155SAPE   C3117213   2.709   0.828  29.149 -0.0278  0.0671 -0.4586
  155SAPE   O3217214   2.700   0.735  29.224  0.6533 -0.1747  0.3933
  155SAPE   C3217215   2.627   0.841  29.022  0.2039 -0.7440  0.7462
  155SAPE   H2X17216   2.685   0.812  28.932  3.4124  2.6988  1.4519
  155SAPE   H2Y17217   2.613   0.949  29.003 -0.8328 -1.1117 -0.6976
  155SAPE   C2317218   2.512   1.292  29.147 -1.6493  0.0984  0.7107
  155SAPE   H3R17219   2.539   1.326  29.045  0.9984 -1.4678  0.8180
  155SAPE   H3S17220   2.443   1.370  29.187 -0.1830  2.3400 -0.8716
  155SAPE   C2417221   2.448   1.154  29.153 -0.0098  0.2009  0.0264
  155SAPE   H4R17222   2.529   1.084  29.121  0.9929  1.5790 -0.5641
  155SAPE   H4S17223   2.379   1.143  29.067 -0.4891 -2.0445  0.6154
  155SAPE   C2517224   2.384   1.110  29.280  0.2751 -0.7066  0.9456
  155SAPE   H5R17225   2.455   1.108  29.364  1.9953  0.1324 -0.4254
  155SAPE   C2617226   2.262   1.073  29.307  0.1842  0.4536 -0.4134
  155SAPE   H6R17227   2.236   1.045  29.410 -1.0117  0.9283 -0.5817
  155SAPE   C2717228   2.145   1.058  29.215  0.1310  0.6605  0.2826
  155SAPE   H7R17229   2.182   1.028  29.115 -3.2764 -2.0019 -0.3701
  155SAPE   H7S17230   2.100   1.158  29.199 -0.7821  0.4402  1.3434
  155SAPE   C2817231   2.037   0.965  29.271  0.1720 -0.0800 -0.1410
  155SAPE   H8R17232   2.024   0.977  29.380  0.4380  0.3081 -0.1524
  155SAPE   C2917233   1.970   0.869  29.205  0.0387  0.7440  0.0165
  155SAPE   H9R17234   1.909   0.796  29.260  3.0645 -1.0749  1.1820
  155SAPE  C21017235   1.986   0.844  29.055 -0.9936 -0.1824 -0.5180
  155SAPE  H10R17236   2.090   0.812  29.033 -0.5535  1.1968 -0.4840
  155SAPE  H10S17237   1.983   0.937  28.995  0.4795  0.5174  0.4485
  155SAPE  C21117238   1.894   0.748  28.991 -0.0038  0.0541  0.1956
  155SAPE  H11R17239   1.820   0.691  29.049  0.1642  0.4147  0.7645
  155SAPE  C21217240   1.915   0.707  28.868  0.3784 -0.3724  0.1876
  155SAPE  H12R17241   1.842   0.633  28.831 -0.1117  1.2173 -2.2406
  155SAPE  C21317242   2.015   0.763  28.767 -0.5146  0.0451  0.4003
  155SAPE  H13R17243   2.112   0.753  28.819 -0.7611  1.8285  1.3047
  155SAPE  H13S17244   2.003   0.872  28.747  1.3384  0.4108  1.0664
  155SAPE  C21417245   2.009   0.681  28.643  0.1011  0.2862  0.1759
  155SAPE  H14R17246   2.001   0.573  28.664 -1.9685  0.7657  2.1774
  155SAPE  C21517247   2.025   0.719  28.514  0.9163 -0.0203  0.1624
  155SAPE  H15R17248   2.033   0.641  28.437  1.3051  1.0479 -0.9046
  155SAPE  C21617249   2.035   0.859  28.465 -0.8412 -0.0398 -0.1400
  155SAPE  H16R17250   2.121   0.865  28.395 -3.0377 -1.3082 -3.1640
  155SAPE  H16S17251   2.071   0.921  28.550 -0.1396 -1.8894  0.9872
  155SAPE  C21717252   1.919   0.930  28.402 -0.5546 -0.0421 -0.4158
  155SAPE  H17R17253   1.863   0.862  28.335 -1.1665 -0.5282  0.5592
  155SAPE  H17S17254   1.950   1.020  28.344 -2.4174  1.2995  0.5398
  155SAPE  C21817255   1.813   0.972  28.507 -0.2547  0.0264 -0.1819
  155SAPE  H18R17256   1.869   1.018  28.591 -3.7970  2.5997  0.9909
  155SAPE  H18S17257   1.759   0.884  28.548  0.4365 -1.8818 -3.0644
  155SAPE  C21917258   1.706   1.069  28.442  0.0823 -0.0410  0.0220
  155SAPE  H19R17259   1.642   1.004  28.378 -0.7706 -2.4137  3.0263
  155SAPE  H19S17260   1.743   1.140  28.365 -0.6843  1.0628  0.6490
  155SAPE  C22017261   1.628   1.154  28.538  0.4708  0.2581  0.2441
  155SAPE  H20R17262   1.626   1.088  28.627  0.1320 -1.5920 -1.0681
  155SAPE  H20S17263   1.524   1.173  28.505  0.4058 -0.6526 -0.1187
  155SAPE  H20T17264   1.701   1.237  28.548  0.5761  0.2147 -0.1216
  155SAPE   C3317265   2.489   0.770  29.019  0.0139  0.9082 -0.2164
  155SAPE   H3X17266   2.435   0.834  28.946 -1.1144  2.0340  1.5242
  155SAPE   H3Y17267   2.447   0.774  29.121  2.0595 -0.5358  0.7537
  155SAPE   C3417268   2.489   0.624  28.975 -0.3991  0.0256  0.2545
  155SAPE   H4X17269   2.540   0.572  29.059  1.2383 -0.0851 -0.7663
  155SAPE   H4Y17270   2.564   0.611  28.894  2.2544 -0.9847  2.7116
  155SAPE   C3517271   2.347   0.564  28.974 -0.4461  0.3156  0.9023
  155SAPE   H5X17272   2.360   0.455  28.960  0.9250  0.4983  0.6795
  155SAPE   H5Y17273   2.285   0.600  28.890  2.2403  1.2284 -0.8093
  155SAPE   C3617274   2.277   0.580  29.106 -0.2840 -0.9087  0.4736
  155SAPE   H6X17275   2.264   0.687  29.132 -2.2709 -0.6579 -1.2693
  155SAPE   H6Y17276   2.339   0.540  29.189  1.6822  0.0933 -0.4492
  155SAPE   C3717277   2.140   0.512  29.118  0.0817  0.4798 -0.2595
  155SAPE   H7X17278   2.091   0.519  29.018  0.4017 -0.9344 -0.5300
  155SAPE   H7Y17279   2.070   0.565  29.186 -0.7065 -0.8867  0.0454
  155SAPE   C3817280   2.146   0.362  29.142 -0.2590  0.4439 -0.3823
  155SAPE   H8X17281   2.203   0.299  29.070 -1.0133 -3.5313  2.2072
  155SAPE   H8Y17282   2.046   0.314  29.142  0.6440 -1.5783 -1.5337
  155SAPE   C3917283   2.201   0.317  29.282 -0.1008 -0.2483  0.6503
  155SAPE   H9X17284   2.117   0.335  29.352 -0.4308  2.6822 -0.3369
  155SAPE   H9Y17285   2.282   0.383  29.318  0.5732 -0.1614 -0.9178
  155SAPE  C31017286   2.258   0.175  29.275 -0.5970  1.0495  0.4258
  155SAPE  H10X17287   2.338   0.168  29.198 -0.6450 -2.1103  0.5356
  155SAPE  H10Y17288   2.173   0.113  29.239  0.8855 -0.2747 -0.9214
  155SAPE  C31117289   2.308   0.137  29.416  0.0617  0.3063 -0.6681
  155SAPE  H11X17290   2.395   0.199  29.447 -1.5354  3.0472 -1.3333
  155SAPE  H11Y17291   2.339   0.030  29.414  0.9091  0.5442 -2.3773
  155SAPE  C31217292   2.204   0.143  29.530  0.4902  0.1987  0.3918
  155SAPE  H12X17293   2.157   0.243  29.531  2.9493  1.4283  0.8714
  155SAPE  H12Y17294   2.267   0.124  29.620  0.0250 -3.4881  0.1176
  155SAPE  C31317295   2.088   0.036  29.545 -0.0047  0.5446 -0.1201
  155SAPE  H13X17296   2.012   0.060  29.467  0.2918 -1.1659 -0.9742
  155SAPE  H13Y17297   2.044   0.046  29.647  0.8514  0.6661  0.2488
  155SAPE  C31417298   2.125  -0.118  29.527 -0.0721  0.3793 -0.2794
  155SAPE  H14X17299   2.199  -0.144  29.605 -2.0298 -2.0731  0.8995
  155SAPE  H14Y17300   2.179  -0.135  29.432  1.3553 -2.0993  0.8926
  155SAPE  C31517301   2.004  -0.211  29.520 -0.3867  0.1224 -0.4605
  155SAPE  H15X17302   2.049  -0.309  29.491  2.8205  1.9818 -2.4555
  155SAPE  H15Y17303   1.938  -0.182  29.436 -0.0141  0.4683 -0.6381
  155SAPE  C31617304   1.936  -0.224  29.656  0.5480  0.4663 -0.2810
  155SAPE  H16X17305   1.874  -0.315  29.646  2.4327 -0.8250 -0.8812
  155SAPE  H16Y17306   1.860  -0.146  29.678 -1.7182 -0.7310 -3.2912
  155SAPE  C31717307   2.034  -0.252  29.779  0.2948 -0.1203  0.7614
  155SAPE  H17X17308   1.978  -0.233  29.873 -1.0892 -0.8013  0.1043
  155SAPE  H17Y17309   2.120  -0.183  29.794 -0.1810  0.5062  0.6806
  155SAPE  C31817310   2.097  -0.395  29.766  0.5817 -0.7964  0.3797
  155SAPE  H18X17311   2.199  -0.388  29.722  1.4355  0.5825  2.4433
  155SAPE  H18Y17312   2.033  -0.465  29.709  1.1619 -1.3290  0.3636
  155SAPE  H18Z17313   2.109  -0.438  29.868  1.4470  0.9073  1.0417
  156SAPE     N17314   2.738   2.696  26.188  0.0551  0.5252  0.7455
  156SAPE   HN117315   2.685   2.716  26.101  0.9250  0.0258  0.0861
  156SAPE   HN217316   2.734   2.596  26.215  1.7320  0.4842  0.9508
  156SAPE   HN317317   2.698   2.757  26.262  1.2762  0.3378  1.5908
  156SAPE   C1217318   2.879   2.754  26.167 -0.5704 -0.8034  0.4302
  156SAPE  H12A17319   2.905   2.795  26.267  0.8233  0.8149 -0.5298
  156SAPE  H12B17320   2.876   2.838  26.095  0.1712  0.7492  2.1140
  156SAPE   C1117321   2.973   2.636  26.133 -0.2570 -0.1237 -0.1130
  156SAPE  H11A17322   3.067   2.672  26.087  0.6173 -0.5621  1.2599
  156SAPE  H11B17323   2.919   2.575  26.057 -2.1506 -0.3448  1.3202
  156SAPE     P17324   2.961   2.404  26.258  0.2306 -0.1556  0.0562
  156SAPE   O1317325   3.026   2.343  26.378  0.2669  0.0347  0.2203
  156SAPE   O1417326   2.809   2.419  26.255 -0.2220 -0.6833  0.3643
  156SAPE   O1217327   3.021   2.553  26.238  0.5816 -0.6825 -1.2887
  156SAPE   O1117328   3.014   2.328  26.131  0.5630 -0.4845  0.4203
  156SAPE    C117329   3.149   2.345  26.090 -0.1408 -0.0106  0.0246
  156SAPE    HA17330   3.167   2.446  26.046  0.4462  0.7196  1.8448
  156SAPE    HB17331   3.219   2.339  26.176  0.7715  0.0763 -0.6921
  156SAPE    C217332   3.201   2.240  25.988 -0.2312  0.2206 -0.5102
  156SAPE    HS17333   3.115   2.227  25.918 -0.2984 -2.3738 -0.0508
  156SAPE   O2117334   3.222   2.114  26.059 -0.3369 -0.0217 -0.0941
  156SAPE   C2117335   3.135   2.026  26.049 -0.5257 -0.9363 -0.2872
  156SAPE   O2217336   3.047   2.016  25.968 -0.0570  1.1876  0.2580
  156SAPE   C2217337   3.154   1.939  26.169 -0.4267  0.6933  0.7220
  156SAPE   H2R17338   3.166   1.994  26.265  0.3919  0.6067  0.6821
  156SAPE   H2S17339   3.059   1.882  26.176 -0.1643 -0.2216 -1.9698
  156SAPE    C317340   3.324   2.284  25.908 -1.0527 -0.0546 -1.2701
  156SAPE    HX17341   3.406   2.319  25.974 -0.0689  0.7525 -2.8289
  156SAPE    HY17342   3.297   2.376  25.851 -2.8227  1.7372  2.1818
  156SAPE   O3117343   3.382   2.180  25.826 -0.2920 -0.2218  0.1512
  156SAPE   C3117344   3.301   2.135  25.729  0.6826  0.2589 -0.0154
  156SAPE   O3217345   3.207   2.193  25.685 -0.2962  0.2983  0.2333
  156SAPE   C3217346   3.352   1.996  25.679  0.0667 -0.2210  0.1343
  156SAPE   H2X17347   3.357   1.937  25.773  1.6928  1.8275  1.4141
  156SAPE   H2Y17348   3.451   2.014  25.633 -0.5844  3.7950 -0.0952
  156SAPE   C2317349   3.277   1.844  26.158  0.8681 -0.0822 -0.0583
  156SAPE   H3R17350   3.291   1.794  26.256 -1.3289  1.4622  1.1401
  156SAPE   H3S17351   3.367   1.907  26.142  0.7394 -0.3837 -2.3244
  156SAPE   C2417352   3.272   1.755  26.033  0.5163 -0.7165  0.9026
  156SAPE   H4R17353   3.283   1.813  25.939  1.0183 -1.4008  0.5326
  156SAPE   H4S17354   3.172   1.706  26.032  0.8265 -1.3814  1.8752
  156SAPE   C2517355   3.374   1.650  26.037 -0.6994 -0.4682  0.3011
  156SAPE   H5R17356   3.394   1.598  26.132  2.5275  0.2888  0.1294
  156SAPE   C2617357   3.469   1.620  25.941 -0.0410 -0.1383  0.4900
  156SAPE   H6R17358   3.527   1.529  25.964  2.1730  1.8626  3.5674
  156SAPE   C2717359   3.487   1.679  25.802 -0.1466 -0.3654 -0.3549
  156SAPE   H7R17360   3.525   1.783  25.812 -2.9476  0.9022 -1.6888
  156SAPE   H7S17361   3.392   1.687  25.744  0.5321 -2.6895 -1.9492
  156SAPE   C2817362   3.586   1.594  25.715 -0.3051 -0.2601 -0.5773
  156SAPE   H8R17363   3.575   1.486  25.727  0.4141 -0.1300  1.6751
  156SAPE   C2917364   3.677   1.642  25.637  0.3926  0.5263  0.1536
  156SAPE   H9R17365   3.735   1.574  25.574 -1.4198 -0.8464 -0.1314
  156SAPE  C21017366   3.702   1.789  25.597  0.0334  0.1066  0.7769
  156SAPE  H10R17367   3.606   1.845  25.603  1.4181  2.7717 -0.2714
  156SAPE  H10S17368   3.738   1.794  25.492  1.1345  3.6500  1.1858
  156SAPE  C21117369   3.811   1.861  25.681 -0.0502  0.4525  0.0840
  156SAPE  H11R17370   3.864   1.785  25.740  1.7487  0.4429 -1.4654
  156SAPE  C21217371   3.863   1.978  25.660  0.6410  0.3520 -0.3159
  156SAPE  H12R17372   3.930   2.018  25.737  0.0170 -0.2338  0.5499
  156SAPE  C21317373   3.816   2.086  25.568 -0.0598  0.5274  0.0802
  156SAPE  H13R17374   3.818   2.041  25.466 -2.9492 -1.6365  0.8525
  156SAPE  H13S17375   3.892   2.167  25.575  0.0787  0.2727  3.1233
  156SAPE  C21417376   3.678   2.148  25.576 -0.2716  0.3650 -0.1322
  156SAPE  H14R17377   3.621   2.142  25.670  1.7601  3.0742  1.4308
  156SAPE  C21517378   3.616   2.218  25.480 -0.3659  0.8995  0.3719
  156SAPE  H15R17379   3.523   2.274  25.498 -0.3595  1.6683 -1.7391
  156SAPE  C21617380   3.689   2.252  25.353  0.1874 -0.3377 -0.0447
  156SAPE  H16R17381   3.784   2.194  25.347 -0.0489 -0.5986 -1.8558
  156SAPE  H16S17382   3.712   2.360  25.359  2.0543 -0.7584  2.2686
  156SAPE  C21717383   3.630   2.216  25.216  0.4247  0.2900  0.1320
  156SAPE  H17R17384   3.594   2.112  25.231  1.2967 -0.0039  0.2175
  156SAPE  H17S17385   3.704   2.216  25.134 -1.2114 -0.5510 -1.4156
  156SAPE  C21817386   3.516   2.303  25.152  0.2387  0.0135  0.1442
  156SAPE  H18R17387   3.560   2.395  25.109 -0.9229 -0.3558 -1.9476
  156SAPE  H18S17388   3.447   2.334  25.234  0.9949  0.1517  0.7386
  156SAPE  C21917389   3.425   2.226  25.063 -0.4001 -0.2130 -0.3052
  156SAPE  H19R17390   3.492   2.165  24.999 -1.5702 -1.1832 -0.6539
  156SAPE  H19S17391   3.362   2.289  24.998  0.6461 -0.5679 -1.7109
  156SAPE  C22017392   3.341   2.125  25.133 -0.5003  0.0963  0.0765
  156SAPE  H20R17393   3.394   2.059  25.205  0.1886  1.2950  0.7086
  156SAPE  H20S17394   3.294   2.059  25.057 -1.7174  0.3817  0.5677
  156SAPE  H20T17395   3.262   2.177  25.192  0.1293  1.2067 -0.0308
  156SAPE   C3317396   3.248   1.948  25.578  0.5780 -0.0887 -0.2686
  156SAPE   H3X17397   3.293   1.856  25.533 -2.3002 -1.1634 -1.1570
  156SAPE   H3Y17398   3.220   2.018  25.497  1.0656  0.3197 -0.0856
  156SAPE   C3417399   3.116   1.885  25.635 -0.0879  0.0890  0.2264
  156SAPE   H4X17400   3.058   1.957  25.696  1.8586  3.2209 -1.3921
  156SAPE   H4Y17401   3.140   1.786  25.679  0.1839 -0.4447 -1.0500
  156SAPE   C3517402   3.013   1.869  25.520 -0.2295 -0.1057  0.9148
  156SAPE   H5X17403   2.982   1.965  25.475  2.6570 -0.1172 -1.3783
  156SAPE   H5Y17404   2.923   1.831  25.573 -0.0249  0.2991  1.5638
  156SAPE   C3617405   3.046   1.773  25.413 -0.8068  1.4401 -0.0461
  156SAPE   H6X17406   3.028   1.670  25.451  0.4178  0.4788 -1.8714
  156SAPE   H6Y17407   3.153   1.776  25.382 -0.1185  0.4117  2.0046
  156SAPE   C3717408   2.964   1.780  25.282  0.3569  0.2067  0.1857
  156SAPE   H7X17409   2.995   1.694  25.219  3.1176  0.8069  0.6149
  156SAPE   H7Y17410   2.994   1.875  25.234  3.0434 -0.5640  0.1941
  156SAPE   C3817411   2.812   1.757  25.300 -0.4407 -0.9961 -0.3688
  156SAPE   H8X17412   2.769   1.843  25.356 -1.5867 -0.8777 -1.4099
  156SAPE   H8Y17413   2.790   1.661  25.352  0.6016 -1.2463 -0.3646
  156SAPE   C3917414   2.748   1.746  25.166 -0.0274 -0.6158 -1.1738
  156SAPE   H9X17415   2.801   1.669  25.105  0.3423 -0.8714 -0.5352
  156SAPE   H9Y17416   2.758   1.836  25.102 -1.0851  0.0415 -0.4466
  156SAPE  C31017417   2.603   1.702  25.174 -0.2336  0.5963  0.2001
  156SAPE  H10X17418   2.599   1.629  25.258 -0.2611  0.2104 -0.1324
  156SAPE  H10Y17419   2.575   1.644  25.083  2.0127  1.3182 -1.0329
  156SAPE  C31117420   2.503   1.813  25.205 -0.2199 -0.6853 -0.0411
  156SAPE  H11X17421   2.488   1.869  25.111  0.3631  0.3706  0.4668
  156SAPE  H11Y17422   2.536   1.882  25.286  0.1244 -0.7015 -0.1650
  156SAPE  C31217423   2.369   1.775  25.266  0.1271  0.3923  0.3547
  156SAPE  H12X17424   2.380   1.734  25.369  0.7399 -1.5747 -0.4432
  156SAPE  H12Y17425   2.334   1.695  25.197  0.3550 -0.6721  1.4250
  156SAPE  C31317426   2.264   1.893  25.273 -0.2955  0.3605  0.4386
  156SAPE  H13X17427   2.317   1.988  25.294 -2.0671  2.0504 -2.0511
  156SAPE  H13Y17428   2.196   1.857  25.353 -2.9978  0.8799 -1.4484
  156SAPE  C31417429   2.192   1.915  25.145  0.7170 -0.0518  0.7749
  156SAPE  H14X17430   2.160   1.822  25.093 -0.2977  0.9912 -0.5393
  156SAPE  H14Y17431   2.258   1.968  25.073 -0.0246  2.1288  1.6391
  156SAPE  C31517432   2.058   1.993  25.158  0.3174  0.8190 -0.6024
  156SAPE  H15X17433   2.079   2.088  25.213  0.7014  1.3309 -1.6076
  156SAPE  H15Y17434   1.992   1.930  25.221  1.2816 -1.2387 -1.5783
  156SAPE  C31617435   1.991   2.022  25.026 -0.4261 -0.0773  0.1543
  156SAPE  H16X17436   1.912   2.099  25.033 -1.1549 -0.5925 -1.6808
  156SAPE  H16Y17437   1.939   1.933  24.984 -0.6467  0.4282 -0.6634
  156SAPE  C31717438   2.082   2.075  24.907  0.7833 -0.8037  0.4273
  156SAPE  H17X17439   2.152   2.000  24.864 -0.7976 -1.6194 -0.7945
  156SAPE  H17Y17440   2.141   2.152  24.962  0.7822 -0.8427  0.4830
  156SAPE  C31817441   2.003   2.129  24.784 -0.0630 -0.0220  0.4345
  156SAPE  H18X17442   2.064   2.115  24.692 -0.9649 -1.6535  0.0441
  156SAPE  H18Y17443   1.985   2.236  24.809 -1.7350 -0.6765  2.3057
  156SAPE  H18Z17444   1.918   2.059  24.771  0.1861 -0.0828 -1.0404
  157SAPE     N17445   3.369   1.199  28.570 -0.3143  0.4694 -0.4303
  157SAPE   HN117446   3.275   1.201  28.524  0.4504 -1.7831 -2.2957
  157SAPE   HN217447   3.393   1.107  28.613  1.0666  1.6492  1.4358
  157SAPE   HN317448   3.374   1.277  28.638 -3.0663  2.6519 -2.4486
  157SAPE   C1217449   3.472   1.209  28.467 -0.3446 -0.1058 -0.1151
  157SAPE  H12A17450   3.520   1.110  28.451  0.5917  0.0654  1.4673
  157SAPE  H12B17451   3.558   1.267  28.505 -0.6231 -0.0879  0.5133
  157SAPE   C1117452   3.422   1.276  28.331  0.0322  0.0444 -0.3116
  157SAPE  H11A17453   3.331   1.225  28.293  0.1900  0.7496 -1.7188
  157SAPE  H11B17454   3.502   1.269  28.254 -0.0270  1.9234 -0.6000
  157SAPE     P17455   3.287   1.499  28.296  0.1754 -0.7054  0.4352
  157SAPE   O1317456   3.161   1.427  28.312  0.2697 -0.7007  0.4864
  157SAPE   O1417457   3.276   1.637  28.349 -0.2728 -0.0951 -0.1253
  157SAPE   O1217458   3.401   1.419  28.354 -0.1885 -0.3272  0.4748
  157SAPE   O1117459   3.320   1.508  28.143  0.4202  0.2737 -0.5104
  157SAPE    C117460   3.393   1.608  28.081 -0.9250  0.3104  0.3628
  157SAPE    HA17461   3.348   1.629  27.981  0.2857  1.6723  0.0710
  157SAPE    HB17462   3.382   1.706  28.131 -0.5781  0.7128 -0.3431
  157SAPE    C217463   3.537   1.569  28.058 -1.1144 -0.3639  0.2102
  157SAPE    HS17464   3.571   1.650  27.990 -0.4348 -1.2982 -0.5707
  157SAPE   O2117465   3.558   1.430  28.019 -0.5311 -0.1529 -0.4617
  157SAPE   C2117466   3.529   1.404  27.895 -0.4594 -0.2433 -0.6560
  157SAPE   O2217467   3.487   1.480  27.810  0.3613  0.3997  0.4566
  157SAPE   C2217468   3.561   1.254  27.879  0.0807 -0.9402  0.4467
  157SAPE   H2R17469   3.484   1.197  27.934  1.1051 -1.0830  1.7788
  157SAPE   H2S17470   3.560   1.239  27.768  1.6961 -0.3467  0.3278
  157SAPE    C317471   3.639   1.599  28.182 -0.2797  0.3622  0.2877
  157SAPE    HX17472   3.640   1.513  28.252 -1.1907 -1.6477 -2.0040
  157SAPE    HY17473   3.580   1.684  28.222 -2.8190 -0.9884 -0.3532
  157SAPE   O3117474   3.772   1.638  28.135  0.6921  0.5142  0.4375
  157SAPE   C3117475   3.808   1.751  28.192 -0.1941  0.0009 -0.1612
  157SAPE   O3217476   3.748   1.807  28.283  0.0664  0.1627  0.1909
  157SAPE   C3217477   3.927   1.800  28.121  0.0911 -0.6007 -0.1609
  157SAPE   H2X17478   3.941   1.910  28.126  2.9312 -0.6390 -3.5188
  157SAPE   H2Y17479   3.922   1.778  28.013 -0.5684 -2.1509  0.1669
  157SAPE   C2317480   3.698   1.214  27.942  1.0197 -0.1432 -0.1202
  157SAPE   H3R17481   3.704   1.103  27.939  2.0212 -0.0965 -0.2918
  157SAPE   H3S17482   3.710   1.248  28.047  3.4742  1.3611 -0.7921
  157SAPE   C2417483   3.812   1.273  27.865  0.0161  0.1013 -0.2695
  157SAPE   H4R17484   3.800   1.251  27.757 -0.8272 -0.9641  0.0215
  157SAPE   H4S17485   3.903   1.215  27.892 -1.1816 -1.1722  1.2586
  157SAPE   C2517486   3.835   1.417  27.898 -0.0047  0.6330  0.1814
  157SAPE   H5R17487   3.831   1.451  28.003 -0.6902  2.4048 -0.3783
  157SAPE   C2617488   3.838   1.523  27.809 -0.6020  0.6501  0.2262
  157SAPE   H6R17489   3.869   1.623  27.842  1.6326  0.8495 -2.1873
  157SAPE   C2717490   3.839   1.513  27.655 -0.0371 -0.3106 -0.9644
  157SAPE   H7R17491   3.766   1.580  27.605 -0.2070 -1.0002 -1.6740
  157SAPE   H7S17492   3.811   1.410  27.622  1.3365 -2.0474  2.8108
  157SAPE   C2817493   3.984   1.521  27.607  0.1089 -0.2365  0.4755
  157SAPE   H8R17494   4.050   1.471  27.680 -0.8877 -0.3637  1.3118
  157SAPE   C2917495   4.043   1.597  27.511  0.5964  0.3618  0.2937
  157SAPE   H9R17496   4.153   1.583  27.509  0.5772 -0.0404  1.3825
  157SAPE  C21017497   3.979   1.686  27.405 -0.3925  0.2339 -0.1531
  157SAPE  H10R17498   3.895   1.740  27.454  0.1676  1.0422 -0.0683
  157SAPE  H10S17499   3.927   1.620  27.332 -0.0340 -0.2919  0.0565
  157SAPE  C21117500   4.072   1.793  27.342  1.0164 -0.2998  0.2668
  157SAPE  H11R17501   4.042   1.898  27.353  1.1646 -0.0073 -1.8464
  157SAPE  C21217502   4.176   1.756  27.262  0.0913  0.4447  0.2385
  157SAPE  H12R17503   4.224   1.841  27.213 -1.3742  1.5558  0.6671
  157SAPE  C21317504   4.223   1.619  27.228  0.2855 -0.0736  0.6630
  157SAPE  H13R17505   4.210   1.609  27.118 -2.9409 -0.7048  0.9869
  157SAPE  H13S17506   4.152   1.541  27.262 -1.0934 -0.1896 -2.1588
  157SAPE  C21417507   4.364   1.584  27.276 -0.0281  1.0946  0.6895
  157SAPE  H14R17508   4.380   1.605  27.383  4.2131  2.8703 -0.0868
  157SAPE  C21517509   4.462   1.533  27.205  0.6240  0.0758  0.0528
  157SAPE  H15R17510   4.562   1.517  27.248  0.4335 -1.2766  0.0263
  157SAPE  C21617511   4.450   1.498  27.065 -0.3868 -0.2219  0.9071
  157SAPE  H16R17512   4.349   1.478  27.022  0.2680 -0.4375 -0.5970
  157SAPE  H16S17513   4.509   1.407  27.041 -0.8535 -0.1080 -0.7991
  157SAPE  C21717514   4.502   1.594  26.954 -0.2427 -0.1438  0.3175
  157SAPE  H17R17515   4.427   1.675  26.946  0.4791  0.3903 -1.4881
  157SAPE  H17S17516   4.498   1.538  26.858 -5.0862  1.5245 -0.7221
  157SAPE  C21817517   4.645   1.639  26.981 -0.3406 -0.1934  0.2203
  157SAPE  H18R17518   4.705   1.551  27.015 -1.1156 -1.2449 -1.0354
  157SAPE  H18S17519   4.647   1.703  27.071 -1.0390 -1.4540  1.1647
  157SAPE  C21917520   4.702   1.716  26.861 -0.4116  0.1828 -0.1734
  157SAPE  H19R17521   4.629   1.791  26.824 -1.6308 -1.0686 -0.3775
  157SAPE  H19S17522   4.718   1.651  26.773  2.1650  0.3514  0.1097
  157SAPE  C22017523   4.838   1.788  26.896 -0.4359 -0.1445  0.3022
  157SAPE  H20R17524   4.896   1.834  26.814  1.3692  2.5349  2.8726
  157SAPE  H20S17525   4.905   1.711  26.940  0.5724 -0.8638 -2.3245
  157SAPE  H20T17526   4.811   1.870  26.965 -0.4731 -0.2937  0.4645
  157SAPE   C3317527   4.068   1.745  28.171  0.2679  0.3400  0.1817
  157SAPE   H3X17528   4.140   1.744  28.086  0.7042 -1.9385  0.5179
  157SAPE   H3Y17529   4.050   1.635  28.175 -1.3736  0.6208  1.1882
  157SAPE   C3417530   4.116   1.816  28.298 -0.2016  0.9417 -0.0129
  157SAPE   H4X17531   4.029   1.858  28.353  0.4343  2.1815  0.0707
  157SAPE   H4Y17532   4.185   1.900  28.274 -0.0628  1.9309  3.3748
  157SAPE   C3517533   4.195   1.721  28.403 -0.0631 -0.3745  0.5357
  157SAPE   H5X17534   4.240   1.789  28.478 -3.3396  1.5513  0.9576
  157SAPE   H5Y17535   4.281   1.664  28.362 -0.3163 -0.3932  0.0122
  157SAPE   C3617536   4.102   1.623  28.483 -0.0936  0.0848  0.1276
  157SAPE   H6X17537   4.020   1.585  28.419 -0.0359 -2.1276  1.2761
  157SAPE   H6Y17538   4.057   1.680  28.567  1.5856  2.4059 -0.4269
  157SAPE   C3717539   4.175   1.505  28.545  0.2544 -0.0897 -0.3573
  157SAPE   H7X17540   4.222   1.448  28.462 -0.2538  0.4867 -1.0551
  157SAPE   H7Y17541   4.097   1.438  28.586 -2.0338  4.1445  3.0112
  157SAPE   C3817542   4.287   1.544  28.646 -0.4105  1.0665 -0.5390
  157SAPE   H8X17543   4.247   1.552  28.749  0.5719 -1.9256  0.1923
  157SAPE   H8Y17544   4.336   1.640  28.621  2.2968  0.7728  2.8908
  157SAPE   C3917545   4.395   1.438  28.635  0.6112  0.3961  0.1411
  157SAPE   H9X17546   4.414   1.411  28.529 -1.5039 -1.4459  0.1703
  157SAPE   H9Y17547   4.348   1.345  28.673  0.4934 -0.3982 -1.8391
  157SAPE  C31017548   4.536   1.474  28.681 -0.2081  0.0904 -0.1893
  157SAPE  H10X17549   4.546   1.584  28.666  0.8127 -0.1582 -1.5065
  157SAPE  H10Y17550   4.616   1.414  28.633  0.6923 -0.6265  2.0796
  157SAPE  C31117551   4.568   1.443  28.829  0.0641  0.3072 -0.0662
  157SAPE  H11X17552   4.585   1.334  28.847 -2.1690 -0.2730 -1.1070
  157SAPE  H11Y17553   4.481   1.469  28.893 -0.8259 -0.0058 -1.1102
  157SAPE  C31217554   4.693   1.520  28.871 -0.3499 -0.4119  0.5147
  157SAPE  H12X17555   4.704   1.524  28.981  1.1768  3.0630  0.3711
  157SAPE  H12Y17556   4.669   1.621  28.831  0.6532 -0.8459 -1.2902
  157SAPE  C31317557   4.834   1.484  28.825 -0.2878  0.2853  0.2726
  157SAPE  H13X17558   4.834   1.495  28.715  2.9395  2.2302  0.3442
  157SAPE  H13Y17559   4.849   1.382  28.867 -0.7763 -0.9357 -2.2933
  157SAPE  C31417560   4.942   1.578  28.879  0.0866  0.2154 -0.0881
  157SAPE  H14X17561   4.962   1.576  28.989  1.7462 -1.2680 -0.3647
  157SAPE  H14Y17562   4.903   1.677  28.848  0.8561  0.6783  0.3653
  157SAPE  C31517563   5.077   1.555  28.816  0.7687  0.6460  0.0944
  157SAPE  H15X17564   5.115   1.451  28.825 -0.4531  0.1521 -0.3271
  157SAPE  H15Y17565   5.150   1.629  28.857 -2.0157  2.7540  1.5895
  157SAPE  C31617566   5.079   1.582  28.667  0.5002 -0.2147  0.5016
  157SAPE  H16X17567   5.043   1.687  28.664  0.2344 -0.2655  1.5073
  157SAPE  H16Y17568   5.019   1.511  28.607  1.5952  0.1374 -1.0720
  157SAPE  C31717569   5.224   1.573  28.616  0.3358  0.4808  0.7541
  157SAPE  H17X17570   5.233   1.572  28.505  2.2624  0.7877  0.8746
  157SAPE  H17Y17571   5.264   1.474  28.647 -0.3151  0.3351  1.1299
  157SAPE  C31817572   5.320   1.686  28.664  0.0689  0.2532  0.0325
  157SAPE  H18X17573   5.421   1.682  28.618 -0.7143  2.2094 -2.0718
  157SAPE  H18Y17574   5.336   1.689  28.774 -0.1045 -0.8372  0.0957
  157SAPE  H18Z17575   5.279   1.779  28.620 -2.3587  0.1630  1.8931
  158SAPE     N17576   2.678   1.024  26.265  0.6198  0.6528  0.2404
  158SAPE   HN117577   2.708   1.079  26.183 -1.7087 -0.0915 -1.2240
  158SAPE   HN217578   2.634   0.939  26.226  3.7488 -1.5175  1.0532
  158SAPE   HN317579   2.604   1.082  26.311  0.8082  0.9168  0.2127
  158SAPE   C1217580   2.793   0.988  26.348  0.2236 -0.2613  0.6428
  158SAPE  H12A17581   2.872   0.928  26.296 -0.5768  0.0230 -0.9514
  158SAPE  H12B17582   2.760   0.946  26.445  0.8314 -1.6202  0.2846
  158SAPE   C1117583   2.857   1.122  26.381 -0.7564  0.1279  0.5090
  158SAPE  H11A17584   2.905   1.154  26.287  1.4232 -3.1834  0.3083
  158SAPE  H11B17585   2.951   1.106  26.437  1.3860  2.6686 -2.0716
  158SAPE     P17586   2.776   1.261  26.596 -0.2548  0.0583 -0.1780
  158SAPE   O1317587   2.680   1.365  26.619  0.2126  0.1725 -0.3919
  158SAPE   O1417588   2.785   1.152  26.696  0.1871  0.2575 -0.0277
  158SAPE   O1217589   2.762   1.211  26.448  0.0928  0.1242 -0.0111
  158SAPE   O1117590   2.917   1.329  26.596  0.2432 -0.6688  0.2193
  158SAPE    C117591   2.953   1.426  26.504  0.2200  0.2098  0.3889
  158SAPE    HA17592   2.895   1.426  26.409  1.9854  0.3012 -0.7365
  158SAPE    HB17593   2.928   1.521  26.555 -2.4996 -0.2145 -0.0017
  158SAPE    C217594   3.105   1.411  26.487 -0.4307 -0.3256 -0.0375
  158SAPE    HS17595   3.129   1.303  26.477 -0.1972 -0.4144  1.2762
  158SAPE   O2117596   3.165   1.464  26.605 -0.1643  0.7893  0.8704
  158SAPE   C2117597   3.295   1.414  26.625  0.4230  0.0874  0.2261
  158SAPE   O2217598   3.341   1.326  26.557 -0.0656  0.0707  0.5098
  158SAPE   C2217599   3.357   1.487  26.745 -0.4609 -0.4287 -0.1382
  158SAPE   H2R17600   3.415   1.567  26.694  0.8671 -1.6412 -0.6078
  158SAPE   H2S17601   3.295   1.532  26.825  0.7084  2.5293 -0.7573
  158SAPE    C317602   3.154   1.485  26.363  0.4525 -0.3855 -0.4251
  158SAPE    HX17603   3.153   1.593  26.390 -4.2750 -0.8265  2.4314
  158SAPE    HY17604   3.076   1.471  26.285  0.4623 -2.9640 -0.0669
  158SAPE   O3117605   3.284   1.453  26.322  0.3788  0.2837  0.2071
  158SAPE   C3117606   3.304   1.339  26.249 -0.0335  0.0715  0.2689
  158SAPE   O3217607   3.206   1.276  26.203 -0.6898  0.7562  0.5942
  158SAPE   C3217608   3.448   1.311  26.220  0.1962 -0.1476 -0.9211
  158SAPE   H2X17609   3.494   1.288  26.318 -0.1880 -0.0524 -0.7174
  158SAPE   H2Y17610   3.500   1.399  26.177  0.3211  0.5059  0.5224
  158SAPE   C2317611   3.466   1.407  26.826  0.5232 -0.3364  0.2018
  158SAPE   H3R17612   3.496   1.481  26.904 -0.4860 -0.7242  0.9812
  158SAPE   H3S17613   3.543   1.365  26.758 -0.5250 -0.3287 -1.0399
  158SAPE   C2417614   3.423   1.289  26.913 -0.2392  0.5257  0.5005
  158SAPE   H4R17615   3.378   1.215  26.844  2.7858  0.4261 -1.5294
  158SAPE   H4S17616   3.349   1.321  26.990 -1.6763 -0.8591 -0.2559
  158SAPE   C2517617   3.548   1.223  26.977 -0.5068  0.2456 -0.4081
  158SAPE   H5R17618   3.570   1.249  27.081  0.8118 -0.9751 -0.3493
  158SAPE   C2617619   3.631   1.130  26.919 -0.2129  0.3652 -0.5199
  158SAPE   H6R17620   3.723   1.106  26.975 -0.5980  0.1299  0.0162
  158SAPE   C2717621   3.629   1.060  26.790  0.2897 -0.3519  0.1314
  158SAPE   H7R17622   3.567   1.121  26.720 -0.3381  0.0132  0.9889
  158SAPE   H7S17623   3.568   0.967  26.796  0.2655 -0.2673  1.4937
  158SAPE   C2817624   3.759   1.035  26.715 -0.0108 -0.4744  0.0476
  158SAPE   H8R17625   3.846   1.092  26.751 -0.1359 -0.5364  0.4601
  158SAPE   C2917626   3.775   0.966  26.609 -0.2326  0.0690 -0.7084
  158SAPE   H9R17627   3.873   0.979  26.561  0.2502  3.1400  0.8740
  158SAPE  C21017628   3.679   0.885  26.529 -0.3037  0.2653 -0.5477
  158SAPE  H10R17629   3.572   0.898  26.554 -0.4719  0.0039 -1.1124
  158SAPE  H10S17630   3.698   0.784  26.572  0.8128  0.2343 -1.0656
  158SAPE  C21117631   3.695   0.900  26.386  0.6701  0.2873  0.5857
  158SAPE  H11R17632   3.703   1.003  26.347  0.5561  0.2289  0.4089
  158SAPE  C21217633   3.707   0.805  26.291  0.1332  0.1791  0.1574
  158SAPE  H12R17634   3.729   0.836  26.188  3.2968 -1.0746  0.3447
  158SAPE  C21317635   3.709   0.655  26.320  0.0174 -0.4862 -0.1436
  158SAPE  H13R17636   3.616   0.607  26.282 -1.1112  1.3273  0.2012
  158SAPE  H13S17637   3.702   0.635  26.429  0.4892  0.3455  0.0480
  158SAPE  C21417638   3.826   0.568  26.268  0.5091 -0.0437  0.7992
  158SAPE  H14R17639   3.834   0.561  26.159  0.2017  2.2583  0.5787
  158SAPE  C21517640   3.921   0.516  26.341 -0.3499 -0.6312 -0.0008
  158SAPE  H15R17641   4.001   0.461  26.289 -0.4177 -1.4286  0.7264
  158SAPE  C21617642   3.944   0.521  26.492 -0.1351 -0.3055  0.5152
  158SAPE  H16R17643   4.000   0.429  26.520  0.4938  0.3371  1.4123
  158SAPE  H16S17644   3.843   0.498  26.530  0.1368 -3.0171 -0.1609
  158SAPE  C21717645   4.010   0.645  26.551  0.5020  0.0771  0.1974
  158SAPE  H17R17646   3.984   0.655  26.659 -3.8551 -2.7255 -0.3220
  158SAPE  H17S17647   3.970   0.736  26.500 -0.4947 -0.7806 -0.5837
  158SAPE  C21817648   4.159   0.645  26.528 -0.0931  0.3529 -0.0714
  158SAPE  H18R17649   4.185   0.629  26.421  2.7647  3.4379 -0.0089
  158SAPE  H18S17650   4.198   0.565  26.594 -0.6195  1.9772  2.3492
  158SAPE  C21917651   4.220   0.772  26.589  0.5057  0.5818 -0.4548
  158SAPE  H19R17652   4.223   0.752  26.698 -0.2360 -0.8291 -0.6741
  158SAPE  H19S17653   4.157   0.858  26.561 -1.4597  0.0115  1.9429
  158SAPE  C22017654   4.360   0.780  26.540 -0.1689 -0.0872 -0.4994
  158SAPE  H20R17655   4.417   0.869  26.574 -1.5202  1.1471 -1.3663
  158SAPE  H20S17656   4.359   0.775  26.429  0.9814  1.8623 -0.6404
  158SAPE  H20T17657   4.415   0.694  26.582 -0.4922 -0.3431 -0.5947
  158SAPE   C3317658   3.465   1.193  26.122  0.5255 -0.7644 -0.0318
  158SAPE   H3X17659   3.424   1.215  26.021 -1.4421  0.8526  1.0538
  158SAPE   H3Y17660   3.406   1.107  26.161 -1.8968 -0.5079 -2.7504
  158SAPE   C3417661   3.606   1.153  26.101 -0.5849  0.1259  0.6419
  158SAPE   H4X17662   3.620   1.043  26.090  1.7521  0.5691 -2.4093
  158SAPE   H4Y17663   3.664   1.184  26.191  0.6620 -0.3488  0.0382
  158SAPE   C3517664   3.671   1.218  25.981  0.0610 -0.5546  0.3638
  158SAPE   H5X17665   3.705   1.322  26.001  2.4639 -1.4815  1.4371
  158SAPE   H5Y17666   3.594   1.221  25.901 -1.2120 -1.3703  1.5208
  158SAPE   C3617667   3.798   1.145  25.926  0.1191 -0.2901  0.1555
  158SAPE   H6X17668   3.782   1.051  25.868  1.1703 -0.9845  0.9535
  158SAPE   H6Y17669   3.863   1.119  26.012  0.1151  1.7690  0.8422
  158SAPE   C3717670   3.877   1.243  25.834 -1.1239 -0.0058  0.4365
  158SAPE   H7X17671   3.816   1.285  25.752 -0.8378  1.1358  0.7861
  158SAPE   H7Y17672   3.916   1.323  25.901 -0.0742 -1.2735  1.3972
  158SAPE   C3817673   4.002   1.187  25.767  0.0846  0.5494  0.1835
  158SAPE   H8X17674   3.968   1.096  25.713 -0.0740  1.3714 -1.1765
  158SAPE   H8Y17675   4.076   1.173  25.848 -1.8615 -2.9949  1.5436
  158SAPE   C3917676   4.049   1.259  25.632 -0.0243 -0.3132 -0.4620
  158SAPE   H9X17677   3.963   1.237  25.565 -1.0600 -0.7597  0.9696
  158SAPE   H9Y17678   4.136   1.209  25.585 -1.3010 -2.6158 -0.5421
  158SAPE  C31017679   4.071   1.411  25.644 -0.4058 -0.6282 -0.0109
  158SAPE  H10X17680   4.163   1.431  25.704 -2.5305  1.0940  2.9770
  158SAPE  H10Y17681   3.987   1.464  25.693  0.9817  1.0451  0.6921
  158SAPE  C31117682   4.080   1.464  25.505 -0.1449 -0.4805  0.3980
  158SAPE  H11X17683   3.997   1.424  25.443  1.1934 -2.8071 -0.0044
  158SAPE  H11Y17684   4.178   1.428  25.466 -0.3891 -0.9479  0.2065
  158SAPE  C31217685   4.077   1.622  25.498  0.0529 -0.5414  0.5076
  158SAPE  H12X17686   3.994   1.652  25.567  1.4137  0.3150  1.8262
  158SAPE  H12Y17687   4.047   1.652  25.396  0.0052 -1.9769  0.0714
  158SAPE  C31317688   4.210   1.688  25.518 -0.4666 -0.5208 -0.0210
  158SAPE  H13X17689   4.252   1.634  25.606 -1.9106 -1.9139 -0.1253
  158SAPE  H13Y17690   4.195   1.795  25.543  0.8028 -0.5147  0.7904
  158SAPE  C31417691   4.303   1.695  25.400  0.8445 -0.2506  0.8874
  158SAPE  H14X17692   4.267   1.769  25.326 -0.4713 -0.5768  1.1723
  158SAPE  H14Y17693   4.294   1.591  25.362  1.9523  1.1512 -3.8642
  158SAPE  C31517694   4.457   1.718  25.430 -0.5246  0.2807  0.5842
  158SAPE  H15X17695   4.496   1.655  25.513  0.8094 -2.5927 -2.0289
  158SAPE  H15Y17696   4.460   1.826  25.458 -0.7186  0.3128  0.4842
  158SAPE  C31617697   4.548   1.695  25.309 -1.1329  0.2329  0.3944
  158SAPE  H16X17698   4.510   1.607  25.254  1.6651 -1.3595  0.8272
  158SAPE  H16Y17699   4.652   1.664  25.329 -1.9132 -1.9055  1.4573
  158SAPE  C31717700   4.563   1.823  25.226 -0.2999 -0.1175  0.3395
  158SAPE  H17X17701   4.597   1.905  25.292  1.2091 -2.3997  2.6238
  158SAPE  H17Y17702   4.464   1.862  25.193 -1.5102 -2.3863  1.0159
  158SAPE  C31817703   4.645   1.806  25.094 -0.0163 -0.2546 -0.0717
  158SAPE  H18X17704   4.590   1.735  25.029 -1.4773  0.5221  0.2828
  158SAPE  H18Y17705   4.738   1.751  25.122 -1.0622 -1.9486  0.2117
  158SAPE  H18Z17706   4.664   1.901  25.039 -0.2174 -0.1080  0.1116
  159SAPE     N17707   1.886   2.327  22.467 -0.5033  0.2163 -0.2154
  159SAPE   HN117708   1.857   2.301  22.370 -3.0552  4.2735 -0.8097
  159SAPE   HN217709   1.934   2.418  22.451  0.1700 -0.2838 -1.0867
  159SAPE   HN317710   1.940   2.257  22.521 -0.6710 -0.3174 -0.7294
  159SAPE   C1217711   1.754   2.364  22.535 -0.1174  0.3970  0.2869
  159SAPE  H12A17712   1.689   2.414  22.461  0.7718  2.3315  0.7560
  159SAPE  H12B17713   1.773   2.438  22.616  0.1333 -0.0686  0.6624
  159SAPE   C1117714   1.687   2.243  22.592 -0.1448  0.0879 -0.3372
  159SAPE  H11A17715   1.589   2.275  22.633 -0.3868 -0.0405 -0.8154
  159SAPE  H11B17716   1.747   2.218  22.682  0.4056  0.8284 -0.4904
  159SAPE     P17717   1.681   1.977  22.527 -0.1574 -0.6103  0.0464
  159SAPE   O1317718   1.555   1.909  22.482 -0.1307  0.0898  0.5165
  159SAPE   O1417719   1.806   1.932  22.467 -0.5696  0.1527 -0.0814
  159SAPE   O1217720   1.677   2.132  22.499  0.1778  0.1449  0.1108
  159SAPE   O1117721   1.701   1.956  22.683 -0.1194  0.4809 -0.0433
  159SAPE    C117722   1.603   1.914  22.779 -0.2420  0.6791  0.1710
  159SAPE    HA17723   1.554   2.003  22.823 -0.7190  1.6368 -2.1451
  159SAPE    HB17724   1.531   1.848  22.726  0.5584  0.6405 -0.8979
  159SAPE    C217725   1.677   1.827  22.877  0.5652 -0.4096  0.0642
  159SAPE    HS17726   1.604   1.773  22.941  2.0046 -0.7561  1.4818
  159SAPE   O2117727   1.767   1.907  22.957  0.4106 -0.3062 -0.2287
  159SAPE   C2117728   1.717   1.992  23.039  0.2892 -0.5514  0.0420
  159SAPE   O2217729   1.600   2.020  23.046  0.6549 -0.0883 -0.7683
  159SAPE   C2217730   1.830   2.042  23.139  0.3105  0.6588 -0.3489
  159SAPE   H2R17731   1.918   2.073  23.077  1.4772  0.5722  1.2049
  159SAPE   H2S17732   1.786   2.134  23.184  1.4550  0.7546  0.6193
  159SAPE    C317733   1.748   1.705  22.805  0.0698 -0.5801 -0.1439
  159SAPE    HX17734   1.842   1.745  22.762 -0.1750  0.3821  0.2002
  159SAPE    HY17735   1.679   1.663  22.729  1.0303 -2.6091  0.0265
  159SAPE   O3117736   1.779   1.601  22.899 -0.2696 -0.4829 -0.0532
  159SAPE   C3117737   1.898   1.622  22.967 -0.1157 -0.9353  0.0284
  159SAPE   O3217738   1.977   1.708  22.938 -0.4145 -0.1754 -0.8434
  159SAPE   C3217739   1.919   1.516  23.081 -0.1711 -0.4079 -0.4493
  159SAPE   H2X17740   2.027   1.503  23.103  0.0082  1.9568  0.3054
  159SAPE   H2Y17741   1.879   1.418  23.046 -2.2248 -0.1800  1.0465
  159SAPE   C2317742   1.867   1.940  23.250  0.0886 -0.1929  0.1001
  159SAPE   H3R17743   1.941   1.981  23.321  1.2413 -0.1947 -1.0626
  159SAPE   H3S17744   1.909   1.844  23.212  0.7672 -1.3794  3.4807
  159SAPE   C2417745   1.751   1.901  23.341 -0.2601 -0.2297 -0.1559
  159SAPE   H4R17746   1.774   1.811  23.403 -0.5695 -0.8153 -0.8719
  159SAPE   H4S17747   1.664   1.869  23.281  0.3358 -1.6301 -0.3173
  159SAPE   C2517748   1.699   2.007  23.439 -0.0640  0.2760  0.5047
  159SAPE   H5R17749   1.632   2.085  23.398  1.5785  2.5507  1.8891
  159SAPE   C2617750   1.744   2.017  23.567 -0.0695  0.5894 -0.3148
  159SAPE   H6R17751   1.713   2.107  23.621 -1.9413  1.1348 -2.1669
  159SAPE   C2717752   1.844   1.913  23.626 -0.7506 -0.6738  0.7988
  159SAPE   H7R17753   1.857   1.811  23.585  1.0643  0.0105 -0.4240
  159SAPE   H7S17754   1.820   1.884  23.731  1.3274  0.3667  1.6292
  159SAPE   C2817755   1.984   1.972  23.629  0.1273  0.1552  0.4767
  159SAPE   H8R17756   2.021   2.015  23.535 -2.2422  1.2233 -0.0390
  159SAPE   C2917757   2.047   1.999  23.747  0.2949  0.1356  0.2302
  159SAPE   H9R17758   2.147   2.044  23.739 -0.0144  0.8035  0.0573
  159SAPE  C21017759   2.014   1.968  23.890  0.1977 -0.0294 -0.3858
  159SAPE  H10R17760   2.109   1.975  23.948 -0.7533 -2.8406  1.7234
  159SAPE  H10S17761   1.981   1.862  23.897 -0.0677 -0.2580 -3.5448
  159SAPE  C21117762   1.907   2.058  23.954 -0.2263 -0.0204  0.2581
  159SAPE  H11R17763   1.873   2.140  23.888 -0.6014 -0.8034 -0.5427
  159SAPE  C21217764   1.845   2.047  24.073 -0.1127 -0.2997  0.3065
  159SAPE  H12R17765   1.768   2.120  24.100  1.0139  1.0725 -0.0438
  159SAPE  C21317766   1.884   1.943  24.179  0.2580  0.0093  0.6003
  159SAPE  H13R17767   1.957   1.877  24.128 -2.0586 -0.9408 -1.6822
  159SAPE  H13S17768   1.792   1.884  24.196  0.9890 -1.6842 -1.0952
  159SAPE  C21417769   1.936   1.998  24.308 -0.2681  0.0579 -0.5714
  159SAPE  H14R17770   1.999   2.088  24.305  0.7726 -0.6675 -1.0373
  159SAPE  C21517771   1.914   1.943  24.428  0.6867 -0.8081  0.2206
  159SAPE  H15R17772   1.963   1.997  24.511 -0.1322 -0.3109  0.3892
  159SAPE  C21617773   1.831   1.826  24.469 -0.4905 -0.0599 -0.1290
  159SAPE  H16R17774   1.877   1.730  24.434  0.7243  0.6322 -0.4936
  159SAPE  H16S17775   1.728   1.836  24.427 -1.6258  0.5158  2.6299
  159SAPE  C21717776   1.805   1.812  24.622  0.1869 -0.3635 -0.1868
  159SAPE  H17R17777   1.742   1.897  24.657 -0.6354  0.2044 -2.8182
  159SAPE  H17S17778   1.905   1.808  24.669 -0.0975 -1.5856  0.3454
  159SAPE  C21817779   1.730   1.687  24.672 -0.2345 -0.0610 -0.0861
  159SAPE  H18R17780   1.626   1.681  24.632 -0.1312  1.4356 -0.6454
  159SAPE  H18S17781   1.740   1.691  24.782 -0.0366  0.7346 -0.1283
  159SAPE  C21917782   1.795   1.552  24.631 -0.3293  0.9319 -0.2859
  159SAPE  H19R17783   1.892   1.574  24.582 -1.4608 -2.3114 -4.5244
  159SAPE  H19S17784   1.739   1.500  24.551 -0.6495  1.8929 -0.7062
  159SAPE  C22017785   1.802   1.449  24.744 -0.3760 -0.3033  0.5014
  159SAPE  H20R17786   1.702   1.420  24.785 -0.0957 -0.2256  1.2397
  159SAPE  H20S17787   1.874   1.472  24.824 -0.8514  0.5870  0.6795
  159SAPE  H20T17788   1.843   1.355  24.700  0.1407  0.6580 -1.1751
  159SAPE   C3317789   1.828   1.547  23.210 -0.1746  0.1705  0.4826
  159SAPE   H3X17790   1.717   1.543  23.207 -0.1910 -2.3551  1.8812
  159SAPE   H3Y17791   1.860   1.648  23.244 -1.9464  0.7315  0.5802
  159SAPE   C3417792   1.882   1.441  23.309  0.0867 -0.2240 -0.1132
  159SAPE   H4X17793   1.947   1.374  23.249 -1.0209 -2.3663  0.9710
  159SAPE   H4Y17794   1.808   1.375  23.360  2.3795 -0.2196  3.6231
  159SAPE   C3517795   1.970   1.499  23.426  0.1936  0.3595  0.3666
  159SAPE   H5X17796   1.927   1.596  23.457  0.0024  0.2424  0.4670
  159SAPE   H5Y17797   2.071   1.526  23.387 -0.5255 -0.1340 -2.0026
  159SAPE   C3617798   1.973   1.412  23.549  0.0041  1.1092  0.3097
  159SAPE   H6X17799   2.015   1.315  23.517  1.4131  1.4191  1.1136
  159SAPE   H6Y17800   1.866   1.398  23.576  0.1007  0.2958  0.2855
  159SAPE   C3717801   2.037   1.481  23.671  0.5879  0.7126  0.4621
  159SAPE   H7X17802   2.027   1.591  23.664  0.4604  0.7102  0.5888
  159SAPE   H7Y17803   2.142   1.453  23.691  0.2637 -0.0802  1.1266
  159SAPE   C3817804   1.973   1.441  23.806 -0.0642 -0.4394  0.4362
  159SAPE   H8X17805   1.989   1.337  23.841  1.7904 -0.5748 -0.6885
  159SAPE   H8Y17806   1.863   1.452  23.793  0.1753 -1.1379 -3.4719
  159SAPE   C3917807   2.031   1.535  23.910  0.8582  1.1198  0.2265
  159SAPE   H9X17808   1.982   1.633  23.892  0.0517  0.3468 -2.2969
  159SAPE   H9Y17809   2.142   1.534  23.896  0.6858  0.9627 -1.4339
  159SAPE  C31017810   1.992   1.496  24.058  0.2463  0.3400 -0.2668
  159SAPE  H10X17811   2.027   1.391  24.064 -0.4311 -0.0270 -2.0969
  159SAPE  H10Y17812   1.881   1.495  24.062  0.2267  0.0525 -0.8456
  159SAPE  C31117813   2.046   1.585  24.165 -1.1649 -0.4121 -0.6954
  159SAPE  H11X17814   1.985   1.677  24.167 -1.4219 -0.5843 -0.6390
  159SAPE  H11Y17815   2.152   1.603  24.134 -1.0615 -0.1766 -0.2318
  159SAPE  C31217816   2.042   1.512  24.298  0.3675 -0.4539  0.3611
  159SAPE  H12X17817   2.085   1.412  24.275 -1.6133 -1.0527 -1.0794
  159SAPE  H12Y17818   1.938   1.499  24.336  0.6876 -0.3396  1.2911
  159SAPE  C31317819   2.134   1.562  24.406  0.1579  0.1811  0.4261
  159SAPE  H13X17820   2.087   1.649  24.456 -0.5429 -0.4904  0.9507
  159SAPE  H13Y17821   2.228   1.590  24.354  0.0056 -1.1110 -0.5853
  159SAPE  C31417822   2.168   1.447  24.501  0.0281 -0.0124 -0.3647
  159SAPE  H14X17823   2.214   1.366  24.441 -0.0127  0.0850 -0.5271
  159SAPE  H14Y17824   2.081   1.391  24.543  1.0204 -1.6779 -0.4515
  159SAPE  C31517825   2.271   1.489  24.605 -0.3424  0.4145  0.0980
  159SAPE  H15X17826   2.350   1.544  24.551  0.4899  0.1507  1.0072
  159SAPE  H15Y17827   2.333   1.403  24.638  3.4028  1.5056 -3.3691
  159SAPE  C31617828   2.229   1.575  24.729 -0.1056  0.2057  0.6368
  159SAPE  H16X17829   2.147   1.522  24.781  0.7703 -1.2869  0.5563
  159SAPE  H16Y17830   2.189   1.677  24.714 -2.5599 -0.9332 -1.2809
  159SAPE  C31717831   2.342   1.579  24.834 -0.0009  0.0257  0.0732
  159SAPE  H17X17832   2.411   1.492  24.828  0.8251  0.4993  1.8614
  159SAPE  H17Y17833   2.300   1.580  24.937  3.4613  2.2082  1.6835
  159SAPE  C31817834   2.423   1.706  24.822 -0.5226 -0.4057 -0.3849
  159SAPE  H18X17835   2.474   1.710  24.723 -0.6995  0.8239 -0.4373
  159SAPE  H18Y17836   2.496   1.721  24.904 -2.2219  1.2884  0.9215
  159SAPE  H18Z17837   2.354   1.792  24.838  0.3525  0.1690  0.3950
  160SAPE     N17838   2.630   1.448  25.631  0.2811 -0.5123 -0.4980
  160SAPE   HN117839   2.715   1.504  25.650 -0.3133  0.2215  0.0551
  160SAPE   HN217840   2.631   1.400  25.723  0.0594 -1.0340 -0.7565
  160SAPE   HN317841   2.638   1.387  25.547 -1.2915 -1.2218 -0.1779
  160SAPE   C1217842   2.510   1.543  25.617  0.2133  0.4082  0.2809
  160SAPE  H12A17843   2.529   1.597  25.522  1.7409 -1.9858 -0.8656
  160SAPE  H12B17844   2.513   1.624  25.693 -0.5254  1.6947 -1.0117
  160SAPE   C1117845   2.373   1.470  25.621  0.1148  0.2186  0.2298
  160SAPE  H11A17846   2.374   1.394  25.540  2.1700  0.2955  0.1179
  160SAPE  H11B17847   2.296   1.546  25.598 -0.4181  0.3143  2.2066
  160SAPE     P17848   2.262   1.500  25.851 -0.2759  0.1897  0.4795
  160SAPE   O1317849   2.223   1.425  25.975 -0.5274 -0.1916 -0.8024
  160SAPE   O1417850   2.346   1.621  25.869 -0.6466  0.5678 -0.4892
  160SAPE   O1217851   2.335   1.400  25.746 -0.1482 -0.0413  0.8601
  160SAPE   O1117852   2.133   1.530  25.767 -0.2059 -0.4098  0.4738
  160SAPE    C117853   2.052   1.417  25.721 -0.2017  0.1317 -0.1809
  160SAPE    HA17854   2.081   1.404  25.614  0.9906 -0.7496  0.2245
  160SAPE    HB17855   2.060   1.322  25.778  2.1718 -0.3776 -1.2448
  160SAPE    C217856   1.896   1.446  25.721 -0.0674  0.2271  0.3780
  160SAPE    HS17857   1.841   1.352  25.697  0.0363 -0.0023  1.0099
  160SAPE   O2117858   1.860   1.553  25.635  0.6195  0.0738  0.1285
  160SAPE   C2117859   1.851   1.515  25.505  0.6461  0.1329  0.5243
  160SAPE   O2217860   1.842   1.399  25.471 -0.1838 -0.3144  0.3556
  160SAPE   C2217861   1.839   1.641  25.416  0.4141  1.0807  1.2460
  160SAPE   H2R17862   1.730   1.660  25.418 -0.3386 -2.2130 -1.3760
  160SAPE   H2S17863   1.911   1.723  25.440  3.0494 -0.6486 -0.3414
  160SAPE    C317864   1.844   1.466  25.862 -0.4575 -0.3493  0.4173
  160SAPE    HX17865   1.906   1.548  25.904  0.8697 -0.5912 -0.9715
  160SAPE    HY17866   1.871   1.379  25.926  0.3899  1.1745  2.2302
  160SAPE   O3117867   1.702   1.494  25.867 -0.2464  0.7499  0.2764
  160SAPE   C3117868   1.625   1.400  25.922  0.7547  0.5822  0.1844
  160SAPE   O3217869   1.660   1.292  25.957  0.9738  0.0259 -0.7728
  160SAPE   C3217870   1.485   1.449  25.936 -0.3980  0.7060 -0.2922
  160SAPE   H2X17871   1.440   1.451  25.834 -2.4250  0.6049  0.5406
  160SAPE   H2Y17872   1.482   1.556  25.965 -0.2373  0.5076  0.4591
  160SAPE   C2317873   1.857   1.615  25.257 -0.0696  0.5882 -0.8268
  160SAPE   H3R17874   1.825   1.703  25.198 -1.3880 -1.0738 -2.7068
  160SAPE   H3S17875   1.791   1.531  25.229  0.5249  0.0034 -0.4953
  160SAPE   C2417876   2.007   1.591  25.235  0.4022  0.1109 -0.3512
  160SAPE   H4R17877   2.067   1.538  25.312 -0.2391 -2.2257 -1.3517
  160SAPE   H4S17878   2.052   1.692  25.231 -2.9825  1.7076 -2.4012
  160SAPE   C2517879   2.031   1.531  25.100 -0.2996  0.4035  0.0588
  160SAPE   H5R17880   2.027   1.603  25.017 -0.9534  0.0559 -0.2212
  160SAPE   C2617881   2.068   1.405  25.061 -0.3179 -0.3023 -0.5073
  160SAPE   H6R17882   2.094   1.371  24.960 -2.3836 -3.0351 -0.2451
  160SAPE   C2717883   2.103   1.292  25.156 -0.5945  1.0177 -0.3728
  160SAPE   H7R17884   2.055   1.312  25.254  1.8841  0.9797  0.9304
  160SAPE   H7S17885   2.211   1.294  25.182 -0.2949 -0.6127 -1.3374
  160SAPE   C2817886   2.069   1.156  25.094  0.0353 -0.3648 -0.7786
  160SAPE   H8R17887   2.159   1.092  25.087  0.4002  0.1069 -0.4537
  160SAPE   C2917888   1.955   1.109  25.043  0.2517  0.1201  0.4557
  160SAPE   H9R17889   1.955   1.001  25.021  0.0515 -0.1206  1.5729
  160SAPE  C21017890   1.817   1.166  25.022  0.2084  0.1156 -0.8106
  160SAPE  H10R17891   1.752   1.079  25.001  1.9662 -0.9836 -2.0636
  160SAPE  H10S17892   1.816   1.223  24.926  1.7578  0.4581 -0.6504
  160SAPE  C21117893   1.749   1.224  25.147 -0.4830  0.1590  0.6700
  160SAPE  H11R17894   1.812   1.220  25.237  1.9084 -1.1692 -0.9585
  160SAPE  C21217895   1.626   1.277  25.159  0.7924  0.1441  0.0937
  160SAPE  H12R17896   1.590   1.314  25.256 -0.8351  1.0933 -0.8323
  160SAPE  C21317897   1.528   1.274  25.043  0.0609 -0.5767  0.7170
  160SAPE  H13R17898   1.464   1.185  25.059 -0.4561 -0.5742 -1.0911
  160SAPE  H13S17899   1.581   1.256  24.946 -3.4106 -0.2835 -1.3792
  160SAPE  C21417900   1.433   1.393  25.024  0.0996  0.5567  0.0205
  160SAPE  H14R17901   1.474   1.481  24.971 -3.4219  0.1647 -3.9215
  160SAPE  C21517902   1.296   1.383  25.047 -0.2504 -0.1700  0.6954
  160SAPE  H15R17903   1.235   1.472  25.026 -1.1176 -0.4583  1.9137
  160SAPE  C21617904   1.217   1.271  25.098 -0.3580  0.9271 -0.3386
  160SAPE  H16R17905   1.276   1.233  25.184 -1.3336 -0.0597 -0.0749
  160SAPE  H16S17906   1.209   1.192  25.019  0.7213 -0.6509  1.0448
  160SAPE  C21717907   1.072   1.304  25.135  0.2344 -0.7833  0.2869
  160SAPE  H17R17908   1.026   1.351  25.045  0.2598  0.2279  0.7869
  160SAPE  H17S17909   1.068   1.385  25.211 -1.1105  0.2386 -0.8043
  160SAPE  C21817910   0.989   1.182  25.188  0.5402 -0.1118 -0.4447
  160SAPE  H18R17911   1.050   1.126  25.262 -0.6234  0.7825  1.2488
  160SAPE  H18S17912   0.993   1.107  25.106  3.4339 -1.1262  0.4723
  160SAPE  C21917913   0.847   1.212  25.240  0.2463  0.7104 -0.1190
  160SAPE  H19R17914   0.795   1.259  25.154  0.6542 -0.9548 -1.3295
  160SAPE  H19S17915   0.846   1.275  25.331  0.3309 -1.1483  1.2281
  160SAPE  C22017916   0.781   1.085  25.283  0.3096  0.0365 -0.4816
  160SAPE  H20R17917   0.747   1.013  25.206 -2.0473 -0.5691  1.0067
  160SAPE  H20S17918   0.698   1.115  25.351  0.3901 -0.8856  0.0447
  160SAPE  H20T17919   0.854   1.042  25.354  0.7768  1.9926  0.3010
  160SAPE   C3317920   1.381   1.374  26.019  0.0266 -0.9929 -0.2468
  160SAPE   H3X17921   1.405   1.392  26.126 -2.4078 -0.3301  0.2453
  160SAPE   H3Y17922   1.388   1.267  25.993 -0.9749 -0.9178 -0.8618
  160SAPE   C3417923   1.242   1.414  25.991  0.0010 -0.5961 -0.4772
  160SAPE   H4X17924   1.234   1.399  25.881  1.5488  2.0696 -1.0506
  160SAPE   H4Y17925   1.226   1.524  26.003  3.8378  0.3782 -2.7253
  160SAPE   C3517926   1.141   1.334  26.080  0.4332 -0.2876  0.0491
  160SAPE   H5X17927   1.161   1.366  26.185  0.3999 -0.1162  0.0028
  160SAPE   H5Y17928   1.164   1.225  26.080 -0.5410 -0.5649 -2.6503
  160SAPE   C3617929   0.994   1.338  26.038 -0.8200  0.0201 -0.2182
  160SAPE   H6X17930   0.988   1.422  25.966  1.5020  0.5779  0.1664
  160SAPE   H6Y17931   0.926   1.370  26.120  0.6993  0.7580  0.7927
  160SAPE   C3717932   0.943   1.219  25.954 -0.5270  0.0931  0.7449
  160SAPE   H7X17933   0.833   1.227  25.940 -0.6232  2.6407  2.3863
  160SAPE   H7Y17934   0.955   1.126  26.012 -0.7476 -0.7362 -0.4945
  160SAPE   C3817935   1.027   1.188  25.824  0.1589 -0.1186  0.2016
  160SAPE   H8X17936   1.134   1.166  25.845  0.3042 -2.3371 -2.3515
  160SAPE   H8Y17937   1.027   1.269  25.748  1.4969 -1.4567 -1.3066
  160SAPE   C3917938   0.976   1.055  25.765 -0.4373 -0.1567  0.1477
  160SAPE   H9X17939   0.873   1.082  25.736 -1.0232 -0.2481  2.0403
  160SAPE   H9Y17940   0.963   0.978  25.844 -1.9688 -0.1645 -0.0771
  160SAPE  C31017941   1.061   1.001  25.644  0.0984 -0.3293  0.0603
  160SAPE  H10X17942   1.167   0.989  25.677  0.7954 -1.0206 -2.1967
  160SAPE  H10Y17943   1.063   1.073  25.559  0.4357 -0.1131  0.2497
  160SAPE  C31117944   1.004   0.864  25.588  0.6546 -0.5799  0.2802
  160SAPE  H11X17945   0.904   0.886  25.544  1.3829  0.8694 -0.7331
  160SAPE  H11Y17946   0.995   0.791  25.672 -0.2861 -0.5394  0.2229
  160SAPE  C31217947   1.103   0.795  25.489  0.7517 -1.2367 -0.0389
  160SAPE  H12X17948   1.073   0.689  25.475  1.5056 -1.4987  0.2547
  160SAPE  H12Y17949   1.206   0.804  25.531  0.4134  0.3521  0.5146
  160SAPE  C31317950   1.126   0.870  25.353 -0.5285  0.5259 -0.1062
  160SAPE  H13X17951   1.177   0.967  25.370 -0.2546  0.1510  1.3518
  160SAPE  H13Y17952   1.025   0.872  25.306 -0.1883 -2.1851 -1.1229
  160SAPE  C31417953   1.214   0.789  25.247  0.6088  0.4817 -0.6838
  160SAPE  H14X17954   1.154   0.702  25.215  1.3509  0.6524 -2.7045
  160SAPE  H14Y17955   1.316   0.760  25.280 -0.0726  2.2407  3.6520
  160SAPE  C31517956   1.233   0.871  25.120 -0.0231 -0.0154  1.0082
  160SAPE  H15X17957   1.246   0.976  25.157 -3.1869  0.4480  1.0590
  160SAPE  H15Y17958   1.133   0.873  25.072 -0.7190 -2.3389  2.2346
  160SAPE  C31617959   1.342   0.822  25.027  0.3236 -0.9838  0.2771
  160SAPE  H16X17960   1.305   0.862  24.930  1.3563 -1.0251 -0.1504
  160SAPE  H16Y17961   1.333   0.711  25.026  0.7302 -1.0159 -0.3022
  160SAPE  C31717962   1.487   0.861  25.064 -0.5366  0.0648  0.3252
  160SAPE  H17X17963   1.511   0.830  25.168  1.1254 -0.4522 -0.1856
  160SAPE  H17Y17964   1.490   0.971  25.052 -1.6876  0.0947  0.1557
  160SAPE  C31817965   1.600   0.814  24.971  0.0931  0.3822  0.5365
  160SAPE  H18X17966   1.700   0.834  25.016  0.1756 -0.1539  0.6036
  160SAPE  H18Y17967   1.583   0.862  24.872  2.5709 -2.8562 -1.7197
  160SAPE  H18Z17968   1.605   0.703  24.962  0.0769  0.0925  3.2943
  161SOPE     N17969   1.192   3.289  39.695  0.0797 -0.0205 -0.2823
  161SOPE   HN117970   1.101   3.289  39.645 -0.3486  4.0036  0.1326
  161SOPE   HN217971   1.240   3.376  39.665 -0.7262  0.5024 -0.0870
  161SOPE   HN317972   1.246   3.212  39.651  0.3679 -0.4809  0.8519
  161SOPE   C1217973   1.183   3.263  39.845 -1.0711 -0.0422  0.3436
  161SOPE  H12A17974   1.096   3.316  39.888 -0.6496  2.3475 -1.5423
  161SOPE  H12B17975   1.281   3.299  39.884 -0.1942 -1.0445 -0.8660
  161SOPE   C1117976   1.160   3.113  39.879 -0.2316  0.1102 -0.1137
  161SOPE  H11A17977   1.052   3.090  39.870 -0.5420  1.0447  1.0360
  161SOPE  H11B17978   1.187   3.112  39.987  1.0944  0.5430 -0.4159
  161SOPE     P17979   1.246   2.870  39.833  0.1201  0.1816 -0.3175
  161SOPE   O1317980   1.358   2.807  39.768  0.4107  0.1775  0.4017
  161SOPE   O1417981   1.114   2.825  39.786  0.2289 -0.8424  0.6171
  161SOPE   O1217982   1.245   3.028  39.811 -0.1897  0.0109  0.0747
  161SOPE   O1117983   1.253   2.854  39.991  0.5925  0.6668  0.0927
  161SOPE    C117984   1.220   2.718  40.036 -0.2591  0.0387  0.0427
  161SOPE    HA17985   1.132   2.681  39.979  0.6810  0.1823 -1.5516
  161SOPE    HB17986   1.185   2.726  40.142 -3.1448  0.5515 -0.8542
  161SOPE    C217987   1.338   2.619  40.031  0.3698 -0.5398 -0.2856
  161SOPE    HS17988   1.382   2.640  39.931 -0.9677  4.5123 -0.0745
  161SOPE   O2117989   1.282   2.490  40.044 -0.3462  0.3711  0.0294
  161SOPE   C2117990   1.276   2.423  39.930 -0.0240  0.1012 -0.3466
  161SOPE   O2217991   1.306   2.465  39.819 -0.0079  0.0543  0.4436
  161SOPE   C2217992   1.235   2.282  39.959  0.4780  0.3402 -0.0530
  161SOPE   H2R17993   1.148   2.281  39.890  2.2333 -2.0414 -2.4034
  161SOPE   H2S17994   1.197   2.264  40.062  0.8656 -1.4654 -0.1942
  161SOPE    C317995   1.427   2.636  40.154 -0.1648 -0.7171 -0.1509
  161SOPE    HX17996   1.513   2.569  40.133  0.2578 -0.2196 -0.0300
  161SOPE    HY17997   1.390   2.593  40.249 -0.4808 -1.9966 -0.8405
  161SOPE   O3117998   1.476   2.772  40.175 -0.5724  1.0551 -0.1718
  161SOPE   C3117999   1.564   2.813  40.090 -0.1876 -0.3418  0.5253
  161SOPE   O3218000   1.617   2.754  40.003  0.6468  0.0737  0.1393
  161SOPE   C3218001   1.608   2.953  40.134 -0.7163 -0.8241  1.0332
  161SOPE   H2X18002   1.717   2.956  40.112 -0.7926 -0.1207  0.7231
  161SOPE   H2Y18003   1.588   2.976  40.241  0.5964  0.5598  1.0065
  161SOPE   C2318004   1.348   2.185  39.905 -0.1023 -0.2377 -0.2108
  161SOPE   H3R18005   1.448   2.178  39.951  0.0451 -0.0734 -0.5037
  161SOPE   H3S18006   1.373   2.200  39.798  3.6769  0.3658  0.6475
  161SOPE   C2418007   1.311   2.038  39.903  0.4717  0.4795  0.0573
  161SOPE   H4R18008   1.220   2.006  39.848 -0.1210  1.4150  0.4758
  161SOPE   H4S18009   1.397   1.987  39.853 -0.6007 -0.0067 -1.3753
  161SOPE   C2518010   1.295   1.979  40.045  0.4011 -0.4043  0.1727
  161SOPE   H5R18011   1.326   2.044  40.130 -2.5328 -0.9056  1.7619
  161SOPE   H5S18012   1.189   1.955  40.068 -0.0702 -0.3376 -1.7731
  161SOPE   C2618013   1.374   1.839  40.053 -0.5088  0.5731 -0.6435
  161SOPE   H6R18014   1.339   1.773  39.970 -0.7633  1.3085 -1.1351
  161SOPE   H6S18015   1.481   1.863  40.037 -1.1369  3.4797 -1.0887
  161SOPE   C2718016   1.356   1.775  40.190 -0.1429  0.1900  0.2399
  161SOPE   H7R18017   1.379   1.843  40.275  0.0220 -0.8775  1.0807
  161SOPE   H7S18018   1.249   1.752  40.206 -0.5875  1.6391 -0.4678
  161SOPE   C2818019   1.438   1.644  40.204  0.0994  0.1819  0.4759
  161SOPE   H8R18020   1.409   1.565  40.131 -1.4248  0.2164  1.0034
  161SOPE   H8S18021   1.541   1.682  40.184 -0.2801  2.0858  1.8773
  161SOPE   C2918022   1.436   1.585  40.340  1.2936 -0.1083  0.3939
  161SOPE   H9118023   1.334   1.576  40.379  1.7612 -0.9538  1.4867
  161SOPE  C21018024   1.542   1.545  40.414  0.5138 -0.0230 -0.8463
  161SOPE  H10118025   1.528   1.505  40.515  0.5120  0.7471 -0.5381
  161SOPE  C21118026   1.690   1.537  40.376  0.4382  0.0244 -0.3691
  161SOPE  H11R18027   1.740   1.629  40.411  0.8257 -0.1815 -0.3780
  161SOPE  H11S18028   1.699   1.511  40.268 -2.7608 -0.9977 -0.5103
  161SOPE  C21218029   1.766   1.430  40.457 -0.1802 -0.0914 -0.0924
  161SOPE  H12R18030   1.728   1.328  40.431 -1.6390  0.6800 -1.1336
  161SOPE  H12S18031   1.740   1.441  40.565 -1.5472 -2.0548 -0.1601
  161SOPE  C21318032   1.919   1.440  40.436 -0.4941 -0.2726  0.4872
  161SOPE  H13R18033   1.961   1.360  40.501 -2.9302  0.0720  2.6608
  161SOPE  H13S18034   1.965   1.533  40.477  2.2414 -1.4785  0.3925
  161SOPE  C21418035   1.971   1.427  40.291 -0.0237 -0.3313 -0.3193
  161SOPE  H14R18036   1.921   1.500  40.225 -0.6726 -1.6802 -1.3615
  161SOPE  H14S18037   1.941   1.327  40.251 -1.4089 -0.3542  0.6896
  161SOPE  C21518038   2.118   1.449  40.289 -0.5048 -0.7231 -0.1313
  161SOPE  H15R18039   2.171   1.495  40.375  0.2455 -1.0165 -0.4211
  161SOPE  H15S18040   2.136   1.516  40.202 -0.5337 -0.5597 -0.0104
  161SOPE  C21618041   2.195   1.323  40.251 -0.2411 -0.1209  0.3333
  161SOPE  H16R18042   2.161   1.248  40.326  2.5454 -0.7859  1.0531
  161SOPE  H16S18043   2.303   1.330  40.277  0.1665 -1.1817 -0.9762
  161SOPE  C21718044   2.171   1.272  40.110  0.4142 -0.5519  0.3551
  161SOPE  H17R18045   2.061   1.262  40.095  0.0604  1.2404  1.4981
  161SOPE  H17S18046   2.225   1.176  40.098  0.7213 -0.3623  0.2152
  161SOPE  C21818047   2.219   1.362  39.993  0.0051  0.1058 -0.8946
  161SOPE  H18R18048   2.223   1.329  39.887  0.8802  3.0779 -1.8967
  161SOPE  H18S18049   2.321   1.397  40.018  0.0963 -0.6444 -0.1893
  161SOPE  H18T18050   2.153   1.452  39.990 -2.1389 -1.3449 -0.0054
  161SOPE   C3318051   1.536   3.066  40.054 -0.3527  0.6134 -0.7218
  161SOPE   H3X18052   1.426   3.052  40.065 -0.0198 -0.5764  2.1339
  161SOPE   H3Y18053   1.564   3.070  39.947  1.2683  1.8661 -0.2879
  161SOPE   C3418054   1.575   3.203  40.103  0.4125  0.0173  0.6876
  161SOPE   H4X18055   1.570   3.224  40.212  2.7548  1.3145  0.6059
  161SOPE   H4Y18056   1.521   3.282  40.046 -0.6788 -0.0199  1.6371
  161SOPE   C3518057   1.723   3.227  40.073 -1.1456  0.2307 -0.5819
  161SOPE   H5X18058   1.749   3.191  39.971 -1.5754  0.3337 -0.7302
  161SOPE   H5Y18059   1.788   3.171  40.143  0.0059  1.8538 -0.3070
  161SOPE   C3618060   1.763   3.376  40.072  0.2199  0.2279 -0.4033
  161SOPE   H6X18061   1.754   3.424  40.171 -0.3740 -0.1996 -0.2439
  161SOPE   H6Y18062   1.699   3.435  40.003 -0.1698  0.9363  0.5527
  161SOPE   C3718063   1.913   3.397  40.043 -0.2528 -0.3177  0.3826
  161SOPE   H7X18064   1.935   3.505  40.027  0.1459 -0.3029  0.9731
  161SOPE   H7Y18065   1.933   3.344  39.948  0.3100 -2.4180  1.5964
  161SOPE   C3818066   2.015   3.333  40.149 -0.3039 -0.0848  0.5158
  161SOPE   H8X18067   1.965   3.284  40.235 -1.6934  0.4735  0.0669
  161SOPE   H8Y18068   2.070   3.413  40.204 -2.4254  0.6842  1.6465
  161SOPE   C3918069   2.100   3.215  40.100  0.1099 -0.1756  0.2564
  161SOPE   H9X18070   2.158   3.249  40.011 -2.8469 -0.3931 -1.9200
  161SOPE   H9Y18071   2.039   3.130  40.064  1.4932 -0.5065 -1.3844
  161SOPE  C31018072   2.197   3.156  40.207  0.3472  0.1890  0.5553
  161SOPE  H10X18073   2.150   3.177  40.306 -0.8209 -0.4943  0.1730
  161SOPE  H10Y18074   2.299   3.199  40.207  1.0779 -1.4435 -0.6561
  161SOPE  C31118075   2.200   3.007  40.178  0.1297  0.0426 -0.0162
  161SOPE  H11X18076   2.239   3.002  40.074  2.4737  3.5303  0.5379
  161SOPE  H11Y18077   2.097   2.965  40.185 -0.1521  0.3780 -1.6315
  161SOPE  C31218078   2.291   2.921  40.273  0.2248  0.1034 -0.4484
  161SOPE  H12X18079   2.269   2.951  40.377  0.8553  0.1770 -0.3333
  161SOPE  H12Y18080   2.401   2.935  40.262  0.7922 -1.4665  2.4129
  161SOPE  C31318081   2.261   2.774  40.244 -0.4766  0.4017 -0.4174
  161SOPE  H13X18082   2.290   2.739  40.143  0.3168 -2.6005  0.7350
  161SOPE  H13Y18083   2.151   2.763  40.256 -0.7576  1.6101 -1.7062
  161SOPE  C31418084   2.336   2.676  40.335  0.8242  0.1846  0.1750
  161SOPE  H14X18085   2.314   2.694  40.442 -1.6204  0.7056 -0.3517
  161SOPE  H14Y18086   2.445   2.691  40.319  0.5270  2.7588  0.2801
  161SOPE  C31518087   2.298   2.523  40.313  0.2185  0.4462  0.0090
  161SOPE  H15X18088   2.316   2.507  40.205 -0.8893  2.6307 -0.5482
  161SOPE  H15Y18089   2.191   2.513  40.341 -0.2730  0.6844 -1.7203
  161SOPE  C31618090   2.376   2.435  40.400  0.2127 -0.3709 -0.0971
  161SOPE  H16X18091   2.485   2.455  40.387  0.4186  0.3967  2.2962
  161SOPE  H16Y18092   2.369   2.329  40.365  1.6101 -1.5445  2.8278
  161SOPE  C31718093   2.333   2.429  40.545  0.0892 -0.7271 -0.1921
  161SOPE  H17X18094   2.222   2.423  40.543 -0.1223  2.0752 -1.3281
  161SOPE  H17Y18095   2.345   2.528  40.594  0.1008  0.0224 -1.6414
  161SOPE  C31818096   2.390   2.304  40.624 -0.1515 -1.2292  1.2685
  161SOPE  H18X18097   2.353   2.309  40.728  0.8680 -2.8733  1.7572
  161SOPE  H18Y18098   2.501   2.304  40.620 -0.1701 -2.2738 -1.0357
  161SOPE  H18Z18099   2.349   2.214  40.573 -2.0434  0.4759 -0.4027
  162SOPE     N18100   1.336   2.473  37.124 -0.0785 -0.8010  0.1710
  162SOPE   HN118101   1.244   2.520  37.115  0.1405 -0.4989 -0.5868
  162SOPE   HN218102   1.376   2.439  37.034  2.5021  1.5790  0.2854
  162SOPE   HN318103   1.317   2.390  37.183 -0.2610 -0.9758 -0.1289
  162SOPE   C1218104   1.436   2.560  37.196 -0.0681  0.6027  0.0020
  162SOPE  H12A18105   1.387   2.602  37.287  0.4867 -1.7136  1.4360
  162SOPE  H12B18106   1.476   2.635  37.125 -2.5720  1.2415 -0.8352
  162SOPE   C1118107   1.558   2.487  37.249  0.3310 -0.3153 -0.6100
  162SOPE  H11A18108   1.602   2.547  37.331  0.8790  0.3764 -1.3927
  162SOPE  H11B18109   1.630   2.480  37.165  0.4517  0.6425 -0.5958
  162SOPE     P18110   1.627   2.235  37.296  0.0476  0.2989  0.4841
  162SOPE   O1318111   1.599   2.147  37.182  0.0450 -0.4592  0.1493
  162SOPE   O1418112   1.618   2.176  37.428 -0.2700 -0.2485 -0.0764
  162SOPE   O1218113   1.525   2.354  37.284  0.3764  0.1853  0.5310
  162SOPE   O1118114   1.765   2.307  37.284  0.3613 -0.2705 -0.2456
  162SOPE    C118115   1.871   2.275  37.373 -0.2040  0.3495 -0.0889
  162SOPE    HA18116   1.962   2.262  37.312  0.9603  2.4427  1.0832
  162SOPE    HB18117   1.853   2.177  37.422 -0.6066  1.6724  2.5777
  162SOPE    C218118   1.903   2.375  37.481  0.1028 -0.2656  0.4914
  162SOPE    HS18119   1.803   2.384  37.529 -0.2860  0.0053 -0.3512
  162SOPE   O2118120   1.950   2.494  37.414  0.5437  0.3374 -0.2571
  162SOPE   C2118121   1.896   2.615  37.462  1.1276  0.6662  0.1809
  162SOPE   O2218122   1.822   2.628  37.559  0.0016  0.2240 -0.3149
  162SOPE   C2218123   1.956   2.720  37.375 -0.5589 -0.1654 -0.1052
  162SOPE   H2R18124   1.908   2.716  37.275 -0.2477  1.5897 -0.3454
  162SOPE   H2S18125   2.066   2.706  37.366 -0.6790 -1.7944  0.4626
  162SOPE    C318126   2.005   2.326  37.593 -0.4276 -0.1311 -0.5195
  162SOPE    HX18127   2.089   2.285  37.533  0.9858  1.0720  0.5787
  162SOPE    HY18128   1.964   2.238  37.648  0.7892  0.2040  0.9883
  162SOPE   O3118129   2.039   2.434  37.680  0.0549  0.3924  0.0553
  162SOPE   C3118130   1.954   2.449  37.781  0.1121 -0.0159  1.2287
  162SOPE   O3218131   1.849   2.390  37.798 -0.0903  0.3793  0.2327
  162SOPE   C3218132   2.015   2.560  37.872  0.5369 -0.0055 -0.4979
  162SOPE   H2X18133   2.056   2.636  37.802  1.4655 -0.2770 -0.2603
  162SOPE   H2Y18134   2.107   2.522  37.921  2.1563  1.5195 -2.1670
  162SOPE   C2318135   1.918   2.864  37.428 -0.8306 -0.2613 -0.0463
  162SOPE   H3R18136   1.960   2.856  37.531  2.1141 -1.5125 -1.2416
  162SOPE   H3S18137   1.807   2.866  37.427 -0.8274 -0.0108 -1.2862
  162SOPE   C2418138   1.972   2.982  37.346  0.1829 -0.2603 -0.1997
  162SOPE   H4R18139   2.078   2.962  37.320 -0.4783 -2.2504 -1.6160
  162SOPE   H4S18140   1.919   2.965  37.250 -1.5044  1.6903  0.3069
  162SOPE   C2518141   1.952   3.124  37.408  0.1374  1.2536  0.0464
  162SOPE   H5R18142   1.988   3.193  37.329 -2.5253  1.2675 -1.2391
  162SOPE   H5S18143   1.843   3.140  37.424  0.2697  0.0662  2.7101
  162SOPE   C2618144   2.028   3.152  37.541  0.4758 -0.1627 -0.1984
  162SOPE   H6R18145   1.979   3.097  37.625 -0.0615  0.2444 -0.2403
  162SOPE   H6S18146   2.124   3.096  37.536 -0.6073 -2.0389 -1.3311
  162SOPE   C2718147   2.042   3.299  37.560  0.1213 -0.0209  0.6248
  162SOPE   H7R18148   2.132   3.329  37.502  0.9165 -2.6723  0.3705
  162SOPE   H7S18149   1.955   3.346  37.508 -2.3895 -3.4385  1.3760
  162SOPE   C2818150   2.031   3.347  37.708  0.7281  0.2735 -0.1223
  162SOPE   H8R18151   2.017   3.457  37.702 -0.1058  0.2561  0.9585
  162SOPE   H8S18152   1.945   3.292  37.754  2.2847 -0.6876  1.7968
  162SOPE   C2918153   2.157   3.312  37.787  0.1360 -0.5628 -0.2110
  162SOPE   H9118154   2.158   3.213  37.836 -0.4785 -0.0201  0.9473
  162SOPE  C21018155   2.256   3.397  37.803  0.0623 -0.3949  0.0208
  162SOPE  H10118156   2.335   3.366  37.873 -0.0948  1.5095  1.1379
  162SOPE  C21118157   2.267   3.542  37.762 -0.4264  0.2329 -0.5161
  162SOPE  H11R18158   2.205   3.590  37.841  0.4781 -0.9105  0.9309
  162SOPE  H11S18159   2.219   3.565  37.665  0.3232  0.8279 -0.7583
  162SOPE  C21218160   2.409   3.599  37.749  1.1738  0.1085 -0.2698
  162SOPE  H12R18161   2.398   3.697  37.698 -0.4484 -0.2851 -0.7335
  162SOPE  H12S18162   2.467   3.544  37.673  0.8431  1.2184 -1.3537
  162SOPE  C21318163   2.483   3.606  37.888 -0.0575  0.1107 -0.8854
  162SOPE  H13R18164   2.505   3.501  37.916  0.1747 -0.4646 -3.0702
  162SOPE  H13S18165   2.412   3.643  37.965  1.0412  0.4952 -0.0199
  162SOPE  C21418166   2.594   3.712  37.898 -0.3255 -0.8215 -0.4036
  162SOPE  H14R18167   2.643   3.705  37.998 -1.4617  2.1276  0.4495
  162SOPE  H14S18168   2.557   3.817  37.895 -0.3173 -0.7756  0.7017
  162SOPE  C21518169   2.713   3.694  37.795  0.5880  0.2378 -0.7055
  162SOPE  H15R18170   2.685   3.719  37.691  0.2228 -0.1896 -0.7123
  162SOPE  H15S18171   2.750   3.589  37.805  1.5501  0.5577 -0.8993
  162SOPE  C21618172   2.844   3.779  37.817 -0.2665 -0.6839  0.9860
  162SOPE  H16R18173   2.911   3.776  37.729 -1.9045 -1.7469 -0.2765
  162SOPE  H16S18174   2.906   3.736  37.899 -2.9109 -0.9357  3.0106
  162SOPE  C21718175   2.806   3.930  37.853  0.2360 -0.1807 -0.4565
  162SOPE  H17R18176   2.713   3.942  37.912 -0.9319 -0.2222 -2.2058
  162SOPE  H17S18177   2.792   3.990  37.760  1.1124 -0.9798 -1.1263
  162SOPE  C21818178   2.921   3.998  37.923 -0.0197  0.7609 -0.1954
  162SOPE  H18R18179   2.891   4.091  37.976 -0.0867  0.0489  1.0569
  162SOPE  H18S18180   3.011   4.008  37.859  0.5267  1.3155  0.6462
  162SOPE  H18T18181   2.952   3.936  38.009  1.6206  1.3460 -0.3348
  162SOPE   C3318182   1.910   2.619  37.981 -0.7158  0.2123 -0.0168
  162SOPE   H3X18183   1.879   2.548  38.061 -1.5815  0.8936  0.2676
  162SOPE   H3Y18184   1.823   2.672  37.938  0.2200  1.4341 -0.4678
  162SOPE   C3418185   1.979   2.745  38.043  0.0927 -0.0653 -0.6463
  162SOPE   H4X18186   1.904   2.792  38.110  0.1833  1.1951 -1.4049
  162SOPE   H4Y18187   2.016   2.812  37.963  0.1124  0.3415 -0.3028
  162SOPE   C3518188   2.095   2.707  38.146  0.2154  0.7391  0.5260
  162SOPE   H5X18189   2.164   2.634  38.099 -0.8510 -1.1876  1.8321
  162SOPE   H5Y18190   2.048   2.662  38.236  0.2444 -0.8966 -0.2463
  162SOPE   C3618191   2.172   2.811  38.207  0.7889  0.3022  0.0888
  162SOPE   H6X18192   2.235   2.788  38.295  1.4813  0.7160 -0.2976
  162SOPE   H6Y18193   2.095   2.885  38.238 -0.7884 -1.5074  0.6832
  162SOPE   C3718194   2.277   2.876  38.112  0.0279  0.1394  0.2093
  162SOPE   H7X18195   2.233   2.908  38.016  0.5840 -1.8297 -0.7584
  162SOPE   H7Y18196   2.323   2.778  38.085 -1.3875 -1.6626  3.6459
  162SOPE   C3818197   2.377   2.968  38.166 -0.3563 -0.0911  0.0839
  162SOPE   H8X18198   2.454   2.920  38.230  1.1544 -0.6242 -2.0260
  162SOPE   H8Y18199   2.329   3.046  38.229  1.4879  0.1793  1.2394
  162SOPE   C3918200   2.453   3.027  38.045 -0.9435  0.6316 -0.3851
  162SOPE   H9X18201   2.390   3.084  37.974 -3.2881 -1.2376  0.0548
  162SOPE   H9Y18202   2.508   2.944  37.995  1.3531  1.5439  0.5142
  162SOPE  C31018203   2.581   3.106  38.087  0.6802  0.1109  0.6891
  162SOPE  H10X18204   2.636   3.107  37.991 -4.3442  1.3783 -2.5600
  162SOPE  H10Y18205   2.647   3.052  38.158  3.0829  2.9789  0.8079
  162SOPE  C31118206   2.543   3.242  38.139 -0.4568 -0.0914  0.7396
  162SOPE  H11X18207   2.468   3.237  38.221 -0.6876  0.8576  0.6044
  162SOPE  H11Y18208   2.498   3.301  38.056  2.1013 -0.3168 -0.9153
  162SOPE  C31218209   2.668   3.326  38.178 -1.0416 -0.1593  0.0765
  162SOPE  H12X18210   2.722   3.274  38.260 -1.6604 -0.3428  0.3662
  162SOPE  H12Y18211   2.637   3.430  38.203 -2.4072 -0.1856 -1.3317
  162SOPE  C31318212   2.779   3.348  38.074 -0.0642  0.7606  0.0510
  162SOPE  H13X18213   2.743   3.419  37.997  1.5704 -0.1949 -1.6675
  162SOPE  H13Y18214   2.825   3.252  38.042  1.4326  1.9139 -1.4226
  162SOPE  C31418215   2.902   3.424  38.129 -0.7148  0.6780 -0.5964
  162SOPE  H14X18216   2.935   3.379  38.225 -0.1874 -0.6756 -1.3832
  162SOPE  H14Y18217   2.861   3.519  38.168 -1.8536  0.4241 -1.1539
  162SOPE  C31518218   3.017   3.449  38.039  0.1047 -0.3872 -0.7763
  162SOPE  H15X18219   2.976   3.505  37.953 -1.7500  0.6574  0.7050
  162SOPE  H15Y18220   3.048   3.349  37.999 -1.2260 -0.8210 -0.7702
  162SOPE  C31618221   3.133   3.535  38.087 -0.2268 -0.2793  0.4092
  162SOPE  H16X18222   3.101   3.614  38.159  1.9565 -0.6489  1.8657
  162SOPE  H16Y18223   3.161   3.599  38.001 -0.0157  0.1075  0.7616
  162SOPE  C31718224   3.248   3.456  38.149 -0.3330 -0.6640 -0.4140
  162SOPE  H17X18225   3.215   3.385  38.227 -0.9654 -1.2726 -1.2253
  162SOPE  H17Y18226   3.307   3.532  38.205  0.2932  1.0789 -3.2412
  162SOPE  C31818227   3.352   3.384  38.063 -0.2095 -0.3411 -0.7002
  162SOPE  H18X18228   3.334   3.275  38.069  2.3165 -0.8368 -1.0602
  162SOPE  H18Y18229   3.449   3.403  38.113 -0.2526 -0.5827 -0.5231
  162SOPE  H18Z18230   3.350   3.416  37.956 -1.4784  0.3427 -0.4891
  163SOPE     N18231   0.891   2.379  39.242 -0.8002 -0.3039 -0.0043
  163SOPE   HN118232   0.811   2.370  39.176  0.2571 -0.4636 -1.3295
  163SOPE   HN218233   0.960   2.444  39.199  0.0377 -0.5661  0.9105
  163SOPE   HN318234   0.944   2.289  39.243 -0.6306 -0.2259  1.8413
  163SOPE   C1218235   0.857   2.418  39.383 -0.1698 -0.5222 -0.5672
  163SOPE  H12A18236   0.951   2.449  39.434  0.0502 -2.2233  0.1183
  163SOPE  H12B18237   0.821   2.327  39.436  1.0076 -0.7365 -0.0891
  163SOPE   C1118238   0.754   2.533  39.381  0.3249 -0.7087  0.3674
  163SOPE  H11A18239   0.739   2.557  39.488 -1.5914 -1.2588  0.2564
  163SOPE  H11B18240   0.652   2.500  39.353  0.1157  0.1652  0.1039
  163SOPE     P18241   0.873   2.763  39.360 -0.7799 -0.7662 -0.1806
  163SOPE   O1318242   0.876   2.873  39.264  0.0500 -0.2203 -0.7640
  163SOPE   O1418243   0.995   2.724  39.437 -0.2010  0.2557  0.3343
  163SOPE   O1218244   0.797   2.637  39.297  0.2630  0.1487  0.4562
  163SOPE   O1118245   0.767   2.808  39.468  0.0735  0.4627  0.3620
  163SOPE    C118246   0.630   2.830  39.449 -0.0097 -0.0040  0.6119
  163SOPE    HA18247   0.575   2.735  39.465 -0.5636  0.4875  1.7732
  163SOPE    HB18248   0.606   2.876  39.351 -0.9571  0.6557  1.1383
  163SOPE    C218249   0.571   2.937  39.537  0.4759 -0.0236 -0.8252
  163SOPE    HS18250   0.623   3.027  39.499 -0.9906  0.0046 -2.9276
  163SOPE   O2118251   0.593   2.907  39.677 -0.2324  0.2702 -0.1309
  163SOPE   C2118252   0.619   3.010  39.747  1.3154  0.2185 -0.0561
  163SOPE   O2218253   0.617   3.130  39.716 -0.0026  0.7992  0.6080
  163SOPE   C2218254   0.675   2.954  39.879 -0.3221  0.0035  0.4150
  163SOPE   H2R18255   0.747   2.878  39.841  1.7882  0.8175  2.5039
  163SOPE   H2S18256   0.586   2.908  39.926 -0.1572  1.2494  2.0280
  163SOPE    C318257   0.418   2.953  39.516  0.0902  0.4936  0.9051
  163SOPE    HX18258   0.382   2.852  39.546  0.0676 -0.5507 -2.2568
  163SOPE    HY18259   0.398   2.975  39.409  1.9935  3.1843  1.0243
  163SOPE   O3118260   0.352   3.052  39.593 -0.4113 -0.8419  0.1183
  163SOPE   C3118261   0.362   3.181  39.542 -0.1629 -0.0521 -0.5986
  163SOPE   O3218262   0.434   3.209  39.443  0.2377  0.3225 -0.2844
  163SOPE   C3218263   0.263   3.277  39.608 -0.2002 -0.0449  0.5461
  163SOPE   H2X18264   0.291   3.274  39.716 -0.4376  2.6145  0.7521
  163SOPE   H2Y18265   0.162   3.235  39.587 -0.3779  0.0226  1.2267
  163SOPE   C2318266   0.715   3.063  39.969  0.0360 -0.0688 -0.4469
  163SOPE   H3R18267   0.625   3.120  40.001  0.1010  0.4119 -1.0915
  163SOPE   H3S18268   0.776   3.139  39.916  0.9879 -0.1424  0.5087
  163SOPE   C2418269   0.808   3.014  40.084  0.6314  0.2119 -0.2177
  163SOPE   H4R18270   0.759   2.926  40.130  0.5740  2.3117  4.3080
  163SOPE   H4S18271   0.895   2.957  40.044 -1.5886 -3.9955  0.3895
  163SOPE   C2518272   0.831   3.117  40.193  0.0065 -0.0266  0.6624
  163SOPE   H5R18273   0.885   3.203  40.147  0.1909  0.7104  2.2110
  163SOPE   H5S18274   0.737   3.162  40.233  0.0913  1.2428 -0.4791
  163SOPE   C2618275   0.912   3.065  40.307 -0.0654 -1.1605 -0.3314
  163SOPE   H6R18276   0.876   2.967  40.344  3.0319 -1.9611  0.8450
  163SOPE   H6S18277   1.011   3.058  40.257 -0.1772 -0.1974 -0.7247
  163SOPE   C2718278   0.927   3.173  40.417  0.2207 -0.3039 -0.8398
  163SOPE   H7R18279   0.971   3.267  40.376  0.4695  0.0173  0.1336
  163SOPE   H7S18280   0.830   3.207  40.457 -1.7626 -3.1759 -2.8082
  163SOPE   C2818281   1.006   3.125  40.531  0.6417  0.2056  0.1532
  163SOPE   H8R18282   0.990   3.205  40.607 -2.2159  0.4432 -0.6170
  163SOPE   H8S18283   0.940   3.044  40.568 -0.0767  0.7747  0.1294
  163SOPE   C2918284   1.150   3.080  40.515 -0.8901 -0.0277  0.3304
  163SOPE   H9118285   1.169   2.985  40.462 -0.1604  0.2094  0.1576
  163SOPE  C21018286   1.256   3.150  40.571 -0.3981 -0.1537  0.5903
  163SOPE  H10118287   1.351   3.096  40.581  0.5785  1.7271  1.8599
  163SOPE  C21118288   1.263   3.273  40.647 -0.5055 -0.2920  0.1441
  163SOPE  H11R18289   1.369   3.294  40.674 -0.0215  2.6898 -3.2685
  163SOPE  H11S18290   1.195   3.258  40.733 -0.6996 -0.0030  0.0426
  163SOPE  C21218291   1.226   3.403  40.573 -0.5938 -0.2273  0.1578
  163SOPE  H12R18292   1.210   3.483  40.650 -3.7550 -0.6791  0.1196
  163SOPE  H12S18293   1.129   3.383  40.523 -0.8793 -0.0011  0.6093
  163SOPE  C21318294   1.336   3.451  40.474  0.0687 -0.4860  0.2562
  163SOPE  H13R18295   1.382   3.356  40.438  1.2704  0.7935 -1.8075
  163SOPE  H13S18296   1.406   3.527  40.513 -0.2262  1.9642 -3.4094
  163SOPE  C21418297   1.264   3.511  40.354 -0.4233 -0.4622 -0.0814
  163SOPE  H14R18298   1.183   3.574  40.397  0.0767 -2.0030  3.4843
  163SOPE  H14S18299   1.220   3.421  40.307 -0.9208 -0.7683  0.9404
  163SOPE  C21518300   1.342   3.606  40.256 -0.1412 -0.3766  0.0144
  163SOPE  H15R18301   1.414   3.669  40.312 -0.0417  0.0785 -0.6212
  163SOPE  H15S18302   1.271   3.682  40.218 -1.5318 -0.8756  1.5060
  163SOPE  C21618303   1.416   3.536  40.138 -0.0017 -0.1308  0.1878
  163SOPE  H16R18304   1.357   3.450  40.099  2.5604 -1.7060 -0.4969
  163SOPE  H16S18305   1.509   3.494  40.180  2.0898  2.2292 -1.7569
  163SOPE  C21718306   1.446   3.623  40.014 -0.8450 -0.0875 -0.1753
  163SOPE  H17R18307   1.511   3.555  39.955 -0.8462 -0.9951  0.8203
  163SOPE  H17S18308   1.508   3.709  40.046  2.5695 -2.2702 -0.4340
  163SOPE  C21818309   1.333   3.669  39.933  0.0374  0.5285 -0.0285
  163SOPE  H18R18310   1.286   3.581  39.884  1.1126  1.2415 -2.4663
  163SOPE  H18S18311   1.368   3.727  39.846  1.3904 -1.6821 -1.0615
  163SOPE  H18T18312   1.266   3.736  39.991 -1.5653 -0.5018 -0.6401
  163SOPE   C3318313   0.287   3.417  39.562 -0.1655  0.2426 -0.1135
  163SOPE   H3X18314   0.265   3.425  39.453  1.6082 -1.6631 -0.6691
  163SOPE   H3Y18315   0.394   3.446  39.567 -0.0749  0.2306 -1.6144
  163SOPE   C3418316   0.198   3.513  39.646 -0.0365  0.1113  0.3851
  163SOPE   H4X18317   0.097   3.479  39.614  0.0847  0.9393 -1.0082
  163SOPE   H4Y18318   0.205   3.619  39.612  0.0291 -0.0182 -0.0093
  163SOPE   C3518319   0.217   3.515  39.801 -0.1629 -0.2790 -0.4031
  163SOPE   H5X18320   0.318   3.556  39.823 -0.1110 -0.5183 -0.1978
  163SOPE   H5Y18321   0.189   3.412  39.833 -3.7243  1.3921  2.7393
  163SOPE   C3618322   0.109   3.611  39.863  0.2225  0.8630 -0.6063
  163SOPE   H6X18323   0.006   3.575  39.841  0.1840  0.4617  0.1872
  163SOPE   H6Y18324   0.105   3.712  39.816 -2.1737  0.4205 -1.5111
  163SOPE   C3718325   0.128   3.628  40.014 -0.3071 -0.5452 -0.0616
  163SOPE   H7X18326   0.170   3.528  40.039 -1.7787 -1.5379 -1.3887
  163SOPE   H7Y18327   0.036   3.644  40.075  0.9679  0.0879  1.7872
  163SOPE   C3818328   0.240   3.723  40.068  0.0433 -0.7506  0.6686
  163SOPE   H8X18329   0.209   3.814  40.014 -0.0431 -0.8653  0.5291
  163SOPE   H8Y18330   0.344   3.711  40.032  0.5981  2.3273  0.9847
  163SOPE   C3918331   0.221   3.746  40.214 -0.0937  0.3748  0.1461
  163SOPE   H9X18332   0.240   3.652  40.271 -0.9149 -0.1315 -0.3999
  163SOPE   H9Y18333   0.119   3.776  40.245  0.3077  2.8392 -0.6837
  163SOPE  C31018334   0.318   3.849  40.276  0.5761 -0.3988 -0.3068
  163SOPE  H10X18335   0.315   3.948  40.224 -0.0540  1.2736  2.6814
  163SOPE  H10Y18336   0.424   3.816  40.268  0.5559 -0.3183 -0.9643
  163SOPE  C31118337   0.287   3.883  40.421  0.4700 -0.1497 -0.3552
  163SOPE  H11X18338   0.291   3.795  40.488 -1.5827 -0.0307 -0.0181
  163SOPE  H11Y18339   0.180   3.910  40.423  0.9084  1.7601 -0.4665
  163SOPE  C31218340   0.367   3.999  40.468 -0.6432  0.0740 -1.0054
  163SOPE  H12X18341   0.336   4.097  40.427  0.9023  2.3337  2.7287
  163SOPE  H12Y18342   0.475   3.996  40.441 -0.2784  0.1819  0.3858
  163SOPE  C31318343   0.369   4.009  40.626 -0.5884  0.2010 -0.1773
  163SOPE  H13X18344   0.267   4.009  40.668 -0.3006  1.3006  0.5754
  163SOPE  H13Y18345   0.420   4.102  40.660  0.8310  0.1870 -2.0855
  163SOPE  C31418346   0.446   3.891  40.699  0.5744 -0.0716 -0.3195
  163SOPE  H14X18347   0.550   3.876  40.663  0.9827  0.5985  0.5551
  163SOPE  H14Y18348   0.389   3.800  40.671 -1.7207  1.1243  0.2885
  163SOPE  C31518349   0.435   3.904  40.849 -0.2180 -0.3898 -0.2054
  163SOPE  H15X18350   0.333   3.935  40.877 -1.3021 -3.3236 -0.5501
  163SOPE  H15Y18351   0.509   3.982  40.879 -1.3978  0.8224 -0.3659
  163SOPE  C31618352   0.473   3.776  40.931 -0.5413 -0.5881 -0.1017
  163SOPE  H16X18353   0.570   3.739  40.892  0.8346  3.0009 -0.5092
  163SOPE  H16Y18354   0.388   3.706  40.913 -1.5805  0.6922 -0.3315
  163SOPE  C31718355   0.495   3.808  41.081 -0.3172  0.4158  0.3948
  163SOPE  H17X18356   0.398   3.842  41.123 -0.7097 -0.5874  0.3392
  163SOPE  H17Y18357   0.568   3.891  41.094  0.2865  0.5420 -2.8439
  163SOPE  C31818358   0.553   3.694  41.160 -0.5867  0.4512 -0.4491
  163SOPE  H18X18359   0.610   3.727  41.250  0.6546 -0.8915 -0.7076
  163SOPE  H18Y18360   0.631   3.646  41.097 -3.8993 -3.5541 -2.0000
  163SOPE  H18Z18361   0.488   3.607  41.185 -1.4334  1.2346  0.1238
  164SOPE     N18362   1.061   3.379  33.890 -0.5459  0.2071  0.4080
  164SOPE   HN118363   1.103   3.467  33.854 -1.8279  0.2939 -0.9678
  164SOPE   HN218364   0.975   3.384  33.949  1.0259 -1.9045  3.1468
  164SOPE   HN318365   1.126   3.336  33.959  0.6466  0.9846 -0.2043
  164SOPE   C1218366   1.034   3.295  33.773  0.0498 -0.2552 -0.2368
  164SOPE  H12A18367   0.974   3.213  33.818 -0.8251  0.6439  0.3026
  164SOPE  H12B18368   1.131   3.254  33.740 -0.0855 -0.4598 -0.3819
  164SOPE   C1118369   0.949   3.367  33.670 -0.2923 -0.4093  0.6004
  164SOPE  H11A18370   0.859   3.406  33.722 -0.6404 -1.0558  0.4985
  164SOPE  H11B18371   0.914   3.309  33.582  2.1147  1.5819 -1.8466
  164SOPE     P18372   1.111   3.471  33.486 -0.3640  0.5733 -0.0448
  164SOPE   O1318373   1.118   3.329  33.434 -0.7429 -0.5663 -0.4315
  164SOPE   O1418374   1.236   3.546  33.508  0.0443 -0.1627 -0.4231
  164SOPE   O1218375   1.029   3.476  33.622  0.1800 -0.2386 -0.4222
  164SOPE   O1118376   1.020   3.543  33.385  0.1778 -0.5567 -0.0113
  164SOPE    C118377   0.875   3.520  33.390 -0.4097 -0.3754  0.6083
  164SOPE    HA18378   0.836   3.542  33.492  1.2253 -1.1526  1.4459
  164SOPE    HB18379   0.848   3.415  33.367 -0.1596  0.2931 -3.3861
  164SOPE    C218380   0.792   3.606  33.286 -0.5721  0.0746  0.1927
  164SOPE    HS18381   0.810   3.549  33.193  0.4079 -1.3206  1.1944
  164SOPE   O2118382   0.836   3.747  33.289  0.2759  0.5088 -1.0264
  164SOPE   C2118383   0.820   3.816  33.180  0.4388  0.1522 -0.1310
  164SOPE   O2218384   0.808   3.773  33.068 -0.3107  0.3415 -0.4055
  164SOPE   C2218385   0.815   3.971  33.209  0.1980  0.4037 -0.0834
  164SOPE   H2R18386   0.922   3.998  33.208  0.5197 -0.7753  0.6055
  164SOPE   H2S18387   0.767   3.985  33.308 -0.3787 -0.9036 -0.1548
  164SOPE    C318388   0.636   3.597  33.319  0.1066 -0.3579  0.3545
  164SOPE    HX18389   0.627   3.664  33.408  3.1646  0.4225  0.2205
  164SOPE    HY18390   0.601   3.497  33.352  0.0392 -0.6828 -0.6887
  164SOPE   O3118391   0.555   3.661  33.216 -0.9386 -0.2778  0.5932
  164SOPE   C3118392   0.515   3.580  33.121 -0.3956  1.2105  0.2464
  164SOPE   O3218393   0.528   3.459  33.128  0.6300 -0.2472 -0.0743
  164SOPE   C3218394   0.441   3.652  33.005  0.2599  0.3234  0.1570
  164SOPE   H2X18395   0.479   3.597  32.916  0.9707 -0.7059  1.0598
  164SOPE   H2Y18396   0.473   3.758  33.003  0.4053  0.2707 -1.6171
  164SOPE   C2318397   0.737   4.048  33.100  0.5331 -0.0893 -0.2360
  164SOPE   H3R18398   0.773   4.010  33.002  1.3172 -0.5035  0.2027
  164SOPE   H3S18399   0.763   4.155  33.115 -1.9778  1.0009 -2.7409
  164SOPE   C2418400   0.590   4.034  33.110  0.2348 -0.6229 -0.0187
  164SOPE   H4R18401   0.573   3.926  33.131  2.9659 -1.3714 -1.1624
  164SOPE   H4S18402   0.553   4.094  33.196  0.4219  0.4562 -0.6731
  164SOPE   C2518403   0.509   4.086  32.989  0.5408  0.3596 -0.5432
  164SOPE   H5R18404   0.524   4.193  32.965 -0.2815 -0.0527 -3.1815
  164SOPE   H5S18405   0.551   4.031  32.902  1.5861  0.6309 -0.2250
  164SOPE   C2618406   0.357   4.071  33.011  0.7300 -0.4631  0.5348
  164SOPE   H6R18407   0.339   3.979  33.071 -0.5008 -0.7257 -0.1817
  164SOPE   H6S18408   0.304   4.159  33.053  1.7759 -1.2911  3.8361
  164SOPE   C2718409   0.283   4.046  32.873  0.5213  0.1438  1.3207
  164SOPE   H7R18410   0.333   3.968  32.813  1.3600  3.1546 -2.2645
  164SOPE   H7S18411   0.188   4.004  32.912  0.8593 -1.9494 -0.0106
  164SOPE   C2818412   0.263   4.159  32.774  0.1433 -0.1349  0.1123
  164SOPE   H8R18413   0.367   4.176  32.737  0.0514 -1.3484 -0.7305
  164SOPE   H8S18414   0.218   4.121  32.680  2.9835 -0.6711 -1.1365
  164SOPE   C2918415   0.212   4.288  32.832  0.0906  0.1496 -0.1180
  164SOPE   H9118416   0.134   4.278  32.908 -2.5083  3.0602 -2.1343
  164SOPE  C21018417   0.246   4.417  32.799 -0.2076  0.5109 -0.1362
  164SOPE  H10118418   0.203   4.501  32.855 -2.0366 -0.4029 -0.1008
  164SOPE  C21118419   0.329   4.467  32.680  0.2591 -0.5161  0.2701
  164SOPE  H11R18420   0.400   4.390  32.645  0.1836 -0.8485  0.8276
  164SOPE  H11S18421   0.380   4.559  32.715 -1.0585  0.4002 -0.1535
  164SOPE  C21218422   0.234   4.504  32.564  0.6828 -0.1105  0.1597
  164SOPE  H12R18423   0.168   4.588  32.596  0.6774  0.1674 -0.5436
  164SOPE  H12S18424   0.176   4.410  32.554 -0.1147 -0.0288  3.2126
  164SOPE  C21318425   0.314   4.553  32.438 -0.4792 -0.3695  0.6518
  164SOPE  H13R18426   0.251   4.527  32.351  1.6041 -0.3799 -0.9378
  164SOPE  H13S18427   0.406   4.492  32.431  1.8481  3.0086 -1.3573
  164SOPE  C21418428   0.337   4.709  32.447  0.3865  0.4448 -0.1791
  164SOPE  H14R18429   0.331   4.728  32.556 -0.6909 -2.0522  0.2727
  164SOPE  H14S18430   0.256   4.770  32.401 -1.5581 -1.7375  0.1133
  164SOPE  C21518431   0.474   4.752  32.394  0.7305  0.1717  0.6556
  164SOPE  H15R18432   0.482   4.731  32.286 -0.3541  1.8671  0.2043
  164SOPE  H15S18433   0.558   4.697  32.442 -0.5851 -3.3134 -0.7277
  164SOPE  C21618434   0.487   4.905  32.421 -0.0079 -0.2722 -0.8197
  164SOPE  H16R18435   0.450   4.913  32.526  1.5554  1.3831 -0.3328
  164SOPE  H16S18436   0.421   4.960  32.351 -2.1922 -2.1396 -0.3374
  164SOPE  C21718437   0.634   4.965  32.419  0.2505  0.0309 -0.7688
  164SOPE  H17R18438   0.659   4.996  32.316  0.2005  3.2807  0.0848
  164SOPE  H17S18439   0.702   4.882  32.447 -1.6175 -0.9287  1.3148
  164SOPE  C21818440   0.657   5.075  32.527  0.0447 -0.0458  0.5860
  164SOPE  H18R18441   0.638   5.036  32.629 -0.1770  0.0118  0.5655
  164SOPE  H18S18442   0.585   5.158  32.526  1.9507  1.7215  1.9513
  164SOPE  H18T18443   0.761   5.116  32.526  0.0211  0.1934  2.9645
  164SOPE   C3318444   0.291   3.632  33.007 -0.2875 -0.9939  0.0162
  164SOPE   H3X18445   0.278   3.522  32.993  1.5432 -1.2031 -0.3200
  164SOPE   H3Y18446   0.275   3.689  32.912  3.1283  0.8161  0.3676
  164SOPE   C3418447   0.211   3.686  33.128 -0.4096 -0.1518  0.1273
  164SOPE   H4X18448   0.228   3.793  33.150  0.6949 -0.4140  0.6532
  164SOPE   H4Y18449   0.249   3.643  33.223 -0.4746  0.7705  0.5768
  164SOPE   C3518450   0.062   3.678  33.106  0.0551  0.0807  0.1254
  164SOPE   H5X18451   0.038   3.574  33.077  0.4852 -0.3234  1.1734
  164SOPE   H5Y18452   0.036   3.750  33.026 -0.2372  1.1902  1.1915
  164SOPE   C3618453  -0.025   3.707  33.235 -0.1522  1.0667 -0.3310
  164SOPE   H6X18454  -0.011   3.817  33.245  3.4198  0.8373 -1.5288
  164SOPE   H6Y18455   0.031   3.648  33.311  2.1301  1.5251 -1.5520
  164SOPE   C3718456  -0.164   3.643  33.235 -0.6854 -0.5967  0.1129
  164SOPE   H7X18457  -0.195   3.625  33.340 -0.2962  2.7175  0.9284
  164SOPE   H7Y18458  -0.146   3.546  33.184 -0.2628 -0.8057  0.6438
  164SOPE   C3818459  -0.270   3.720  33.160  0.7806  0.2022 -0.3310
  164SOPE   H8X18460  -0.248   3.728  33.052  1.7470  0.6272 -0.1159
  164SOPE   H8Y18461  -0.264   3.824  33.200  0.4714  0.5698 -1.2299
  164SOPE   C3918462  -0.414   3.682  33.180  0.3376  0.8131 -0.8322
  164SOPE   H9X18463  -0.475   3.776  33.180 -2.1192 -0.6751  0.3313
  164SOPE   H9Y18464  -0.428   3.631  33.278  0.4304  4.2053  1.1308
  164SOPE  C31018465  -0.461   3.576  33.074 -0.2062 -0.5795 -0.6584
  164SOPE  H10X18466  -0.561   3.542  33.107 -0.0643  1.3061  2.0620
  164SOPE  H10Y18467  -0.399   3.484  33.082 -0.3681 -0.7186 -0.9631
  164SOPE  C31118468  -0.473   3.617  32.926 -0.2058  0.3045 -0.8084
  164SOPE  H11X18469  -0.378   3.597  32.872  2.0449 -2.7245  3.6276
  164SOPE  H11Y18470  -0.499   3.725  32.917  1.8216  0.7100 -2.6950
  164SOPE  C31218471  -0.571   3.529  32.857  0.1565  0.6405  0.0645
  164SOPE  H12X18472  -0.670   3.553  32.899  0.9377 -1.0414  3.2084
  164SOPE  H12Y18473  -0.551   3.424  32.887 -0.6607  0.3649 -0.3372
  164SOPE  C31318474  -0.585   3.536  32.697 -0.2110 -0.0057  0.4128
  164SOPE  H13X18475  -0.510   3.468  32.653 -1.1736 -2.7337  2.6914
  164SOPE  H13Y18476  -0.557   3.635  32.654  0.0699  0.3265  1.3365
  164SOPE  C31418477  -0.721   3.483  32.653  0.5331 -0.0635 -0.3160
  164SOPE  H14X18478  -0.804   3.557  32.664  0.8068  0.1029  0.8180
  164SOPE  H14Y18479  -0.737   3.401  32.726 -1.4854  0.0327 -0.5864
  164SOPE  C31518480  -0.730   3.428  32.519 -0.4820  0.9231  0.7118
  164SOPE  H15X18481  -0.818   3.361  32.526  1.1073 -1.2198  1.2164
  164SOPE  H15Y18482  -0.657   3.345  32.507 -0.3700  0.8526  1.7510
  164SOPE  C31618483  -0.731   3.520  32.403  0.4040  0.1538  0.2960
  164SOPE  H16X18484  -0.648   3.591  32.423  1.9327 -1.8596  1.5608
  164SOPE  H16Y18485  -0.830   3.569  32.409  0.4521  0.2254  0.5098
  164SOPE  C31718486  -0.721   3.461  32.261 -0.3466  0.4564 -0.0640
  164SOPE  H17X18487  -0.757   3.533  32.184 -0.5107 -0.0608 -0.4724
  164SOPE  H17Y18488  -0.793   3.377  32.269 -0.4919  0.5209 -0.6361
  164SOPE  C31818489  -0.575   3.427  32.244  0.2270  0.1578  0.3005
  164SOPE  H18X18490  -0.502   3.509  32.266  1.9855 -1.3181  0.1568
  164SOPE  H18Y18491  -0.566   3.393  32.139  1.6994 -0.2511  0.5305
  164SOPE  H18Z18492  -0.557   3.338  32.308  2.4196  1.3621  1.5066
  165SOPE     N18493   1.117   2.236  38.236  0.6266  0.8368 -0.2536
  165SOPE   HN118494   1.184   2.255  38.158  1.0584  1.5715  0.2846
  165SOPE   HN218495   1.119   2.315  38.303 -2.9122  0.7575  0.1209
  165SOPE   HN318496   1.138   2.145  38.282  2.7297  0.3723 -1.9389
  165SOPE   C1218497   0.975   2.224  38.179  0.1605  0.5109  0.3449
  165SOPE  H12A18498   0.962   2.127  38.126 -2.2863  0.8445  0.2163
  165SOPE  H12B18499   0.968   2.305  38.104  2.4697 -0.0359 -0.5365
  165SOPE   C1118500   0.858   2.217  38.284 -0.5006  0.2365 -0.7036
  165SOPE  H11A18501   0.758   2.192  38.241 -0.2335  0.6751 -1.6081
  165SOPE  H11B18502   0.846   2.316  38.333 -0.1532  0.5646 -1.2613
  165SOPE     P18503   0.833   1.963  38.363 -0.5205 -0.1118  0.1768
  165SOPE   O1318504   0.864   1.917  38.497 -0.4922  0.1925  0.0815
  165SOPE   O1418505   0.890   1.890  38.243  0.1867 -0.4079 -0.5146
  165SOPE   O1218506   0.904   2.109  38.363 -0.3905 -0.1008 -0.3055
  165SOPE   O1118507   0.681   1.982  38.351  0.0161 -0.0179  0.3331
  165SOPE    C118508   0.613   1.946  38.229 -0.2866 -0.1922  0.5509
  165SOPE    HA18509   0.634   1.845  38.188 -2.8902 -0.4279 -0.3603
  165SOPE    HB18510   0.639   2.029  38.159  0.2506 -1.8837 -1.3357
  165SOPE    C218511   0.462   1.951  38.241  0.2069  0.4611 -0.2802
  165SOPE    HS18512   0.418   1.953  38.139  0.3465  0.1096 -0.3505
  165SOPE   O2118513   0.413   2.060  38.329  0.0338 -0.3059  0.0572
  165SOPE   C2118514   0.425   2.177  38.281  0.1565  0.7854  0.2120
  165SOPE   O2218515   0.449   2.213  38.167  0.4888  0.6637 -0.0998
  165SOPE   C2218516   0.396   2.275  38.396 -0.0423 -0.6607  0.3437
  165SOPE   H2R18517   0.453   2.260  38.490 -0.7674  2.6325  1.4310
  165SOPE   H2S18518   0.291   2.260  38.427 -0.4773  0.5262 -0.4848
  165SOPE    C318519   0.406   1.814  38.300 -0.1817 -0.0825  1.0366
  165SOPE    HX18520   0.460   1.786  38.393  0.9449 -0.3741  0.3131
  165SOPE    HY18521   0.413   1.739  38.218  2.5004  0.9813  0.1880
  165SOPE   O3118522   0.264   1.822  38.325 -0.4890  0.2200  0.3587
  165SOPE   C3118523   0.223   1.860  38.441 -0.3202 -0.1339 -0.0199
  165SOPE   O3218524   0.284   1.919  38.529 -0.5682 -0.0311 -0.4715
  165SOPE   C3218525   0.080   1.808  38.450  0.0449  0.4016 -0.3254
  165SOPE   H2X18526   0.021   1.894  38.490  0.0313 -0.6023  1.9935
  165SOPE   H2Y18527   0.094   1.730  38.528  0.2254  1.8195  1.1325
  165SOPE   C2318528   0.413   2.429  38.366 -0.2427 -1.0586 -0.1016
  165SOPE   H3R18529   0.496   2.464  38.301  0.4837 -0.4216  1.1135
  165SOPE   H3S18530   0.434   2.477  38.464  0.9275 -1.1818 -0.2799
  165SOPE   C2418531   0.286   2.490  38.305 -0.5116 -0.4505  0.3958
  165SOPE   H4R18532   0.298   2.575  38.235 -1.0318 -0.7674 -0.0831
  165SOPE   H4S18533   0.223   2.410  38.260  0.3180 -1.7038  1.3957
  165SOPE   C2518534   0.199   2.550  38.417  0.5443 -0.2308 -0.6606
  165SOPE   H5R18535   0.202   2.481  38.504 -1.9281  1.5071  0.9372
  165SOPE   H5S18536   0.235   2.648  38.453 -2.7829 -0.1192  3.0001
  165SOPE   C2618537   0.059   2.564  38.369 -0.2563  0.4816 -0.2656
  165SOPE   H6R18538   0.057   2.622  38.274  0.1073 -0.4476 -0.8589
  165SOPE   H6S18539   0.019   2.461  38.349 -0.5237  0.2823  1.1801
  165SOPE   C2718540  -0.038   2.636  38.461 -0.6924 -0.2891  0.0712
  165SOPE   H7R18541  -0.017   2.605  38.566 -2.7344 -0.6642  0.3994
  165SOPE   H7S18542  -0.009   2.743  38.453  1.4933 -0.9383 -2.2324
  165SOPE   C2818543  -0.191   2.619  38.445  0.2771 -0.7098 -0.2013
  165SOPE   H8R18544  -0.226   2.676  38.356 -0.2680 -1.1608 -0.2806
  165SOPE   H8S18545  -0.219   2.513  38.429  1.0816 -1.4721  2.7592
  165SOPE   C2918546  -0.265   2.674  38.565 -0.3541  0.3497 -0.1731
  165SOPE   H9118547  -0.277   2.783  38.559  0.1810  0.3605 -1.4704
  165SOPE  C21018548  -0.304   2.604  38.673 -0.0086 -0.0345  0.0825
  165SOPE  H10118549  -0.350   2.652  38.761 -2.7066 -0.0742 -1.2244
  165SOPE  C21118550  -0.282   2.461  38.702 -0.3874  0.2544  0.2712
  165SOPE  H11R18551  -0.237   2.407  38.616  1.3225  0.3217  1.0869
  165SOPE  H11S18552  -0.381   2.412  38.715 -0.8955  0.8937 -1.0184
  165SOPE  C21218553  -0.194   2.453  38.827  0.1848 -0.0590 -0.6890
  165SOPE  H12R18554  -0.237   2.511  38.911  1.0397 -2.0268  1.1876
  165SOPE  H12S18555  -0.091   2.488  38.808 -0.5481  2.1376 -0.9664
  165SOPE  C21318556  -0.199   2.307  38.877  0.6149  0.3694 -0.1472
  165SOPE  H13R18557  -0.139   2.233  38.821  0.1513 -1.6482  1.8481
  165SOPE  H13S18558  -0.305   2.272  38.872  0.9063 -0.9618  1.6860
  165SOPE  C21418559  -0.158   2.295  39.026  0.2726  0.3379 -0.4758
  165SOPE  H14R18560  -0.176   2.388  39.084 -1.2953 -2.4371  3.9174
  165SOPE  H14S18561  -0.048   2.280  39.022  0.0533 -1.4541 -0.5367
  165SOPE  C21518562  -0.227   2.182  39.095  0.1433 -0.1777  0.7668
  165SOPE  H15R18563  -0.175   2.151  39.187  0.9527  0.2686  0.4735
  165SOPE  H15S18564  -0.217   2.089  39.035 -1.9959 -0.3510  0.5956
  165SOPE  C21618565  -0.380   2.194  39.123 -0.9658 -0.2900 -0.6769
  165SOPE  H16R18566  -0.407   2.091  39.154 -0.1994 -0.9702 -2.1574
  165SOPE  H16S18567  -0.443   2.194  39.032 -1.7382  0.3981 -0.1648
  165SOPE  C21718568  -0.411   2.309  39.221 -0.5348  0.4318 -1.1273
  165SOPE  H17R18569  -0.406   2.404  39.165 -3.3686 -0.4673 -3.1600
  165SOPE  H17S18570  -0.344   2.297  39.309  0.3978  1.4051 -1.6905
  165SOPE  C21818571  -0.557   2.312  39.269  0.0779 -0.2218  0.0380
  165SOPE  H18R18572  -0.581   2.419  39.289  1.3932  0.4850 -1.8470
  165SOPE  H18S18573  -0.573   2.236  39.348  2.4044 -0.3833  0.4435
  165SOPE  H18T18574  -0.623   2.274  39.189  1.0460 -1.2623 -0.2912
  165SOPE   C3318575   0.010   1.759  38.322  0.3214 -0.5796 -0.7056
  165SOPE   H3X18576   0.022   1.833  38.240  0.5950  0.4759  0.2716
  165SOPE   H3Y18577  -0.099   1.762  38.347  0.7267  1.6516  1.1666
  165SOPE   C3418578   0.053   1.620  38.276  0.3645  0.0128 -0.3180
  165SOPE   H4X18579   0.039   1.547  38.359 -0.1451 -0.2691 -0.6494
  165SOPE   H4Y18580   0.162   1.627  38.255  0.4030  2.2715  0.3379
  165SOPE   C3518581  -0.013   1.574  38.143  0.5437 -0.3117 -0.5573
  165SOPE   H5X18582   0.025   1.645  38.067  2.1071 -2.1163 -1.5463
  165SOPE   H5Y18583  -0.123   1.590  38.136  0.5471 -0.5726 -1.2771
  165SOPE   C3618584   0.025   1.429  38.108 -0.9320 -0.0082  0.0525
  165SOPE   H6X18585   0.015   1.359  38.194 -1.5786 -0.5466 -0.4548
  165SOPE   H6Y18586   0.132   1.425  38.076 -1.6170 -1.0076 -2.3390
  165SOPE   C3718587  -0.052   1.393  37.978  0.3308  0.2780  0.0083
  165SOPE   H7X18588  -0.027   1.289  37.948  1.1574  1.2370 -3.0134
  165SOPE   H7Y18589  -0.039   1.460  37.890 -1.4085  0.7885  0.1159
  165SOPE   C3818590  -0.205   1.395  37.995 -0.8115  0.7120  0.4462
  165SOPE   H8X18591  -0.229   1.409  38.102 -2.0258  0.5623  0.2100
  165SOPE   H8Y18592  -0.234   1.290  37.970  0.7233  0.2122  0.6482
  165SOPE   C3918593  -0.273   1.489  37.901 -0.1723 -0.7129 -0.4903
  165SOPE   H9X18594  -0.229   1.473  37.801 -1.4604 -0.2423 -1.1579
  165SOPE   H9Y18595  -0.250   1.590  37.939  3.8422 -1.4819 -0.4915
  165SOPE  C31018596  -0.422   1.483  37.898  0.2508 -0.3518  0.7048
  165SOPE  H10X18597  -0.460   1.380  37.878 -2.4461  0.8123 -0.8143
  165SOPE  H10Y18598  -0.452   1.546  37.811  1.9800 -0.7157 -0.1922
  165SOPE  C31118599  -0.482   1.548  38.025 -0.4373 -0.1744  0.4418
  165SOPE  H11X18600  -0.429   1.632  38.073 -0.4558  1.5241 -2.3105
  165SOPE  H11Y18601  -0.473   1.460  38.092  2.3283 -2.1760 -2.2901
  165SOPE  C31218602  -0.635   1.580  38.007 -0.7801  0.1781  0.4968
  165SOPE  H12X18603  -0.695   1.489  37.984 -0.5142  0.3008 -0.7087
  165SOPE  H12Y18604  -0.644   1.643  37.916  0.3336  1.2351  1.0931
  165SOPE  C31318605  -0.689   1.630  38.142  0.4858  0.0237  0.9239
  165SOPE  H13X18606  -0.627   1.715  38.177  0.2240  0.5355  0.1698
  165SOPE  H13Y18607  -0.671   1.548  38.214  0.9027 -0.6081  0.1188
  165SOPE  C31418608  -0.832   1.681  38.127  0.1017  0.6755  0.4377
  165SOPE  H14X18609  -0.872   1.597  38.066  1.2919  0.4960 -0.1072
  165SOPE  H14Y18610  -0.853   1.783  38.090  1.1086  0.2883 -1.2949
  165SOPE  C31518611  -0.906   1.669  38.268 -0.2104  0.3822  0.1785
  165SOPE  H15X18612  -0.847   1.725  38.343 -3.0606  0.8844  2.2107
  165SOPE  H15Y18613  -0.892   1.560  38.286  0.4124 -0.1039 -2.6366
  165SOPE  C31618614  -1.050   1.708  38.275 -0.0413 -0.6143  0.1261
  165SOPE  H16X18615  -1.091   1.656  38.364 -2.7693  0.7036 -0.2764
  165SOPE  H16Y18616  -1.113   1.665  38.195 -1.1729 -0.0303  0.6786
  165SOPE  C31718617  -1.089   1.857  38.277  0.6372 -0.0972 -0.1716
  165SOPE  H17X18618  -1.199   1.870  38.285  0.8359  1.9582 -0.0237
  165SOPE  H17Y18619  -1.057   1.899  38.179 -2.4024 -0.2205 -1.3426
  165SOPE  C31818620  -1.030   1.928  38.395  0.3687 -0.5875 -0.5998
  165SOPE  H18X18621  -1.055   2.035  38.409  1.6535 -0.5359  1.9210
  165SOPE  H18Y18622  -0.921   1.937  38.374  0.2949  0.4404 -0.6120
  165SOPE  H18Z18623  -1.057   1.870  38.486  2.2954 -2.0226 -0.8747
  166SOPE     N18624   1.093   1.018  35.137  0.3899 -0.2662  0.0603
  166SOPE   HN118625   1.121   1.118  35.127  1.6183 -0.8043 -2.7642
  166SOPE   HN218626   1.003   1.016  35.189  0.1798  2.1942 -0.0822
  166SOPE   HN318627   1.169   0.970  35.190  0.6520 -0.7125 -0.6966
  166SOPE   C1218628   1.086   0.955  34.999 -1.0098  0.3075  0.2781
  166SOPE  H12A18629   1.021   1.014  34.931  1.3770 -0.1275 -2.5705
  166SOPE  H12B18630   1.045   0.852  35.009  0.7120 -0.7682 -2.4879
  166SOPE   C1118631   1.233   0.922  34.959  0.0233  1.0101  0.4473
  166SOPE  H11A18632   1.300   1.010  34.966 -1.1990  2.0423 -0.3361
  166SOPE  H11B18633   1.233   0.885  34.855 -3.2280  1.8632  0.0084
  166SOPE     P18634   1.440   0.814  35.077 -0.0717 -0.3982 -0.3166
  166SOPE   O1318635   1.469   0.691  35.153  0.2682  0.2584 -0.6399
  166SOPE   O1418636   1.489   0.937  35.151  1.0528  0.4839  0.8050
  166SOPE   O1218637   1.283   0.829  35.057 -0.1069  0.7389 -0.3149
  166SOPE   O1118638   1.505   0.810  34.928  0.2154  0.0474 -0.0527
  166SOPE    C118639   1.642   0.773  34.909 -0.1418  0.3354 -0.0070
  166SOPE    HA18640   1.641   0.670  34.867  0.2430  0.1743  0.3727
  166SOPE    HB18641   1.707   0.775  34.998  1.8994 -0.5288 -1.4046
  166SOPE    C218642   1.704   0.863  34.801 -0.2078  0.5391  0.2902
  166SOPE    HS18643   1.647   0.867  34.706  1.2740 -0.8921 -0.7185
  166SOPE   O2118644   1.843   0.817  34.769 -0.7139  0.7570 -0.6094
  166SOPE   C2118645   1.876   0.693  34.733  0.5705  0.5397 -0.9031
  166SOPE   O2218646   1.796   0.599  34.710 -0.3289 -0.0053  0.3469
  166SOPE   C2218647   2.023   0.665  34.723 -0.7082  0.8660  0.0159
  166SOPE   H2R18648   2.080   0.665  34.818  1.4707 -0.6442 -1.1931
  166SOPE   H2S18649   2.063   0.741  34.653  1.6124 -0.9233 -0.7612
  166SOPE    C318650   1.716   1.007  34.850  0.3640 -0.2743  0.2269
  166SOPE    HX18651   1.791   1.006  34.932  1.4261  1.9726 -0.6204
  166SOPE    HY18652   1.620   1.042  34.892  0.6980  0.5398  0.3205
  166SOPE   O3118653   1.781   1.090  34.751  0.1697 -0.2845 -0.4954
  166SOPE   C3118654   1.706   1.161  34.676  0.4923 -0.2127 -0.3344
  166SOPE   O3218655   1.583   1.171  34.686  0.3027 -0.0636  0.3202
  166SOPE   C3218656   1.791   1.229  34.571 -0.0732  0.4203 -0.5068
  166SOPE   H2X18657   1.870   1.282  34.629 -1.2503  1.9225 -0.2251
  166SOPE   H2Y18658   1.735   1.299  34.505  1.8612  0.4745 -2.2076
  166SOPE   C2318659   2.039   0.518  34.670 -0.2431  0.0711 -0.0064
  166SOPE   H3R18660   1.983   0.483  34.581  0.6324 -2.4622  0.3659
  166SOPE   H3S18661   2.009   0.440  34.743 -0.1493  1.4154  1.5259
  166SOPE   C2418662   2.180   0.502  34.627 -0.0107 -0.2784 -0.0810
  166SOPE   H4R18663   2.192   0.396  34.596 -2.1338 -1.0984  1.6599
  166SOPE   H4S18664   2.217   0.569  34.546  1.3025 -0.2372  0.5311
  166SOPE   C2518665   2.282   0.529  34.749 -0.0491 -0.2193  0.8512
  166SOPE   H5R18666   2.284   0.639  34.766 -0.0790 -0.0412 -0.2268
  166SOPE   H5S18667   2.238   0.485  34.841 -0.1972 -3.4491 -0.6444
  166SOPE   C2618668   2.418   0.474  34.711  0.6131  0.2823 -0.5005
  166SOPE   H6R18669   2.422   0.365  34.691  1.7199  0.4692 -1.3948
  166SOPE   H6S18670   2.452   0.519  34.615  0.4889  0.9465 -0.2382
  166SOPE   C2718671   2.517   0.494  34.824 -0.2256 -0.4585  0.4041
  166SOPE   H7R18672   2.468   0.474  34.922  0.3566  0.0812  0.8122
  166SOPE   H7S18673   2.598   0.419  34.811  0.9178  1.1003 -2.2050
  166SOPE   C2818674   2.562   0.639  34.834 -0.3694 -0.6951  0.5743
  166SOPE   H8R18675   2.470   0.696  34.856 -1.5619 -3.1243  2.3980
  166SOPE   H8S18676   2.632   0.656  34.919 -0.3351  2.2616  0.0603
  166SOPE   C2918677   2.625   0.692  34.707  0.3490  0.3916 -0.1911
  166SOPE   H9118678   2.562   0.736  34.628  2.8080 -1.0620 -3.1794
  166SOPE  C21018679   2.758   0.675  34.683  0.1500 -0.2447  0.1442
  166SOPE  H10118680   2.788   0.690  34.578 -1.3832 -0.0329 -0.2966
  166SOPE  C21118681   2.873   0.605  34.764 -0.1710 -0.8298  0.3653
  166SOPE  H11R18682   2.885   0.505  34.717 -1.5410 -1.2189  0.7667
  166SOPE  H11S18683   2.852   0.587  34.872  3.4618  1.2926  1.6001
  166SOPE  C21218684   3.003   0.687  34.763 -0.0525 -0.6390  0.4050
  166SOPE  H12R18685   3.083   0.616  34.792  0.3794 -0.0091  0.7539
  166SOPE  H12S18686   2.995   0.781  34.821  3.6553 -0.5675  1.0437
  166SOPE  C21318687   3.052   0.729  34.627  0.3650  0.3121  1.0594
  166SOPE  H13R18688   2.990   0.815  34.592  1.0675  1.1488  1.8135
  166SOPE  H13S18689   3.036   0.656  34.545 -1.4014  1.5130  0.2748
  166SOPE  C21418690   3.197   0.777  34.629 -0.4858  0.1313 -0.3229
  166SOPE  H14R18691   3.264   0.689  34.618  1.2599  1.5407 -1.3769
  166SOPE  H14S18692   3.225   0.819  34.728 -0.5151 -1.1317  0.2487
  166SOPE  C21518693   3.228   0.872  34.510 -0.4020 -0.3893 -0.2600
  166SOPE  H15R18694   3.137   0.934  34.501  0.2659  0.4403 -1.8369
  166SOPE  H15S18695   3.243   0.812  34.417  0.2500  1.9261 -1.7281
  166SOPE  C21618696   3.357   0.953  34.523 -0.0731  0.1052 -0.2516
  166SOPE  H16R18697   3.443   0.884  34.508 -0.1200 -0.1053  0.4159
  166SOPE  H16S18698   3.370   1.000  34.623  1.5026 -0.6457 -0.0658
  166SOPE  C21718699   3.364   1.053  34.413 -0.0761 -0.0534  0.0029
  166SOPE  H17R18700   3.317   1.144  34.457  1.3316 -0.7496  3.1902
  166SOPE  H17S18701   3.312   1.019  34.320  0.2834  0.9454 -0.5919
  166SOPE  C21818702   3.507   1.105  34.386 -0.3320 -0.3492  0.2067
  166SOPE  H18R18703   3.577   1.109  34.472  0.9534 -2.3261 -0.6754
  166SOPE  H18S18704   3.508   1.205  34.338  1.4632  0.1706  1.2211
  166SOPE  H18T18705   3.559   1.039  34.313  0.2050  1.1713 -0.8351
  166SOPE   C3318706   1.848   1.127  34.471  0.0237 -0.9355 -0.2749
  166SOPE   H3X18707   1.768   1.071  34.419 -1.1916  2.1191 -1.9675
  166SOPE   H3Y18708   1.915   1.061  34.531 -2.1685 -0.8562  2.4547
  166SOPE   C3418709   1.951   1.203  34.370 -0.0505  0.1044  0.2493
  166SOPE   H4X18710   1.901   1.272  34.299 -1.4883 -0.0210  1.1081
  166SOPE   H4Y18711   2.000   1.124  34.309 -1.5062 -1.5150  1.0915
  166SOPE   C3518712   2.065   1.275  34.446  0.0864  0.2153  0.3672
  166SOPE   H5X18713   2.119   1.202  34.509  1.7290  1.6571  0.7074
  166SOPE   H5Y18714   2.017   1.357  34.503 -0.2202 -0.0849  0.5430
  166SOPE   C3618715   2.168   1.339  34.353 -0.5339  0.7213  0.0100
  166SOPE   H6X18716   2.112   1.385  34.269 -1.4333 -1.8178 -0.8852
  166SOPE   H6Y18717   2.222   1.252  34.308 -0.8569  0.3261  0.3786
  166SOPE   C3718718   2.263   1.446  34.414 -0.2536  0.4757  0.9596
  166SOPE   H7X18719   2.326   1.390  34.486  1.8726 -0.9989 -1.8144
  166SOPE   H7Y18720   2.211   1.526  34.470 -0.1359  1.3826 -0.1734
  166SOPE   C3818721   2.356   1.507  34.308  0.4901  0.5444  0.6997
  166SOPE   H8X18722   2.300   1.571  34.238  1.6302  3.0122  1.9233
  166SOPE   H8Y18723   2.399   1.425  34.246  1.3839  1.5726 -0.0806
  166SOPE   C3918724   2.473   1.589  34.353 -0.1156  0.5192 -0.4028
  166SOPE   H9X18725   2.537   1.524  34.416 -1.6508 -2.8160 -2.0660
  166SOPE   H9Y18726   2.443   1.679  34.411 -1.9439 -1.0338  1.2268
  166SOPE  C31018727   2.548   1.642  34.224  0.4136  0.1788  0.2561
  166SOPE  H10X18728   2.538   1.563  34.146  1.3353  1.0705 -0.7913
  166SOPE  H10Y18729   2.655   1.655  34.251  0.4434  0.6815 -0.1032
  166SOPE  C31118730   2.481   1.766  34.160  0.2781  0.9467  0.2140
  166SOPE  H11X18731   2.503   1.850  34.231 -1.4610 -0.2926  2.3513
  166SOPE  H11Y18732   2.371   1.752  34.161  0.4472 -0.4711  1.2221
  166SOPE  C31218733   2.527   1.808  34.023 -0.2420  0.4779 -0.0889
  166SOPE  H12X18734   2.475   1.898  33.983  0.8107  1.0162 -0.3103
  166SOPE  H12Y18735   2.517   1.732  33.943  0.6605  1.1133 -0.8374
  166SOPE  C31318736   2.677   1.832  34.024  0.8635 -0.6406 -0.0043
  166SOPE  H13X18737   2.705   1.845  33.917 -1.0977  0.2118 -0.4495
  166SOPE  H13Y18738   2.738   1.742  34.047  3.1498  0.1072 -2.6059
  166SOPE  C31418739   2.728   1.963  34.090  0.6883  0.2241  0.2532
  166SOPE  H14X18740   2.720   1.970  34.201  2.1728  0.6749  0.3529
  166SOPE  H14Y18741   2.659   2.043  34.054 -0.1677 -1.4934 -2.2127
  166SOPE  C31518742   2.875   1.999  34.047  0.1887  0.4837  0.0475
  166SOPE  H15X18743   2.889   1.988  33.938  0.4026 -0.8975  0.1958
  166SOPE  H15Y18744   2.944   1.921  34.087 -1.9548 -1.7379 -0.4067
  166SOPE  C31618745   2.913   2.138  34.093  0.2468 -0.5507  0.1887
  166SOPE  H16X18746   2.863   2.208  34.022  3.2299  0.3342 -1.2307
  166SOPE  H16Y18747   3.020   2.167  34.089 -0.1986  1.1280 -0.5065
  166SOPE  C31718748   2.861   2.181  34.240  0.4223  0.6801  0.1786
  166SOPE  H17X18749   2.896   2.099  34.306 -2.2042 -0.3321  0.4417
  166SOPE  H17Y18750   2.750   2.176  34.230  0.3265  2.5697  0.0918
  166SOPE  C31818751   2.889   2.315  34.295  0.1734  0.0225  0.2232
  166SOPE  H18X18752   2.992   2.346  34.267 -0.1730  0.0097 -1.1304
  166SOPE  H18Y18753   2.880   2.305  34.406 -1.0466 -2.9080 -0.0473
  166SOPE  H18Z18754   2.816   2.393  34.266 -0.0990 -0.2092  0.2820
  167SOPE     N18755   2.864   0.012  30.379 -0.0013 -0.4413 -0.0517
  167SOPE   HN118756   2.852  -0.035  30.287 -1.7446 -0.4967  0.1831
  167SOPE   HN218757   2.773   0.047  30.415  1.5005  2.7499  1.0345
  167SOPE   HN318758   2.928   0.092  30.360  1.7896 -1.2825  2.0897
  167SOPE   C1218759   2.927  -0.060  30.495  0.7100  0.2878  0.2689
  167SOPE  H12A18760   2.861  -0.147  30.516  1.4750  0.0287  1.7193
  167SOPE  H12B18761   2.918   0.019  30.573  0.4975  1.0404 -0.5016
  167SOPE   C1118762   3.074  -0.098  30.464  0.5135  0.2109 -0.4315
  167SOPE  H11A18763   3.102  -0.164  30.549  0.2141  1.0231  0.3188
  167SOPE  H11B18764   3.143  -0.011  30.474  0.7302 -0.1910  3.1314
  167SOPE     P18765   3.204  -0.267  30.307  0.2031 -0.0204  0.0671
  167SOPE   O1318766   3.312  -0.199  30.234 -1.0402  0.1230 -0.3278
  167SOPE   O1418767   3.155  -0.392  30.240  0.0816  0.5654  0.2296
  167SOPE   O1218768   3.090  -0.168  30.339  0.5636 -0.6393  0.0779
  167SOPE   O1118769   3.245  -0.330  30.453 -0.9530 -0.2793  0.3965
  167SOPE    C118770   3.357  -0.274  30.521  0.1732  0.0279  0.6306
  167SOPE    HA18771   3.328  -0.171  30.548 -1.7971 -0.3726  0.2395
  167SOPE    HB18772   3.451  -0.278  30.461 -0.4198  1.8407 -0.4935
  167SOPE    C218773   3.405  -0.353  30.644 -0.1026  0.0997  0.0172
  167SOPE    HS18774   3.406  -0.464  30.641 -0.4128  0.0602  1.0177
  167SOPE   O2118775   3.326  -0.318  30.763 -0.6357 -0.2280  0.3669
  167SOPE   C2118776   3.198  -0.372  30.763 -0.2739  0.4543 -0.6456
  167SOPE   O2218777   3.154  -0.450  30.684 -0.2856 -0.1263 -0.1711
  167SOPE   C2218778   3.128  -0.322  30.890 -0.0963  0.2455  0.1111
  167SOPE   H2R18779   3.103  -0.214  30.879  0.7126  0.2818 -1.5767
  167SOPE   H2S18780   3.194  -0.332  30.979 -1.3724 -1.1568  0.9709
  167SOPE    C318781   3.553  -0.326  30.677 -0.6319 -0.8191 -0.2131
  167SOPE    HX18782   3.569  -0.378  30.773  2.3104 -0.3399 -0.3607
  167SOPE    HY18783   3.572  -0.217  30.689  1.5367 -1.1743 -0.0669
  167SOPE   O3118784   3.639  -0.374  30.569 -0.1839  0.7089 -0.2365
  167SOPE   C3118785   3.764  -0.378  30.616  0.4407 -0.3610  0.0930
  167SOPE   O3218786   3.798  -0.330  30.720 -0.2551 -0.1569  0.3667
  167SOPE   C3218787   3.847  -0.461  30.515 -0.5633 -0.3835  0.3438
  167SOPE   H2X18788   3.800  -0.464  30.414  1.8140 -2.1831 -0.8158
  167SOPE   H2Y18789   3.862  -0.567  30.543  2.3803 -0.9053 -2.5874
  167SOPE   C2318790   2.993  -0.398  30.914 -1.0287  0.0591  0.4114
  167SOPE   H3R18791   2.968  -0.383  31.021 -1.7345  1.4947  0.0670
  167SOPE   H3S18792   3.006  -0.506  30.888  0.7003  0.0562  1.1545
  167SOPE   C2418793   2.868  -0.343  30.843 -1.0743 -0.0405  0.0202
  167SOPE   H4R18794   2.824  -0.263  30.907 -2.0434 -0.6403  0.1314
  167SOPE   H4S18795   2.901  -0.306  30.744 -2.5535 -0.0123 -0.4949
  167SOPE   C2518796   2.755  -0.442  30.826  0.0057  0.4356 -0.3379
  167SOPE   H5R18797   2.669  -0.391  30.777 -0.1717  0.0215 -0.4671
  167SOPE   H5S18798   2.783  -0.523  30.756 -0.8478  1.2949 -1.7320
  167SOPE   C2618799   2.708  -0.502  30.955 -0.2158  0.1344  0.1283
  167SOPE   H6R18800   2.631  -0.581  30.944 -1.7270  1.5688  0.0683
  167SOPE   H6S18801   2.793  -0.537  31.017  2.0191  2.7298 -1.2452
  167SOPE   C2718802   2.642  -0.406  31.054 -0.5419  0.2164  0.0513
  167SOPE   H7R18803   2.718  -0.328  31.076  0.6685 -0.8649 -0.2254
  167SOPE   H7S18804   2.556  -0.356  31.004 -1.1693 -0.2100  0.6952
  167SOPE   C2818805   2.609  -0.463  31.194  0.4296  0.0652  0.3501
  167SOPE   H8R18806   2.688  -0.522  31.246  0.0610 -0.5767  0.1912
  167SOPE   H8S18807   2.586  -0.380  31.263 -3.6372  2.0762 -2.9696
  167SOPE   C2918808   2.497  -0.564  31.184 -0.1763  0.3846  0.1348
  167SOPE   H9118809   2.535  -0.664  31.159 -0.2243  0.0222  1.4408
  167SOPE  C21018810   2.373  -0.552  31.226  0.0924  0.4115 -0.1602
  167SOPE  H10118811   2.300  -0.635  31.223 -0.5655  1.0039 -0.7924
  167SOPE  C21118812   2.328  -0.426  31.291  0.8281 -0.7816  0.0418
  167SOPE  H11R18813   2.327  -0.346  31.215 -2.9056 -0.3804  0.3072
  167SOPE  H11S18814   2.387  -0.388  31.377  0.0308  0.0476  0.2334
  167SOPE  C21218815   2.183  -0.456  31.336 -0.5497  0.5533 -0.1288
  167SOPE  H12R18816   2.178  -0.528  31.421 -3.2244  0.5726 -0.1784
  167SOPE  H12S18817   2.120  -0.493  31.253  0.1496  3.2717 -2.0113
  167SOPE  C21318818   2.102  -0.329  31.381 -0.5288 -0.1202 -0.4673
  167SOPE  H13R18819   2.113  -0.249  31.305  2.6704 -0.3960 -0.4088
  167SOPE  H13S18820   2.149  -0.290  31.473 -1.1122 -2.3986  0.8832
  167SOPE  C21418821   1.965  -0.373  31.425 -0.4107 -0.3801  0.1232
  167SOPE  H14R18822   1.975  -0.426  31.522 -1.7630 -0.1625  0.4048
  167SOPE  H14S18823   1.901  -0.424  31.350 -1.9817  0.6159  0.7324
  167SOPE  C21518824   1.885  -0.257  31.468  0.4516  0.2136  0.0862
  167SOPE  H15R18825   1.847  -0.205  31.377 -4.2280 -2.3662  0.2352
  167SOPE  H15S18826   1.950  -0.185  31.522 -1.0159  0.3039  1.8317
  167SOPE  C21618827   1.773  -0.297  31.574 -0.6053 -0.0505  0.4719
  167SOPE  H16R18828   1.814  -0.358  31.657  1.3466  0.9035  0.2720
  167SOPE  H16S18829   1.697  -0.365  31.532 -0.6215  0.7896 -0.9451
  167SOPE  C21718830   1.703  -0.184  31.638 -0.1907 -0.2458  0.1766
  167SOPE  H17R18831   1.625  -0.223  31.706 -0.5882 -0.2809 -0.2985
  167SOPE  H17S18832   1.652  -0.118  31.565  0.1718 -1.1911 -0.9587
  167SOPE  C21818833   1.786  -0.086  31.719 -0.9555  0.7171  0.0674
  167SOPE  H18R18834   1.868  -0.039  31.659 -0.4634 -0.6018 -0.3178
  167SOPE  H18S18835   1.827  -0.133  31.811 -1.8271  1.4746  0.8775
  167SOPE  H18T18836   1.713  -0.014  31.763  0.1746  0.1695  3.0969
  167SOPE   C3318837   3.987  -0.392  30.519  0.4758 -0.5783  0.3486
  167SOPE   H3X18838   4.058  -0.472  30.488  1.4146  0.3873 -0.0855
  167SOPE   H3Y18839   4.022  -0.362  30.620 -0.8669 -0.1481  0.6965
  167SOPE   C3418840   3.995  -0.273  30.417 -0.4273  0.0895  0.2726
  167SOPE   H4X18841   3.933  -0.188  30.452  1.9690  1.6563  1.0460
  167SOPE   H4Y18842   3.951  -0.292  30.317 -1.7155  4.4919 -0.1764
  167SOPE   C3518843   4.139  -0.218  30.403 -0.1086 -0.4740  0.5545
  167SOPE   H5X18844   4.196  -0.306  30.367 -1.1547 -0.4316 -1.3411
  167SOPE   H5Y18845   4.180  -0.173  30.496 -0.3452 -0.5752  0.7082
  167SOPE   C3618846   4.172  -0.124  30.285  0.0356  0.3477 -0.1430
  167SOPE   H6X18847   4.114  -0.030  30.284 -1.2766 -0.4367 -0.8393
  167SOPE   H6Y18848   4.164  -0.170  30.184  2.3902 -0.4313 -0.0283
  167SOPE   C3718849   4.315  -0.077  30.285 -0.2624 -0.1602 -0.7555
  167SOPE   H7X18850   4.333  -0.038  30.387 -0.3270  1.8566 -1.4730
  167SOPE   H7Y18851   4.336   0.009  30.218  3.2598  2.3699  3.0949
  167SOPE   C3818852   4.413  -0.185  30.252 -0.0520  0.1756 -0.7488
  167SOPE   H8X18853   4.380  -0.250  30.168  0.5359 -0.7369 -0.2880
  167SOPE   H8Y18854   4.424  -0.244  30.345  2.1686  0.1379 -0.9747
  167SOPE   C3918855   4.556  -0.142  30.221  0.5125  0.2318  0.4262
  167SOPE   H9X18856   4.609  -0.108  30.313  1.1576  1.2161 -0.2835
  167SOPE   H9Y18857   4.550  -0.054  30.153 -3.1522 -0.8131 -0.8477
  167SOPE  C31018858   4.629  -0.253  30.143 -0.2527 -0.9618  0.3451
  167SOPE  H10X18859   4.712  -0.215  30.079 -0.9669 -0.7314 -0.4626
  167SOPE  H10Y18860   4.565  -0.307  30.069  0.3378 -1.1592 -0.0314
  167SOPE  C31118861   4.697  -0.352  30.234 -0.3371 -0.2325  0.2924
  167SOPE  H11X18862   4.622  -0.397  30.303  0.4548 -1.4356  0.3909
  167SOPE  H11Y18863   4.778  -0.307  30.295  1.0854 -0.6398 -1.2244
  167SOPE  C31218864   4.749  -0.462  30.150 -1.1210  0.5080  0.0743
  167SOPE  H12X18865   4.806  -0.432  30.059  0.7080 -0.6965  0.7784
  167SOPE  H12Y18866   4.661  -0.513  30.104 -1.3485  2.4749 -1.8225
  167SOPE  C31318867   4.829  -0.571  30.226 -0.0925 -0.5825 -0.2047
  167SOPE  H13X18868   4.776  -0.574  30.323 -0.6500 -0.4220 -0.4947
  167SOPE  H13Y18869   4.927  -0.522  30.241  0.2381 -1.3840  0.3002
  167SOPE  C31418870   4.846  -0.699  30.150 -0.1768  0.2051 -0.7292
  167SOPE  H14X18871   4.889  -0.688  30.048  1.3511  0.7298 -0.0680
  167SOPE  H14Y18872   4.746  -0.747  30.157  0.1524 -1.2337 -4.0287
  167SOPE  C31518873   4.950  -0.777  30.229  1.2197 -0.4737 -1.0763
  167SOPE  H15X18874   4.903  -0.803  30.326  0.1117 -0.0027 -1.4624
  167SOPE  H15Y18875   5.032  -0.704  30.246 -0.5111  1.1391  0.9772
  167SOPE  C31618876   5.009  -0.906  30.167  0.3854  0.2419 -0.7710
  167SOPE  H16X18877   5.100  -0.927  30.228  0.6093  0.0334 -1.1707
  167SOPE  H16Y18878   5.045  -0.880  30.065  3.0574 -0.8723 -0.1983
  167SOPE  C31718879   4.905  -1.024  30.154  0.1496 -0.5999 -0.5338
  167SOPE  H17X18880   4.940  -1.100  30.081 -0.4303 -1.2158 -0.1833
  167SOPE  H17Y18881   4.804  -1.004  30.112 -0.1551 -1.3665 -0.1708
  167SOPE  C31818882   4.872  -1.085  30.298  0.6747  0.7204  0.0767
  167SOPE  H18X18883   4.944  -1.165  30.323 -1.3927 -1.4313 -0.5223
  167SOPE  H18Y18884   4.774  -1.136  30.301  0.9810  0.1653  1.2120
  167SOPE  H18Z18885   4.866  -1.009  30.379 -2.4979 -1.2628  1.9225
  168SOPE     N18886   2.093   1.896  26.792  0.3691 -0.0709 -0.6567
  168SOPE   HN118887   2.076   1.886  26.690 -0.4627 -1.1355 -0.4326
  168SOPE   HN218888   2.010   1.854  26.839  0.4058  0.8743  0.2839
  168SOPE   HN318889   2.099   1.998  26.810 -0.9108 -0.1627  0.4284
  168SOPE   C1218890   2.206   1.813  26.845 -0.8905  0.0855  0.4714
  168SOPE  H12A18891   2.300   1.854  26.803  0.5338 -2.0206  1.4342
  168SOPE  H12B18892   2.207   1.717  26.788  1.7699  0.4693 -0.2635
  168SOPE   C1118893   2.198   1.785  26.994 -0.2760 -0.9787  0.3467
  168SOPE  H11A18894   2.119   1.709  27.010  0.7742 -1.9923  0.8947
  168SOPE  H11B18895   2.170   1.881  27.041 -2.7228 -0.6135 -1.6152
  168SOPE     P18896   2.353   1.681  27.174  0.3677  0.0308  0.1340
  168SOPE   O1318897   2.353   1.797  27.260  0.0464 -0.4460  0.5439
  168SOPE   O1418898   2.468   1.591  27.168 -0.0159 -0.3478  0.6406
  168SOPE   O1218899   2.318   1.718  27.028  0.1211 -0.1536  0.1273
  168SOPE   O1118900   2.234   1.587  27.217 -0.0828  0.4288  0.1207
  168SOPE    C118901   2.195   1.574  27.354  0.0118  0.0514  0.4154
  168SOPE    HA18902   2.131   1.659  27.386  2.1035  2.0814 -0.5455
  168SOPE    HB18903   2.292   1.571  27.408  0.0289 -1.5820  0.3608
  168SOPE    C218904   2.123   1.443  27.374  0.1714  0.7598  0.5054
  168SOPE    HS18905   2.195   1.362  27.346 -0.3433  0.0440  1.2260
  168SOPE   O2118906   2.002   1.450  27.291  0.3528  0.3485  0.7242
  168SOPE   C2118907   1.955   1.329  27.283  0.2814 -0.6950 -0.3203
  168SOPE   O2218908   2.002   1.229  27.342 -0.0608 -0.5787  1.0822
  168SOPE   C2218909   1.836   1.326  27.183  0.9940  0.6228  0.6681
  168SOPE   H2R18910   1.862   1.248  27.108  0.4255 -0.7384  1.8477
  168SOPE   H2S18911   1.831   1.412  27.113 -1.2940  2.1074  2.4991
  168SOPE    C318912   2.095   1.433  27.527 -0.6552  0.1461 -0.2390
  168SOPE    HX18913   2.197   1.418  27.568 -0.1361  1.0883 -1.1306
  168SOPE    HY18914   2.031   1.345  27.544 -2.5921  1.8906  2.1564
  168SOPE   O3118915   2.039   1.554  27.576 -0.5642 -0.0712 -0.2265
  168SOPE   C3118916   1.910   1.553  27.601 -0.2589  0.1315  0.1510
  168SOPE   O3218917   1.837   1.456  27.614 -0.4110  0.2406  0.1973
  168SOPE   C3218918   1.863   1.693  27.603  0.0222  0.2232  0.3700
  168SOPE   H2X18919   1.919   1.749  27.680 -0.1687  0.5426  0.2792
  168SOPE   H2Y18920   1.761   1.698  27.648  0.3126  0.0207  1.0718
  168SOPE   C2318921   1.701   1.307  27.252 -0.6489 -0.0853 -0.1496
  168SOPE   H3R18922   1.697   1.374  27.340  0.1209 -0.2339  0.0069
  168SOPE   H3S18923   1.691   1.202  27.288 -1.9635 -0.6531 -1.9920
  168SOPE   C2418924   1.595   1.352  27.149 -0.0772  0.4318  0.3851
  168SOPE   H4R18925   1.497   1.346  27.201 -0.1911 -0.0864  0.1204
  168SOPE   H4S18926   1.609   1.459  27.127  0.7740  0.2313 -0.0636
  168SOPE   C2518927   1.593   1.270  27.016 -0.0874  0.5277  0.9825
  168SOPE   H5R18928   1.687   1.279  26.957 -0.9568  2.5720 -0.2026
  168SOPE   H5S18929   1.573   1.161  27.029  2.0741  0.1605  1.6052
  168SOPE   C2618930   1.476   1.326  26.927 -0.6737  0.1283  0.3934
  168SOPE   H6R18931   1.376   1.324  26.975 -2.0193  1.1698 -2.1487
  168SOPE   H6S18932   1.512   1.431  26.923  0.2664 -0.1203  1.7228
  168SOPE   C2718933   1.486   1.276  26.779  1.2026  0.2613 -0.3237
  168SOPE   H7R18934   1.590   1.277  26.740  0.5170  0.8874 -2.2715
  168SOPE   H7S18935   1.457   1.169  26.777  0.2222  0.5142 -1.0467
  168SOPE   C2818936   1.402   1.368  26.699 -0.3096  0.3302  0.1550
  168SOPE   H8R18937   1.298   1.381  26.736 -0.8361 -1.7328 -0.4917
  168SOPE   H8S18938   1.450   1.468  26.702  0.5319  0.0904 -2.6066
  168SOPE   C2918939   1.394   1.327  26.557  0.7423  0.2161  0.3518
  168SOPE   H9118940   1.487   1.290  26.511  1.0742  0.1064  1.0949
  168SOPE  C21018941   1.287   1.333  26.474  0.2958 -0.0338  0.4724
  168SOPE  H10118942   1.305   1.285  26.377 -1.3651 -0.5063  0.3708
  168SOPE  C21118943   1.152   1.394  26.495 -0.1350  0.9618 -0.0642
  168SOPE  H11R18944   1.139   1.480  26.426 -0.9555  1.5465  0.7818
  168SOPE  H11S18945   1.148   1.442  26.596 -4.0487 -1.4387  1.1680
  168SOPE  C21218946   1.035   1.291  26.503  0.3705  1.0439 -0.4234
  168SOPE  H12R18947   1.043   1.212  26.582 -2.1410  1.7841  0.6665
  168SOPE  H12S18948   1.028   1.232  26.409 -1.1514 -3.9273  2.4204
  168SOPE  C21318949   0.898   1.359  26.527 -0.4485 -0.2359  0.3055
  168SOPE  H13R18950   0.906   1.461  26.485 -0.0888 -0.3113  0.1869
  168SOPE  H13S18951   0.885   1.358  26.638  1.1109 -0.7187  0.5165
  168SOPE  C21418952   0.780   1.292  26.452 -0.4232 -0.0438  0.5635
  168SOPE  H14R18953   0.764   1.206  26.520 -0.1615 -0.1137  0.5369
  168SOPE  H14S18954   0.811   1.258  26.351 -2.9239  0.2008 -0.3509
  168SOPE  C21518955   0.647   1.369  26.431  0.2454 -0.1228 -0.2748
  168SOPE  H15R18956   0.579   1.323  26.356  2.6570 -1.6207 -1.7161
  168SOPE  H15S18957   0.673   1.467  26.386  0.2985  0.8217  1.7352
  168SOPE  C21618958   0.576   1.397  26.561  0.0152 -0.9162  0.2403
  168SOPE  H16R18959   0.621   1.486  26.609 -1.4866 -0.4932  0.9535
  168SOPE  H16S18960   0.604   1.314  26.630  0.1790 -1.5048 -0.5243
  168SOPE  C21718961   0.428   1.414  26.551 -0.3371  0.8388  0.4929
  168SOPE  H17R18962   0.380   1.326  26.504 -1.0361  0.4452  1.8861
  168SOPE  H17S18963   0.413   1.503  26.486  0.8798  0.4127 -0.4022
  168SOPE  C21818964   0.360   1.444  26.673 -0.1996  0.2879  1.0162
  168SOPE  H18R18965   0.413   1.516  26.739  0.8790 -0.7805  1.3434
  168SOPE  H18S18966   0.341   1.345  26.721 -2.6381 -1.9330 -3.8583
  168SOPE  H18T18967   0.258   1.487  26.657 -0.3505  0.8506  3.0889
  168SOPE   C3318968   1.846   1.777  27.474 -0.2094  0.0106 -0.3467
  168SOPE   H3X18969   1.944   1.809  27.431  0.0872  0.8319  0.8977
  168SOPE   H3Y18970   1.800   1.875  27.501 -1.1835 -0.3350 -0.7353
  168SOPE   C3418971   1.768   1.702  27.366  0.0480  0.2518  0.5679
  168SOPE   H4X18972   1.668   1.673  27.405 -0.2649 -1.1155 -1.1690
  168SOPE   H4Y18973   1.815   1.602  27.352 -0.1166  0.3433 -0.7649
  168SOPE   C3518974   1.760   1.768  27.225 -0.0846 -0.9906 -0.1678
  168SOPE   H5X18975   1.713   1.696  27.156 -0.5611  0.4418 -1.3932
  168SOPE   H5Y18976   1.862   1.782  27.184 -0.0580  0.1536  0.2493
  168SOPE   C3618977   1.684   1.906  27.240  0.2344  0.5878 -0.0116
  168SOPE   H6X18978   1.725   1.968  27.323 -3.3893  0.6178  1.9576
  168SOPE   H6Y18979   1.582   1.883  27.277  1.2282  1.5027  3.7083
  168SOPE   C3718980   1.677   1.988  27.103 -0.0180 -0.2136 -0.6557
  168SOPE   H7X18981   1.654   1.914  27.024  0.0340 -0.1397 -0.7390
  168SOPE   H7Y18982   1.779   2.028  27.086  0.4569  0.9466  3.6480
  168SOPE   C3818983   1.560   2.085  27.107 -0.2246  0.0545 -0.4996
  168SOPE   H8X18984   1.573   2.162  27.186  1.1359 -0.3203 -0.3184
  168SOPE   H8Y18985   1.473   2.017  27.120 -0.2525  0.4321  1.5803
  168SOPE   C3918986   1.539   2.143  26.969  0.3310 -0.7911  0.2534
  168SOPE   H9X18987   1.559   2.067  26.890 -1.7113  0.0983 -1.2097
  168SOPE   H9Y18988   1.622   2.214  26.951 -0.2974 -0.2895 -0.7127
  168SOPE  C31018989   1.401   2.226  26.960 -0.0224  1.2112 -0.3391
  168SOPE  H10X18990   1.398   2.267  26.857  1.9866 -0.6679 -1.2361
  168SOPE  H10Y18991   1.411   2.310  27.031 -0.1216  0.8606  0.0955
  168SOPE  C31118992   1.268   2.161  26.996  0.7590  0.1035  0.2471
  168SOPE  H11X18993   1.259   2.118  27.098 -1.0604  0.7208  0.3875
  168SOPE  H11Y18994   1.254   2.074  26.928  1.0320 -0.4582  0.9103
  168SOPE  C31218995   1.154   2.256  26.982  0.8777  0.2894  0.5695
  168SOPE  H12X18996   1.148   2.300  26.881 -1.1376 -1.0258  0.0589
  168SOPE  H12Y18997   1.173   2.344  27.047  0.3219 -1.2478  2.9628
  168SOPE  C31318998   1.017   2.196  27.016  0.0168 -0.7296  0.1065
  168SOPE  H13X18999   0.987   2.097  26.974 -1.5696  0.8436 -2.8156
  168SOPE  H13Y19000   0.930   2.253  26.977 -1.0270 -1.5742  1.1356
  168SOPE  C31419001   0.988   2.178  27.166  0.4232  0.9827 -0.3478
  168SOPE  H14X19002   1.078   2.133  27.214  0.5661  1.2599 -0.3526
  168SOPE  H14Y19003   0.908   2.101  27.161  1.3745 -0.0695  0.0976
  168SOPE  C31519004   0.959   2.312  27.242 -0.4673  1.1570  1.0210
  168SOPE  H15X19005   0.887   2.374  27.184  0.4979  1.9627  0.6510
  168SOPE  H15Y19006   1.050   2.369  27.270 -1.3214  2.3791  1.4266
  168SOPE  C31619007   0.876   2.277  27.369  0.1367 -0.0702  0.3065
  168SOPE  H16X19008   0.856   2.357  27.443  0.8450 -1.5259  2.1803
  168SOPE  H16Y19009   0.922   2.193  27.426 -1.0732 -0.4628  0.7366
  168SOPE  C31719010   0.732   2.228  27.338  0.4136 -0.2041 -0.1391
  168SOPE  H17X19011   0.741   2.158  27.253 -0.1739  0.0497 -0.4193
  168SOPE  H17Y19012   0.673   2.318  27.309  2.2316  1.6449  1.4865
  168SOPE  C31819013   0.683   2.144  27.453 -0.2358  0.1184  0.2429
  168SOPE  H18X19014   0.591   2.091  27.420  0.3172  0.9706 -2.9706
  168SOPE  H18Y19015   0.655   2.206  27.541  1.3397  0.8514  0.2561
  168SOPE  H18Z19016   0.761   2.071  27.485  0.3251  1.4352  2.0911
  169SOPE     N19017   0.467   0.608  22.647 -0.7781  0.2662 -0.0737
  169SOPE   HN119018   0.373   0.587  22.607 -1.1008  2.3286 -0.5537
  169SOPE   HN219019   0.539   0.545  22.607  2.3659  2.9767  0.8888
  169SOPE   HN319020   0.455   0.590  22.748  1.0706 -1.1791 -0.0643
  169SOPE   C1219021   0.517   0.746  22.635  0.3062 -0.5700 -0.5680
  169SOPE  H12A19022   0.488   0.790  22.537  1.2292  0.3413 -0.4468
  169SOPE  H12B19023   0.625   0.747  22.660  0.3923  0.0470 -0.9477
  169SOPE   C1119024   0.445   0.842  22.733  0.3984 -0.0012 -0.2447
  169SOPE  H11A19025   0.483   0.946  22.726 -0.7840  0.3061 -2.9711
  169SOPE  H11B19026   0.452   0.802  22.837 -1.5730 -2.2459 -0.8798
  169SOPE     P19027   0.230   0.963  22.637  0.0517  0.2117 -0.2439
  169SOPE   O1319028   0.134   0.911  22.539  0.2880  0.1670 -0.4969
  169SOPE   O1419029   0.342   1.038  22.573  0.0266  0.3396  0.4885
  169SOPE   O1219030   0.302   0.850  22.717 -0.0043 -0.3141 -0.7525
  169SOPE   O1119031   0.158   1.060  22.738  0.3895  0.8864 -0.1675
  169SOPE    C119032   0.204   1.066  22.878  0.7858 -0.2446  0.3541
  169SOPE    HA19033   0.308   1.027  22.882  1.0709  0.3067 -1.2868
  169SOPE    HB19034   0.136   1.002  22.939 -0.1237  0.1250 -0.2585
  169SOPE    C219035   0.199   1.212  22.938  0.1892  0.0262  0.4362
  169SOPE    HS19036   0.282   1.277  22.903 -0.1031  1.7646  2.7513
  169SOPE   O2119037   0.181   1.195  23.083 -0.3467 -0.1120  0.3291
  169SOPE   C2119038   0.297   1.221  23.153  0.4298 -0.6955 -0.9028
  169SOPE   O2219039   0.403   1.251  23.099  0.0138  0.1415 -0.0507
  169SOPE   C2219040   0.276   1.200  23.308 -0.0737  0.2942  0.1777
  169SOPE   H2R19041   0.276   1.090  23.326 -1.0523 -0.2785 -2.7697
  169SOPE   H2S19042   0.170   1.230  23.326 -0.1079 -0.9430  2.4434
  169SOPE    C319043   0.079   1.286  22.881  0.6576  0.2595  0.2050
  169SOPE    HX19044  -0.008   1.219  22.899  0.3677  1.2995  3.1155
  169SOPE    HY19045   0.083   1.292  22.770  2.0705 -0.6918  0.1783
  169SOPE   O3119046   0.058   1.403  22.955  0.6055  0.1347 -0.1444
  169SOPE   C3119047   0.106   1.506  22.893  0.1209  0.4518  0.4634
  169SOPE   O3219048   0.175   1.497  22.789  0.7437 -0.4744  0.3014
  169SOPE   C3219049   0.052   1.639  22.950 -0.1661  0.0164  0.0508
  169SOPE   H2X19050  -0.036   1.618  23.014  1.0686 -1.4748  1.3600
  169SOPE   H2Y19051   0.034   1.707  22.864  0.8306 -0.5555 -0.6234
  169SOPE   C2319052   0.393   1.260  23.391 -0.3323  0.0549 -0.0107
  169SOPE   H3R19053   0.400   1.367  23.361 -2.3250  0.2216 -0.0386
  169SOPE   H3S19054   0.489   1.206  23.380 -0.0612  0.0803  1.9217
  169SOPE   C2419055   0.355   1.270  23.537 -0.2170  0.3491 -0.6758
  169SOPE   H4R19056   0.250   1.305  23.548  0.2709  2.0515 -1.1836
  169SOPE   H4S19057   0.372   1.175  23.591  0.4461  0.4388 -0.7250
  169SOPE   C2519058   0.445   1.367  23.605  0.1122  0.1518  0.4554
  169SOPE   H5R19059   0.551   1.341  23.582  0.6957  2.3259  0.4960
  169SOPE   H5S19060   0.429   1.472  23.575  0.7137  0.1777  0.2020
  169SOPE   C2619061   0.439   1.348  23.764  0.5952  0.1281  0.2959
  169SOPE   H6R19062   0.340   1.394  23.785  0.0563 -1.0199  0.3249
  169SOPE   H6S19063   0.447   1.240  23.788 -1.7657 -0.8902 -2.7716
  169SOPE   C2719064   0.554   1.417  23.837 -0.2355  0.0939  0.0664
  169SOPE   H7R19065   0.645   1.387  23.780 -2.4457 -0.8754 -3.2377
  169SOPE   H7S19066   0.557   1.527  23.820  1.7635 -0.2058 -1.9701
  169SOPE   C2819067   0.559   1.382  23.986  0.2649 -1.6070 -0.1588
  169SOPE   H8R19068   0.534   1.274  23.989 -1.5244 -1.2111  0.7600
  169SOPE   H8S19069   0.657   1.397  24.035  0.5030  1.5031 -1.3669
  169SOPE   C2919070   0.447   1.449  24.065 -0.3027  0.4217  0.5351
  169SOPE   H9119071   0.349   1.402  24.051 -1.0220  2.0693 -0.1935
  169SOPE  C21019072   0.443   1.552  24.153  0.2006  0.7451  0.6553
  169SOPE  H10119073   0.345   1.586  24.190 -0.2879  1.6419 -1.3169
  169SOPE  C21119074   0.550   1.640  24.197  0.5821 -1.1942  0.1347
  169SOPE  H11R19075   0.545   1.728  24.130 -2.0923 -0.4905  1.1073
  169SOPE  H11S19076   0.648   1.588  24.191  0.7261 -0.7759 -2.5134
  169SOPE  C21219077   0.524   1.689  24.338 -0.3637 -0.1845  0.5071
  169SOPE  H12R19078   0.422   1.732  24.349  0.1991  1.6209 -0.8508
  169SOPE  H12S19079   0.590   1.777  24.355 -2.0378  1.1888  0.2566
  169SOPE  C21319080   0.567   1.583  24.435  0.5308 -0.4454  0.0644
  169SOPE  H13R19081   0.671   1.554  24.408  0.2496  1.0310 -2.9624
  169SOPE  H13S19082   0.506   1.490  24.426  0.5689 -0.6688  1.7580
  169SOPE  C21419083   0.562   1.630  24.584  0.3709 -0.0161 -0.0980
  169SOPE  H14R19084   0.456   1.628  24.617 -0.1755  3.5510 -1.2318
  169SOPE  H14S19085   0.596   1.735  24.577  2.8779 -0.8234 -1.2255
  169SOPE  C21519086   0.666   1.547  24.662 -0.3514 -0.4315  0.0778
  169SOPE  H15R19087   0.756   1.538  24.597  0.6865 -0.0759  1.4023
  169SOPE  H15S19088   0.642   1.441  24.688 -1.8735 -0.6308 -1.9408
  169SOPE  C21619089   0.708   1.615  24.790  0.4398 -0.0587  0.0268
  169SOPE  H16R19090   0.659   1.713  24.807 -0.6710 -0.4599 -0.7613
  169SOPE  H16S19091   0.815   1.643  24.800  0.4656 -0.4371  0.9242
  169SOPE  C21719092   0.672   1.533  24.918  0.1592  0.1795  0.7268
  169SOPE  H17R19093   0.699   1.426  24.904 -0.5678 -0.0554  1.0552
  169SOPE  H17S19094   0.569   1.543  24.958  0.3093  2.1527  0.6823
  169SOPE  C21819095   0.765   1.578  25.030  0.2596  0.0761 -0.7488
  169SOPE  H18R19096   0.734   1.533  25.126 -0.0910  2.5667  0.3978
  169SOPE  H18S19097   0.746   1.687  25.040  1.0828  0.0733  1.7728
  169SOPE  H18T19098   0.873   1.558  25.012  0.4016 -2.8743  2.3265
  169SOPE   C3319099   0.153   1.706  23.052 -0.0268 -0.0615  0.1738
  169SOPE   H3X19100   0.136   1.816  23.053 -0.6810 -0.1182  3.0090
  169SOPE   H3Y19101   0.256   1.689  23.013 -0.0484 -1.0820  0.5341
  169SOPE   C3419102   0.146   1.648  23.189 -0.1376 -0.2144  0.1071
  169SOPE   H4X19103   0.166   1.539  23.182  0.6714 -0.1778  1.4494
  169SOPE   H4Y19104   0.046   1.665  23.234 -0.8760 -1.7524 -0.8506
  169SOPE   C3519105   0.260   1.714  23.270 -0.0876  0.1915  0.6053
  169SOPE   H5X19106   0.259   1.824  23.263 -1.0647  0.1464 -0.2807
  169SOPE   H5Y19107   0.365   1.689  23.243  0.1114 -0.2615  1.7226
  169SOPE   C3619108   0.250   1.668  23.420 -0.4077  0.5884  0.2376
  169SOPE   H6X19109   0.281   1.562  23.428 -2.7553 -0.1159  0.6105
  169SOPE   H6Y19110   0.146   1.676  23.457 -0.6221 -0.7719 -0.0301
  169SOPE   C3719111   0.337   1.731  23.528 -0.1959 -1.1183  0.6005
  169SOPE   H7X19112   0.444   1.711  23.508 -0.1532 -0.6344  0.3271
  169SOPE   H7Y19113   0.302   1.679  23.620  2.0366  2.0580  3.5117
  169SOPE   C3819114   0.319   1.881  23.560  0.2438  0.8357  0.3987
  169SOPE   H8X19115   0.365   1.941  23.479  1.9668  0.5804  1.1596
  169SOPE   H8Y19116   0.209   1.897  23.564 -0.1621 -1.7485  2.7895
  169SOPE   C3919117   0.392   1.919  23.689 -0.0628 -0.2682 -0.4454
  169SOPE   H9X19118   0.396   2.030  23.695  0.6976 -0.3242  0.1239
  169SOPE   H9Y19119   0.498   1.887  23.689 -0.4849 -1.8390  1.1755
  169SOPE  C31019120   0.334   1.853  23.810  0.2565  0.3782  0.4600
  169SOPE  H10X19121   0.347   1.744  23.792  0.9120  0.5396 -0.0872
  169SOPE  H10Y19122   0.225   1.871  23.823 -0.1622 -1.1510 -0.6460
  169SOPE  C31119123   0.411   1.896  23.932 -0.1494  0.4707 -0.2155
  169SOPE  H11X19124   0.521   1.897  23.918 -0.1153  1.1694  0.0700
  169SOPE  H11Y19125   0.395   1.824  24.015  0.8951 -0.5490 -0.8687
  169SOPE  C31219126   0.384   2.029  23.993  0.6644  0.2099  0.2745
  169SOPE  H12X19127   0.288   2.012  24.046 -0.3318  0.0427 -1.4866
  169SOPE  H12Y19128   0.361   2.110  23.920 -1.0339  0.7946  1.4086
  169SOPE  C31319129   0.479   2.065  24.105  0.0004 -0.6075 -0.3927
  169SOPE  H13X19130   0.576   2.102  24.065 -0.5342  3.0403  1.3092
  169SOPE  H13Y19131   0.513   1.976  24.161 -0.5422 -0.1181  0.7405
  169SOPE  C31419132   0.421   2.173  24.197  0.0743  1.3001  0.0424
  169SOPE  H14X19133   0.371   2.118  24.279  1.2859  0.7115  0.3983
  169SOPE  H14Y19134   0.354   2.243  24.141  0.1750  1.2167 -0.1850
  169SOPE  C31519135   0.518   2.250  24.291  0.5870 -0.3923  0.8471
  169SOPE  H15X19136   0.457   2.329  24.340 -0.6700 -0.5186 -0.4306
  169SOPE  H15Y19137   0.592   2.295  24.221  3.8545 -0.4801  3.9727
  169SOPE  C31619138   0.580   2.159  24.393  0.4845 -0.4723 -0.6208
  169SOPE  H16X19139   0.650   2.084  24.350  1.5276 -0.3750  0.8290
  169SOPE  H16Y19140   0.499   2.105  24.447  0.7558 -0.7521 -0.4913
  169SOPE  C31719141   0.654   2.248  24.493  0.0233 -0.1002 -0.4951
  169SOPE  H17X19142   0.578   2.328  24.508 -0.9183 -0.9790 -0.4889
  169SOPE  H17Y19143   0.749   2.281  24.445 -0.0520 -1.1713 -1.4333
  169SOPE  C31819144   0.678   2.168  24.620  0.2619  0.4605 -0.6572
  169SOPE  H18X19145   0.750   2.214  24.691 -2.1721  0.5416  1.9683
  169SOPE  H18Y19146   0.707   2.063  24.598  0.6501  0.4541 -0.1411
  169SOPE  H18Z19147   0.588   2.157  24.685 -0.1077 -0.0624 -1.2492
  170SOPE     N19148   2.200   1.699  22.354 -0.0633 -0.3617 -0.0604
  170SOPE   HN119149   2.128   1.726  22.425 -1.5756 -0.8640 -1.3303
  170SOPE   HN219150   2.298   1.722  22.378 -0.3116  0.9509 -0.2259
  170SOPE   HN319151   2.168   1.739  22.263  0.2488 -0.9203 -0.4223
  170SOPE   C1219152   2.188   1.558  22.347 -0.3123  0.0803  0.7148
  170SOPE  H12A19153   2.246   1.507  22.267 -2.6417 -0.6082 -0.6055
  170SOPE  H12B19154   2.085   1.523  22.328 -0.2258  0.4052 -0.4077
  170SOPE   C1119155   2.234   1.499  22.484 -0.0248  0.0786  0.2889
  170SOPE  H11A19156   2.245   1.389  22.470 -1.8566 -0.1715  0.5541
  170SOPE  H11B19157   2.152   1.510  22.558  0.4316  0.5923  0.7290
  170SOPE     P19158   2.463   1.471  22.628 -0.6029 -0.3525 -0.0406
  170SOPE   O1319159   2.564   1.569  22.671 -0.0118 -0.0736 -0.0991
  170SOPE   O1419160   2.517   1.357  22.552  0.3167  0.9946  0.3768
  170SOPE   O1219161   2.359   1.548  22.538 -0.4067  0.4132  0.0954
  170SOPE   O1119162   2.375   1.423  22.754  0.2728  0.2893  0.1943
  170SOPE    C119163   2.290   1.521  22.824 -0.6861  0.2663  1.2549
  170SOPE    HA19164   2.185   1.491  22.807 -0.4817  0.1914  0.0384
  170SOPE    HB19165   2.316   1.620  22.780 -0.2837 -0.9634 -1.4643
  170SOPE    C219166   2.321   1.524  22.979 -0.7610 -0.0134 -0.3713
  170SOPE    HS19167   2.258   1.607  23.018 -0.9265 -0.5121  0.4453
  170SOPE   O2119168   2.460   1.553  23.011 -0.9222 -0.8762  0.5433
  170SOPE   C2119169   2.513   1.671  22.987 -0.9348  0.0361 -0.7966
  170SOPE   O2219170   2.459   1.771  22.959  0.4591 -0.2793 -0.2927
  170SOPE   C2219171   2.666   1.658  22.983 -0.7034  0.0794  0.4693
  170SOPE   H2R19172   2.702   1.758  22.950  0.2867 -0.5214 -0.3258
  170SOPE   H2S19173   2.695   1.580  22.910  1.5569 -1.5141  2.8898
  170SOPE    C319174   2.274   1.393  23.041  0.3295  0.6621 -0.3782
  170SOPE    HX19175   2.340   1.308  23.015  0.0009  0.4624 -0.5626
  170SOPE    HY19176   2.171   1.371  23.006  0.5285  1.7967 -1.7952
  170SOPE   O3119177   2.271   1.409  23.189  0.7098 -0.1947  0.3379
  170SOPE   C3119178   2.286   1.297  23.254 -0.4208 -0.5472 -0.4797
  170SOPE   O3219179   2.293   1.186  23.210  0.3007 -0.6081  0.5693
  170SOPE   C3219180   2.299   1.334  23.403 -0.1499 -0.1541  0.3488
  170SOPE   H2X19181   2.216   1.283  23.455 -0.6964 -1.2437 -1.4992
  170SOPE   H2Y19182   2.279   1.442  23.418  0.4207 -0.1463  1.1187
  170SOPE   C2319183   2.721   1.608  23.121  0.0554 -0.5513 -0.0179
  170SOPE   H3R19184   2.830   1.587  23.109  0.2382 -0.7342  1.7489
  170SOPE   H3S19185   2.664   1.526  23.169  1.6963  0.2947  3.7403
  170SOPE   C2419186   2.718   1.712  23.232  0.0828 -0.2663  0.8317
  170SOPE   H4R19187   2.748   1.811  23.191  1.5376 -1.0334 -0.0796
  170SOPE   H4S19188   2.611   1.724  23.258  0.2463  0.8099  1.0438
  170SOPE   C2519189   2.790   1.684  23.363 -0.1015 -0.3785 -0.2340
  170SOPE   H5R19190   2.738   1.609  23.427 -0.6602 -1.1924 -1.6087
  170SOPE   H5S19191   2.889   1.641  23.338  0.2578  0.1724  0.2295
  170SOPE   C2619192   2.799   1.810  23.449 -0.8522  0.3976  0.1496
  170SOPE   H6R19193   2.839   1.891  23.384 -1.6298  0.9490  0.3431
  170SOPE   H6S19194   2.702   1.842  23.494 -0.9674  2.4001 -1.3837
  170SOPE   C2719195   2.890   1.785  23.576  0.3101 -0.2505  0.3864
  170SOPE   H7R19196   2.830   1.726  23.648 -2.8034  1.5381 -0.5179
  170SOPE   H7S19197   2.980   1.729  23.543 -0.0216 -0.7625  0.3393
  170SOPE   C2819198   2.930   1.903  23.655  0.2090 -0.7382  0.3323
  170SOPE   H8R19199   2.974   1.970  23.579  3.5855 -2.3122  0.7171
  170SOPE   H8S19200   2.843   1.952  23.703  0.6183 -0.3718  0.6999
  170SOPE   C2919201   3.034   1.883  23.758 -0.0176 -0.0566 -0.2161
  170SOPE   H9119202   3.136   1.861  23.723 -0.1989 -0.7378 -0.3337
  170SOPE  C21019203   3.025   1.905  23.893 -0.7455 -0.1922  0.0252
  170SOPE  H10119204   3.112   1.876  23.954  1.1593 -0.7246 -2.7669
  170SOPE  C21119205   2.903   1.955  23.963  0.5284  0.3882  0.5967
  170SOPE  H11R19206   2.876   1.885  24.045  0.0850  0.5620  0.6018
  170SOPE  H11S19207   2.816   1.953  23.893 -1.0141 -0.8025  2.4563
  170SOPE  C21219208   2.903   2.100  24.003 -0.2617 -0.6030 -0.1521
  170SOPE  H12R19209   2.919   2.164  23.914  0.8655  0.5495  0.8314
  170SOPE  H12S19210   2.985   2.127  24.073  0.1063 -0.4091 -0.6542
  170SOPE  C21319211   2.761   2.132  24.067  0.1481  0.7593 -0.4118
  170SOPE  H13R19212   2.687   2.073  24.009  1.0218  1.3775 -2.2240
  170SOPE  H13S19213   2.736   2.238  24.044  3.5050  1.4620 -1.3975
  170SOPE  C21419214   2.763   2.106  24.221  0.6131  0.0785  0.5614
  170SOPE  H14R19215   2.816   2.010  24.238 -0.3705 -0.6931 -0.5410
  170SOPE  H14S19216   2.657   2.093  24.252  0.5042 -1.4399 -0.3505
  170SOPE  C21519217   2.836   2.221  24.292 -0.1188  0.1536  0.0015
  170SOPE  H15R19218   2.779   2.314  24.274 -2.0439 -0.8643  0.5612
  170SOPE  H15S19219   2.939   2.225  24.251  0.5854  1.7724  1.7953
  170SOPE  C21619220   2.833   2.200  24.446  0.3775  0.3247  0.5997
  170SOPE  H16R19221   2.883   2.102  24.463  1.5425  0.3748 -2.0605
  170SOPE  H16S19222   2.732   2.201  24.492 -0.0780  0.3109 -0.3934
  170SOPE  C21719223   2.901   2.319  24.526  0.3195 -0.3715  0.4441
  170SOPE  H17R19224   2.877   2.419  24.482  4.3884  0.5647 -0.0318
  170SOPE  H17S19225   3.005   2.308  24.489  0.3248 -0.2498  0.4193
  170SOPE  C21819226   2.903   2.313  24.675  0.2885  0.1516  0.1905
  170SOPE  H18R19227   2.909   2.209  24.714  3.5913 -0.2523 -1.0580
  170SOPE  H18S19228   2.818   2.367  24.723  0.4295  0.8603 -0.3333
  170SOPE  H18T19229   2.990   2.368  24.717 -1.3188  2.0936  1.1236
  170SOPE   C3319230   2.440   1.299  23.449  0.4722  0.4078  0.5503
  170SOPE   H3X19231   2.520   1.319  23.374 -0.4698  0.4270 -0.4721
  170SOPE   H3Y19232   2.443   1.188  23.449  0.1796  0.2911 -2.6595
  170SOPE   C3419233   2.473   1.364  23.582  0.2644 -0.1536  0.9540
  170SOPE   H4X19234   2.448   1.472  23.593  2.1540  0.6011 -1.3025
  170SOPE   H4Y19235   2.584   1.362  23.584  0.3258  0.3744 -0.2901
  170SOPE   C3519236   2.418   1.291  23.700 -0.2693  0.2690  0.3097
  170SOPE   H5X19237   2.457   1.188  23.695  0.7988  0.7129 -3.4453
  170SOPE   H5Y19238   2.310   1.290  23.670 -0.4645  5.3508 -0.1449
  170SOPE   C3619239   2.455   1.354  23.835 -0.3627 -0.6220 -0.4550
  170SOPE   H6X19240   2.455   1.465  23.830 -0.2788 -0.5644  0.6115
  170SOPE   H6Y19241   2.557   1.316  23.855 -0.3659 -0.0531  0.7000
  170SOPE   C3719242   2.369   1.302  23.949  0.3098 -1.0259 -0.7231
  170SOPE   H7X19243   2.385   1.193  23.933  1.2884 -0.8772 -0.8349
  170SOPE   H7Y19244   2.261   1.322  23.938  0.1265 -2.6599 -2.2392
  170SOPE   C3819245   2.422   1.344  24.087 -0.2273  0.0469  0.5419
  170SOPE   H8X19246   2.355   1.292  24.159  1.4339 -3.5780 -0.2967
  170SOPE   H8Y19247   2.404   1.452  24.102 -1.3417 -0.3107  2.0936
  170SOPE   C3919248   2.567   1.303  24.115  0.0323 -0.0392  0.4212
  170SOPE   H9X19249   2.640   1.360  24.055  0.0266 -0.7471 -0.2876
  170SOPE   H9Y19250   2.579   1.195  24.089  3.0867  0.3284 -0.0180
  170SOPE  C31019251   2.617   1.334  24.258  0.4573  0.0794 -0.9379
  170SOPE  H10X19252   2.717   1.288  24.270 -0.0226 -1.0988 -1.2467
  170SOPE  H10Y19253   2.552   1.277  24.327  2.9972 -1.1294  0.5911
  170SOPE  C31119254   2.621   1.478  24.294 -0.4662  0.0450  0.1395
  170SOPE  H11X19255   2.514   1.507  24.293 -0.2621  0.8068 -0.5093
  170SOPE  H11Y19256   2.650   1.538  24.205  1.1387 -0.9506 -0.0626
  170SOPE  C31219257   2.707   1.498  24.419 -0.4317 -0.2789  0.0504
  170SOPE  H12X19258   2.809   1.477  24.382 -0.6138  0.8111 -1.1570
  170SOPE  H12Y19259   2.688   1.422  24.498 -1.5186  0.8336  0.9180
  170SOPE  C31319260   2.695   1.632  24.474  0.1582  0.0330  0.9408
  170SOPE  H13X19261   2.587   1.656  24.478  0.7394  3.1109  0.6474
  170SOPE  H13Y19262   2.740   1.706  24.404  0.0832 -0.9905 -0.2067
  170SOPE  C31419263   2.752   1.668  24.612 -0.0760 -0.1830 -0.2633
  170SOPE  H14X19264   2.860   1.647  24.594 -0.4520 -1.0711 -1.6520
  170SOPE  H14Y19265   2.728   1.600  24.697  0.3634  2.1400  1.8621
  170SOPE  C31519266   2.734   1.818  24.653  0.3429  0.7966  0.0858
  170SOPE  H15X19267   2.629   1.852  24.641  0.0485 -0.9682 -3.7265
  170SOPE  H15Y19268   2.796   1.889  24.594  2.4006 -0.9942 -0.0387
  170SOPE  C31619269   2.757   1.839  24.812 -0.3157 -0.6023 -0.3749
  170SOPE  H16X19270   2.865   1.822  24.828 -0.5332  0.1021  2.2765
  170SOPE  H16Y19271   2.700   1.761  24.867  0.6067 -2.7037 -2.2431
  170SOPE  C31719272   2.731   1.984  24.857 -0.1900 -0.2927 -0.4694
  170SOPE  H17X19273   2.778   2.049  24.781 -0.4671  0.6874  0.1654
  170SOPE  H17Y19274   2.784   2.003  24.953 -0.2457 -3.1507  0.2180
  170SOPE  C31819275   2.589   2.018  24.883  0.7979 -0.2205  0.4092
  170SOPE  H18X19276   2.553   1.966  24.974  1.7667 -0.9872  0.3702
  170SOPE  H18Y19277   2.524   1.991  24.797  1.9090  0.2298 -0.6075
  170SOPE  H18Z19278   2.576   2.128  24.895  1.8477 -0.1295  0.7876
  171SOPE     N19279   1.405   1.469  22.718 -0.2093 -0.1200  0.6659
  171SOPE   HN119280   1.449   1.561  22.701 -0.2403 -0.2773 -0.3819
  171SOPE   HN219281   1.415   1.408  22.633 -2.8163  0.5668 -0.2381
  171SOPE   HN319282   1.304   1.481  22.740 -0.4418 -0.3384 -0.2081
  171SOPE   C1219283   1.471   1.398  22.837 -0.2453  0.3771 -0.4378
  171SOPE  H12A19284   1.441   1.447  22.932  3.7636  0.3856  1.0193
  171SOPE  H12B19285   1.582   1.402  22.830 -0.2062  2.1741  0.6842
  171SOPE   C1119286   1.413   1.261  22.840  0.9912 -0.4960 -0.4833
  171SOPE  H11A19287   1.302   1.259  22.852  1.0904  0.5633  0.9090
  171SOPE  H11B19288   1.454   1.216  22.932  3.1876  1.4857 -0.3923
  171SOPE     P19289   1.488   1.048  22.718 -0.0753 -0.0545 -0.0184
  171SOPE   O1319290   1.584   1.024  22.608 -0.1278  0.0606 -0.3613
  171SOPE   O1419291   1.364   0.964  22.719  0.1217 -0.2284  0.2969
  171SOPE   O1219292   1.443   1.198  22.719  0.1656 -0.5107 -0.1857
  171SOPE   O1119293   1.561   1.026  22.856  0.0652 -0.4281 -0.3659
  171SOPE    C119294   1.599   0.890  22.882  0.6965  0.1072 -0.2892
  171SOPE    HA19295   1.683   0.849  22.821  1.4419 -1.2090  1.5371
  171SOPE    HB19296   1.513   0.821  22.871 -0.4765  1.3502  0.7775
  171SOPE    C219297   1.627   0.886  23.034 -0.1977  0.2475  0.2286
  171SOPE    HS19298   1.529   0.909  23.080 -0.1848  1.9315 -0.4984
  171SOPE   O2119299   1.722   0.985  23.063 -0.1456 -0.7415  0.1639
  171SOPE   C2119300   1.724   1.029  23.191  0.5292  0.2233 -0.3469
  171SOPE   O2219301   1.634   1.003  23.270  0.3956  0.9282  0.7470
  171SOPE   C2219302   1.833   1.131  23.213  0.5251  0.8875 -0.1974
  171SOPE   H2R19303   1.847   1.151  23.322 -2.2955 -3.5561  1.2497
  171SOPE   H2S19304   1.793   1.221  23.162  0.4175  1.0716  0.2073
  171SOPE    C319305   1.687   0.742  23.072  0.1463 -0.6224  0.4143
  171SOPE    HX19306   1.777   0.748  23.007 -0.6071  1.6225 -0.5184
  171SOPE    HY19307   1.626   0.658  23.033  0.6158 -0.8768  0.2082
  171SOPE   O3119308   1.726   0.729  23.206 -0.2041 -0.4253 -0.3306
  171SOPE   C3119309   1.618   0.694  23.284 -0.6368  0.2319 -0.4307
  171SOPE   O3219310   1.512   0.668  23.236  0.2611 -0.3885 -0.2208
  171SOPE   C3219311   1.663   0.707  23.433  0.3816  0.1506  0.1004
  171SOPE   H2X19312   1.615   0.800  23.473 -4.6870 -1.7467 -0.8591
  171SOPE   H2Y19313   1.774   0.707  23.440  0.3186 -0.4510  1.5485
  171SOPE   C2319314   1.965   1.091  23.154 -0.5378 -0.4099 -0.2636
  171SOPE   H3R19315   2.009   1.192  23.168 -2.3558  0.3571  0.2755
  171SOPE   H3S19316   1.957   1.073  23.044  0.4494 -1.0704 -0.2397
  171SOPE   C2419317   2.041   0.973  23.225 -0.2476  0.2216  0.0814
  171SOPE   H4R19318   2.009   0.877  23.179 -0.4546  1.6253 -2.9397
  171SOPE   H4S19319   2.147   0.981  23.194  0.0581  0.2322  1.0929
  171SOPE   C2519320   2.040   0.974  23.374  0.0779  0.6879  0.1903
  171SOPE   H5R19321   2.080   1.072  23.408  0.5264  0.8612 -0.7866
  171SOPE   H5S19322   1.933   0.974  23.405  0.1808 -0.4225  0.5852
  171SOPE   C2619323   2.109   0.854  23.431 -0.5432  0.2243 -0.5861
  171SOPE   H6R19324   2.098   0.764  23.368 -0.2152 -1.4211  1.5686
  171SOPE   H6S19325   2.220   0.860  23.435 -0.5386 -0.3701  0.5132
  171SOPE   C2719326   2.043   0.823  23.567 -0.7385  0.0428  1.2390
  171SOPE   H7R19327   2.071   0.914  23.624 -0.8132  0.1695  1.0775
  171SOPE   H7S19328   1.934   0.829  23.547 -0.2592  1.7774 -1.5564
  171SOPE   C2819329   2.087   0.695  23.638  0.0533 -0.4121  0.1064
  171SOPE   H8R19330   2.007   0.673  23.712 -2.0753  0.4936 -1.7975
  171SOPE   H8S19331   2.084   0.612  23.564 -1.0564 -0.3598  0.0759
  171SOPE   C2919332   2.228   0.700  23.697  0.1857  0.2228  0.4790
  171SOPE   H9119333   2.304   0.648  23.637  0.0198  1.9778 -1.3585
  171SOPE  C21019334   2.255   0.743  23.819 -0.1734  0.1535  0.0568
  171SOPE  H10119335   2.361   0.753  23.848 -0.4097 -1.0252  1.4408
  171SOPE  C21119336   2.163   0.805  23.917 -0.5150  0.4355 -0.0281
  171SOPE  H11R19337   2.130   0.724  23.985 -1.1817  1.2641  0.6659
  171SOPE  H11S19338   2.073   0.844  23.863  0.3787  1.4311 -0.8520
  171SOPE  C21219339   2.232   0.919  24.004  0.0214 -0.5647  0.2630
  171SOPE  H12R19340   2.153   0.993  24.032  0.4978 -0.4795  1.4233
  171SOPE  H12S19341   2.298   0.985  23.943  0.6338 -1.8243 -0.4681
  171SOPE  C21319342   2.299   0.865  24.133  0.4158 -0.1026 -0.1237
  171SOPE  H13R19343   2.383   0.809  24.087  0.7428 -1.0848  1.5742
  171SOPE  H13S19344   2.233   0.785  24.173 -0.6312  1.4778  1.4453
  171SOPE  C21419345   2.339   0.965  24.238  0.2977 -0.9056 -0.2004
  171SOPE  H14R19346   2.247   1.005  24.285 -0.0010 -0.0449 -1.4838
  171SOPE  H14S19347   2.403   1.048  24.200  0.0561  0.4066  2.0533
  171SOPE  C21519348   2.412   0.896  24.350 -0.2005  0.2077  0.5033
  171SOPE  H15R19349   2.478   0.820  24.302  0.0096 -0.8575  2.3743
  171SOPE  H15S19350   2.343   0.839  24.416 -1.5195 -0.4236 -1.3616
  171SOPE  C21619351   2.486   0.993  24.450  0.5699  0.4050 -0.0031
  171SOPE  H16R19352   2.478   0.952  24.553  1.5010 -0.4018 -0.2395
  171SOPE  H16S19353   2.454   1.099  24.454  4.6904  1.7913  1.8048
  171SOPE  C21719354   2.636   0.982  24.415 -0.8119 -0.0748  0.2149
  171SOPE  H17R19355   2.646   1.025  24.313 -0.5925  0.9077  0.6392
  171SOPE  H17S19356   2.681   0.881  24.425 -1.3432 -0.3927 -0.5023
  171SOPE  C21819357   2.705   1.079  24.500  0.4140  0.2617 -0.6259
  171SOPE  H18R19358   2.795   1.124  24.451  1.3600 -2.1076 -1.1992
  171SOPE  H18S19359   2.745   1.032  24.593  1.7436 -0.7316 -1.6624
  171SOPE  H18T19360   2.636   1.159  24.534  0.9888  0.6834 -0.4227
  171SOPE   C3319361   1.606   0.593  23.516 -0.8532 -0.1539  0.0383
  171SOPE   H3X19362   1.610   0.497  23.461 -1.3039  0.8231 -1.7855
  171SOPE   H3Y19363   1.498   0.609  23.536 -0.5934  0.1576  1.2929
  171SOPE   C3419364   1.681   0.591  23.647  0.4405 -0.3445  0.0888
  171SOPE   H4X19365   1.672   0.700  23.667  2.1648  0.1817 -1.7121
  171SOPE   H4Y19366   1.788   0.570  23.629  0.4803 -1.2413  1.2447
  171SOPE   C3519367   1.632   0.503  23.763 -0.2640 -0.5400 -0.1617
  171SOPE   H5X19368   1.682   0.407  23.737  0.0021 -0.3841 -0.2217
  171SOPE   H5Y19369   1.521   0.501  23.756 -0.2450 -1.2725 -0.3049
  171SOPE   C3619370   1.680   0.553  23.900  0.2568  0.1553 -0.0812
  171SOPE   H6X19371   1.789   0.571  23.890  0.6829 -1.0128  1.8731
  171SOPE   H6Y19372   1.668   0.477  23.980 -0.1980  0.8104  0.4889
  171SOPE   C3719373   1.618   0.689  23.948  0.4331  0.0272 -0.0389
  171SOPE   H7X19374   1.571   0.745  23.865  1.0553  0.5116 -0.0711
  171SOPE   H7Y19375   1.700   0.747  23.995  1.1147 -0.5745 -0.4747
  171SOPE   C3819376   1.500   0.677  24.046 -0.0433 -0.3221  0.1891
  171SOPE   H8X19377   1.532   0.600  24.119 -1.7378 -0.3541  0.9208
  171SOPE   H8Y19378   1.403   0.639  24.010 -0.3878  1.1667 -0.5470
  171SOPE   C3919379   1.468   0.808  24.127  0.3608  1.0434  0.0067
  171SOPE   H9X19380   1.560   0.858  24.166  1.3532 -0.0460 -0.8389
  171SOPE   H9Y19381   1.431   0.774  24.226  2.0298 -0.3706  0.1882
  171SOPE  C31019382   1.369   0.903  24.065  0.3750 -0.8869  0.7464
  171SOPE  H10X19383   1.271   0.862  24.032 -0.5461  0.7115  1.3588
  171SOPE  H10Y19384   1.419   0.960  23.984 -2.1359 -0.5931 -0.7221
  171SOPE  C31119385   1.310   1.002  24.169 -0.1446 -0.1001  0.4518
  171SOPE  H11X19386   1.378   1.090  24.172  0.5142 -0.4547 -1.9410
  171SOPE  H11Y19387   1.313   0.961  24.273  2.0094  0.3738  0.6365
  171SOPE  C31219388   1.167   1.050  24.145 -0.9541 -0.1741  0.5915
  171SOPE  H12X19389   1.092   0.968  24.148  0.0956 -1.1574  0.5617
  171SOPE  H12Y19390   1.162   1.107  24.050  2.4893  2.0173  1.5386
  171SOPE  C31319391   1.123   1.146  24.257 -0.5037 -0.5097  0.3446
  171SOPE  H13X19392   1.200   1.226  24.261 -0.3296 -0.4152 -2.5576
  171SOPE  H13Y19393   1.132   1.099  24.357  2.3907 -2.1512 -0.5618
  171SOPE  C31419394   0.989   1.212  24.231 -0.7859  0.1795 -0.0868
  171SOPE  H14X19395   0.990   1.259  24.131  0.9164  0.7074  0.1452
  171SOPE  H14Y19396   0.962   1.283  24.312 -0.6505 -2.6488  2.6785
  171SOPE  C31519397   0.874   1.110  24.235  0.1882 -0.1567 -0.0687
  171SOPE  H15X19398   0.879   1.032  24.314 -1.1159 -0.8453 -0.6449
  171SOPE  H15Y19399   0.875   1.059  24.137  0.0094 -1.2899  0.5102
  171SOPE  C31619400   0.740   1.185  24.245  0.1459  0.2476 -0.4612
  171SOPE  H16X19401   0.735   1.250  24.155  0.5593  0.3114 -0.4379
  171SOPE  H16Y19402   0.737   1.236  24.343  3.2186  0.4820 -0.3882
  171SOPE  C31719403   0.626   1.084  24.231 -0.3680  0.1597  0.3098
  171SOPE  H17X19404   0.655   1.010  24.308  1.3412  0.3822 -0.0852
  171SOPE  H17Y19405   0.626   1.027  24.136 -1.6800  0.6227  0.0007
  171SOPE  C31819406   0.492   1.146  24.265 -0.6625  0.2017 -0.2416
  171SOPE  H18X19407   0.426   1.057  24.266  0.5126 -0.7010  0.4737
  171SOPE  H18Y19408   0.455   1.209  24.182 -0.7912 -2.6851 -2.5283
  171SOPE  H18Z19409   0.490   1.184  24.370 -1.6829 -0.8300  0.1368
  172SOPE     N19410   3.318   1.846  30.561  0.5208 -0.0176  0.2501
  172SOPE   HN119411   3.251   1.767  30.567 -0.8077  1.1380  1.3811
  172SOPE   HN219412   3.317   1.883  30.464  0.9039 -1.8479 -0.4946
  172SOPE   HN319413   3.410   1.808  30.591  0.2223 -0.2419  0.8940
  172SOPE   C1219414   3.252   1.954  30.648 -0.1383  0.4516  0.0133
  172SOPE  H12A19415   3.150   1.974  30.609 -0.0189  0.3454 -0.3484
  172SOPE  H12B19416   3.315   2.045  30.658 -2.2603  1.8794  1.2681
  172SOPE   C1119417   3.250   1.887  30.790  0.0708  0.2617  0.0715
  172SOPE  H11A19418   3.236   1.964  30.869  2.7100 -0.5788  1.4807
  172SOPE  H11B19419   3.352   1.850  30.814 -0.1554 -0.4699 -0.0758
  172SOPE     P19420   3.006   1.803  30.837  0.2536  0.0009  0.3312
  172SOPE   O1319421   2.921   1.732  30.739  0.0424  0.6604  0.3789
  172SOPE   O1419422   2.981   1.938  30.868 -0.3513 -0.8202  0.0798
  172SOPE   O1219423   3.163   1.775  30.809 -0.3433 -0.0831 -0.4404
  172SOPE   O1119424   2.976   1.715  30.960 -0.1285  0.0108 -0.9516
  172SOPE    C119425   3.068   1.706  31.072  0.5063  0.2804  0.3068
  172SOPE    HA19426   3.064   1.801  31.128  0.3296  0.4832 -0.0451
  172SOPE    HB19427   3.176   1.689  31.049  0.4656 -2.2589  1.6465
  172SOPE    C219428   3.043   1.587  31.175  0.0572  0.1960  0.2105
  172SOPE    HS19429   3.055   1.494  31.115  2.4239  1.1049 -0.8517
  172SOPE   O2119430   2.911   1.588  31.223 -0.2321 -0.9190  0.2287
  172SOPE   C2119431   2.818   1.540  31.141 -0.5867 -0.5756  0.4631
  172SOPE   O2219432   2.835   1.454  31.054  0.2485 -0.5994 -0.7828
  172SOPE   C2219433   2.677   1.615  31.168 -0.2916  0.0630  0.4890
  172SOPE   H2R19434   2.682   1.700  31.097 -1.7876 -0.6246 -0.5070
  172SOPE   H2S19435   2.685   1.656  31.271  1.9887 -1.6944  1.0952
  172SOPE    C319436   3.134   1.598  31.297  0.2270  0.4185  0.2505
  172SOPE    HX19437   3.233   1.566  31.257 -0.3316 -1.7613  0.4712
  172SOPE    HY19438   3.113   1.524  31.377 -1.3922  0.1293 -0.4059
  172SOPE   O3119439   3.153   1.732  31.347  0.3168 -0.0810 -0.1586
  172SOPE   C3119440   3.053   1.772  31.433  0.1745  0.2676  0.6453
  172SOPE   O3219441   2.976   1.695  31.485  0.1511  0.1000  0.1006
  172SOPE   C3219442   3.035   1.918  31.433  0.1947 -0.3592  0.0285
  172SOPE   H2X19443   2.927   1.946  31.441  0.4406  1.2484 -1.6512
  172SOPE   H2Y19444   3.070   1.948  31.333  1.0029 -2.6887 -0.4497
  172SOPE   C2319445   2.565   1.523  31.136 -0.0084 -0.2400 -0.1057
  172SOPE   H3R19446   2.584   1.435  31.201  2.7369 -0.1992 -0.7111
  172SOPE   H3S19447   2.575   1.498  31.028  5.1863  1.4869 -0.3360
  172SOPE   C2419448   2.416   1.566  31.155 -0.4049  0.1067  0.1229
  172SOPE   H4R19449   2.413   1.674  31.131 -0.6887  0.2130  0.6272
  172SOPE   H4S19450   2.357   1.506  31.083 -1.2895  2.1674 -0.9430
  172SOPE   C2519451   2.364   1.546  31.293  0.2185 -0.1866  0.5383
  172SOPE   H5R19452   2.379   1.436  31.307  0.4291 -0.4576 -1.5767
  172SOPE   H5S19453   2.421   1.587  31.379  2.0572 -0.2328 -0.6056
  172SOPE   C2619454   2.213   1.589  31.309  0.4664  0.4953  0.1440
  172SOPE   H6R19455   2.151   1.581  31.218  0.0660 -0.1314  0.4674
  172SOPE   H6S19456   2.158   1.518  31.374  1.5906  0.8944  1.6083
  172SOPE   C2719457   2.201   1.723  31.383 -0.9073 -0.1478 -0.0066
  172SOPE   H7R19458   2.250   1.704  31.481 -2.9476 -0.6362  0.9745
  172SOPE   H7S19459   2.268   1.794  31.330 -0.2569 -2.0169 -1.8482
  172SOPE   C2819460   2.064   1.791  31.405 -0.1469 -0.0691  0.3802
  172SOPE   H8R19461   2.028   1.799  31.301  3.8232  2.0317 -1.0458
  172SOPE   H8S19462   2.010   1.719  31.470 -1.8174  0.8507  0.0655
  172SOPE   C2919463   2.067   1.923  31.462 -0.2384 -0.5239 -0.6565
  172SOPE   H9119464   2.151   1.986  31.430  0.5960 -1.6428 -0.7225
  172SOPE  C21019465   1.972   1.969  31.552 -0.0809  0.0263 -0.2494
  172SOPE  H10119466   1.974   2.074  31.587  0.9195 -0.5949  1.7165
  172SOPE  C21119467   1.848   1.892  31.581  0.0149  0.8250  0.5710
  172SOPE  H11R19468   1.844   1.783  31.558  0.3652  0.5566  1.7453
  172SOPE  H11S19469   1.761   1.937  31.528 -1.0099 -1.4947  0.1371
  172SOPE  C21219470   1.805   1.897  31.726  0.0434 -0.0803  0.2085
  172SOPE  H12R19471   1.894   1.885  31.793  0.7182  0.2607 -0.6093
  172SOPE  H12S19472   1.744   1.807  31.748  2.0915 -1.3574  0.9396
  172SOPE  C21319473   1.724   2.026  31.766 -0.1934 -0.2912 -0.4720
  172SOPE  H13R19474   1.633   2.034  31.703 -1.0070  0.0717  0.7122
  172SOPE  H13S19475   1.803   2.105  31.761  0.9808 -1.3705  0.4311
  172SOPE  C21419476   1.668   2.017  31.905  0.2906 -0.1610 -0.1414
  172SOPE  H14R19477   1.741   1.955  31.962  0.7860  0.3285 -0.2352
  172SOPE  H14S19478   1.571   1.963  31.907  0.7316 -0.9486  0.4220
  172SOPE  C21519479   1.663   2.145  31.994 -0.3743 -0.2938  0.4624
  172SOPE  H15R19480   1.590   2.212  31.944 -0.5031 -2.0930 -1.9812
  172SOPE  H15S19481   1.762   2.195  31.996 -0.0948 -0.3836 -3.2611
  172SOPE  C21619482   1.612   2.112  32.136  0.1736 -0.0844  0.2461
  172SOPE  H16R19483   1.679   2.036  32.181  0.4400  0.0946  0.1528
  172SOPE  H16S19484   1.507   2.077  32.128  0.5630 -1.0088 -1.4422
  172SOPE  C21719485   1.615   2.237  32.221 -0.7129  0.0461  0.9823
  172SOPE  H17R19486   1.567   2.315  32.159 -0.3364  1.1579  2.0346
  172SOPE  H17S19487   1.718   2.276  32.236 -1.1309  3.4321 -3.0417
  172SOPE  C21819488   1.542   2.220  32.356  0.2300  0.2521  0.3265
  172SOPE  H18R19489   1.438   2.187  32.334  0.3658 -0.1818  0.3149
  172SOPE  H18S19490   1.524   2.318  32.403  1.4129  0.4473  0.4097
  172SOPE  H18T19491   1.597   2.150  32.423  0.9226 -2.2706 -2.6065
  172SOPE   C3319492   3.111   1.993  31.547  0.8008  0.4103 -0.2819
  172SOPE   H3X19493   3.142   2.096  31.522  2.8130  0.5478  2.3944
  172SOPE   H3Y19494   3.204   1.933  31.557  1.6666  1.3798 -2.0113
  172SOPE   C3419495   3.037   1.991  31.685 -0.6504 -0.6701  0.9919
  172SOPE   H4X19496   3.110   2.035  31.756 -0.8551  0.5259  0.4871
  172SOPE   H4Y19497   3.012   1.886  31.712 -2.6554 -0.4213  0.2616
  172SOPE   C3519498   2.911   2.084  31.688 -0.5766 -0.0272  0.4541
  172SOPE   H5X19499   2.839   2.042  31.615  2.0860 -1.1926 -1.6826
  172SOPE   H5Y19500   2.942   2.185  31.656  0.0428 -0.6410 -0.9434
  172SOPE   C3619501   2.845   2.078  31.831  0.2413  0.1544  0.5141
  172SOPE   H6X19502   2.809   1.978  31.862  1.6121 -0.7750 -0.7792
  172SOPE   H6Y19503   2.750   2.134  31.823 -0.5191 -1.2496 -0.6835
  172SOPE   C3719504   2.938   2.127  31.945 -0.3630 -0.1116 -0.1178
  172SOPE   H7X19505   2.961   2.235  31.931  0.0390 -0.2553 -0.5820
  172SOPE   H7Y19506   3.042   2.086  31.937 -0.1962  0.6125 -2.3140
  172SOPE   C3819507   2.897   2.083  32.088 -0.6163 -0.2913 -0.2372
  172SOPE   H8X19508   2.987   2.089  32.152  1.7035 -3.6191 -2.8269
  172SOPE   H8Y19509   2.869   1.976  32.095 -0.9293 -0.1282  1.3782
  172SOPE   C3919510   2.789   2.166  32.136 -0.1124  0.1577 -0.7323
  172SOPE   H9X19511   2.710   2.170  32.058  1.1043 -2.0875 -2.1975
  172SOPE   H9Y19512   2.819   2.272  32.147  2.3114 -0.5684  0.4373
  172SOPE  C31019513   2.733   2.127  32.278  0.0727  0.4807  0.0378
  172SOPE  H10X19514   2.815   2.113  32.352 -1.7605 -1.9541  1.7764
  172SOPE  H10Y19515   2.685   2.028  32.263  0.4460  0.6113 -2.4157
  172SOPE  C31119516   2.627   2.221  32.345 -0.3375 -0.3292 -0.3869
  172SOPE  H11X19517   2.585   2.174  32.437 -3.7082 -2.3447 -2.7128
  172SOPE  H11Y19518   2.544   2.227  32.271 -0.0259  0.3588 -0.6849
  172SOPE  C31219519   2.683   2.366  32.368 -0.0270  0.3094  0.0962
  172SOPE  H12X19520   2.726   2.397  32.270 -0.9197 -0.1198 -0.4450
  172SOPE  H12Y19521   2.769   2.340  32.433  0.1687 -0.5437 -0.4789
  172SOPE  C31319522   2.585   2.463  32.436 -0.8905 -0.1679  0.2769
  172SOPE  H13X19523   2.546   2.408  32.523 -0.7827  0.5476  0.7878
  172SOPE  H13Y19524   2.495   2.469  32.370 -2.6597 -0.9356  2.5195
  172SOPE  C31419525   2.633   2.593  32.495  0.2139  0.4939  0.8439
  172SOPE  H14X19526   2.642   2.664  32.410 -1.5650  0.1314  0.3063
  172SOPE  H14Y19527   2.734   2.565  32.531 -0.7674 -3.0351  1.3099
  172SOPE  C31519528   2.530   2.642  32.605 -0.9314  0.3119 -0.0029
  172SOPE  H15X19529   2.561   2.737  32.653 -1.3602 -1.4455  4.1550
  172SOPE  H15Y19530   2.530   2.565  32.685 -1.3043  0.1245 -0.1786
  172SOPE  C31619531   2.397   2.678  32.547 -0.0472 -0.8950 -0.1064
  172SOPE  H16X19532   2.361   2.600  32.478  3.0124 -1.1570 -1.5963
  172SOPE  H16Y19533   2.406   2.758  32.470 -0.6955  0.8442  1.5263
  172SOPE  C31719534   2.274   2.713  32.641  0.6660  0.0312  0.1318
  172SOPE  H17X19535   2.271   2.822  32.664  0.5882 -0.3543  2.1086
  172SOPE  H17Y19536   2.286   2.653  32.733  1.8538 -1.9260 -1.2306
  172SOPE  C31819537   2.138   2.689  32.574 -0.1021  0.1664  0.2385
  172SOPE  H18X19538   2.060   2.707  32.650 -0.1401 -1.4528  0.6228
  172SOPE  H18Y19539   2.116   2.581  32.560 -0.8673  0.4474 -0.8418
  172SOPE  H18Z19540   2.127   2.746  32.479 -0.5226  1.0402  0.7997
  173SAPI   C1219541   1.408   0.412  38.617  0.9747 -0.8147  0.1843
  173SAPI    H219542   1.507   0.400  38.666  0.6450 -0.3726  0.9894
  173SAPI    O219543   1.342   0.288  38.634 -0.3679  0.1981 -0.2001
  173SAPI   HO219544   1.360   0.273  38.727  0.8800  2.9538  0.1160
  173SAPI   C1319545   1.338   0.531  38.683  0.2506  0.5001 -0.7156
  173SAPI    H319546   1.410   0.612  38.662  0.7299  0.2863  0.0584
  173SAPI    O319547   1.336   0.527  38.826  0.3775 -0.0069  0.2216
  173SAPI   HO319548   1.272   0.460  38.852  0.8514  0.3194  2.4127
  173SAPI   C1419549   1.206   0.564  38.622 -0.2976 -0.0275 -0.2417
  173SAPI    H419550   1.130   0.484  38.639 -3.4329  2.7078 -0.2304
  173SAPI    O419551   1.145   0.675  38.686  0.1546  0.2968  0.3392
  173SAPI   HO419552   1.082   0.642  38.751  1.8510 -0.2276  1.7826
  173SAPI   C1519553   1.219   0.601  38.477  0.3668  0.6265  1.0160
  173SAPI    H519554   1.274   0.697  38.480 -0.1025  0.9072  0.7798
  173SAPI    O519555   1.101   0.633  38.399  0.4327 -0.0060  0.3897
  173SAPI   HO519556   1.090   0.728  38.389 -1.3042 -0.3617 -1.7710
  173SAPI   C1619557   1.321   0.518  38.394 -0.0044 -0.1202 -0.0961
  173SAPI    H619558   1.260   0.429  38.368  1.0584 -1.4489  1.6879
  173SAPI    O619559   1.370   0.600  38.292  0.2359  0.6845 -0.0200
  173SAPI   HO619560   1.441   0.659  38.319 -0.3481  0.3030  2.6733
  173SAPI   C1119561   1.440   0.443  38.470 -0.4285 -0.5384  0.5517
  173SAPI    H119562   1.521   0.519  38.470 -1.0246  0.1048  1.4059
  173SAPI     P19563   1.600   0.316  38.290 -0.3999 -0.0412 -0.1285
  173SAPI   O1319564   1.633   0.453  38.249 -0.0899 -0.0347 -0.8701
  173SAPI   O1419565   1.556   0.223  38.181 -0.0810  0.0461 -0.0011
  173SAPI   O1219566   1.477   0.327  38.395  0.3064 -0.6297 -0.3410
  173SAPI   O1119567   1.722   0.262  38.370  0.2168 -0.0530 -0.1943
  173SAPI    C119568   1.765   0.319  38.492 -0.2152  0.0492 -0.0550
  173SAPI    HA19569   1.746   0.428  38.491 -1.6142 -0.1804 -0.3941
  173SAPI    HB19570   1.706   0.291  38.581 -0.4146  1.5772  0.3063
  173SAPI    C219571   1.914   0.292  38.513  0.1494  0.1237 -0.3105
  173SAPI    HS19572   1.950   0.356  38.596 -2.3782  0.0788  0.9294
  173SAPI   O2119573   1.991   0.313  38.392  0.1397 -0.0802  0.6543
  173SAPI   C2119574   2.008   0.447  38.372 -0.4694 -0.2626 -0.0569
  173SAPI   O2219575   1.961   0.528  38.451 -0.1978 -0.6813  0.1531
  173SAPI   C2219576   2.088   0.459  38.247 -0.0360  0.1502  0.6757
  173SAPI   H2R19577   2.188   0.504  38.264  0.4108 -0.6109  0.0850
  173SAPI   H2S19578   2.100   0.359  38.202 -2.1341 -1.0557  2.6014
  173SAPI    C319579   1.945   0.143  38.542  0.2394 -0.5910  0.7812
  173SAPI    HX19580   1.957   0.088  38.447 -0.7366 -2.9243  1.9179
  173SAPI    HY19581   1.853   0.109  38.595 -1.3918  2.4997  0.1891
  173SAPI   O3119582   2.063   0.139  38.627 -0.2317 -0.9409  0.0342
  173SAPI   C3119583   2.043   0.150  38.757 -0.0066 -0.3584 -0.0375
  173SAPI   O3219584   1.937   0.186  38.812 -0.7225 -0.4965  0.7051
  173SAPI   C3219585   2.175   0.127  38.830 -0.1921  0.6790 -0.5246
  173SAPI   H2X19586   2.216   0.023  38.824  0.7763  1.0402 -0.3343
  173SAPI   H2Y19587   2.147   0.142  38.936  0.4119  0.8771 -0.3920
  173SAPI   C2319588   2.017   0.558  38.148  0.3669  1.1664  0.3411
  173SAPI   H3R19589   2.026   0.661  38.187 -0.7280  1.2801  0.3195
  173SAPI   H3S19590   1.912   0.521  38.147  1.3171 -1.7804 -0.2307
  173SAPI   C2419591   2.072   0.546  38.006 -0.6280 -0.7313  0.4077
  173SAPI   H4R19592   2.034   0.631  37.946  1.7803  0.5657  0.6075
  173SAPI   H4S19593   2.041   0.447  37.966  0.1222 -0.5951 -0.5513
  173SAPI   C2519594   2.225   0.557  37.996 -0.8835 -0.3562 -0.7018
  173SAPI   H5R19595   2.283   0.466  38.019  0.8642  0.9286  0.2405
  173SAPI   C2619596   2.299   0.668  37.987  0.0771  0.2067  0.4633
  173SAPI   H6R19597   2.408   0.662  37.998 -0.0095  0.5108  1.7279
  173SAPI   C2719598   2.249   0.814  37.969  0.2653  0.3783  1.1358
  173SAPI   H7R19599   2.144   0.812  38.003  0.1888 -1.3097  0.9127
  173SAPI   H7S19600   2.249   0.841  37.861 -1.2099  1.1414  1.3027
  173SAPI   C2819601   2.334   0.908  38.052 -0.4271 -0.0986  0.4286
  173SAPI   H8R19602   2.308   0.906  38.159 -0.8380 -1.3604  0.3228
  173SAPI   C2919603   2.448   0.956  38.007  0.2837 -0.7034  0.8903
  173SAPI   H9R19604   2.495   1.022  38.081  3.1387 -1.7708  0.1261
  173SAPI  C21019605   2.489   0.951  37.862 -0.6523 -0.2020  0.5630
  173SAPI  H10R19606   2.398   0.972  37.801 -1.2740 -2.7314  0.5083
  173SAPI  H10S19607   2.499   0.845  37.831  0.4083  0.7843 -2.9609
  173SAPI  C21119608   2.618   1.018  37.822 -0.0011  0.4145 -0.4226
  173SAPI  H11R19609   2.702   0.978  37.880 -0.6246  1.8241  1.5207
  173SAPI  C21219610   2.639   1.113  37.733  0.5114 -0.0072  0.6252
  173SAPI  H12R19611   2.743   1.146  37.724  0.9163 -1.4020 -0.0658
  173SAPI  C21319612   2.531   1.191  37.661 -0.2215  0.2609  0.1584
  173SAPI  H13R19613   2.488   1.260  37.736 -1.2505 -1.7213  1.4647
  173SAPI  H13S19614   2.441   1.139  37.621 -2.1610  1.4983  2.6682
  173SAPI  C21419615   2.595   1.266  37.548  0.1539 -0.3786 -0.4482
  173SAPI  H14R19616   2.628   1.201  37.465  0.7632  0.0067 -0.5157
  173SAPI  C21519617   2.619   1.398  37.528 -0.1051  0.4325 -0.3904
  173SAPI  H15R19618   2.687   1.437  37.451  1.5672  2.1667  1.7996
  173SAPI  C21619619   2.594   1.513  37.633  0.2281  0.5543 -0.2533
  173SAPI  H16R19620   2.609   1.466  37.733 -0.5627  0.4642 -0.1677
  173SAPI  H16S19621   2.496   1.563  37.620  0.2049  0.8806  1.0312
  173SAPI  C21719622   2.683   1.626  37.616 -1.0466 -0.5547 -0.2577
  173SAPI  H17R19623   2.698   1.645  37.507 -0.5654 -1.5107 -0.3741
  173SAPI  H17S19624   2.779   1.592  37.661 -2.0556 -2.3974  0.6376
  173SAPI  C21819625   2.653   1.760  37.693 -0.6756 -0.0071 -0.1371
  173SAPI  H18R19626   2.654   1.736  37.801 -0.0883 -2.8148 -0.6998
  173SAPI  H18S19627   2.552   1.783  37.655 -0.0672  2.0600 -0.6635
  173SAPI  C21919628   2.762   1.867  37.668 -0.2886 -0.2308  0.0256
  173SAPI  H19R19629   2.859   1.815  37.655 -0.4838 -0.5136 -0.3008
  173SAPI  H19S19630   2.748   1.944  37.747 -3.2321  1.4295 -1.9071
  173SAPI  C22019631   2.745   1.940  37.535 -0.1889 -0.5840  0.2357
  173SAPI  H20R19632   2.648   1.991  37.526 -0.3670 -0.4784  2.3264
  173SAPI  H20S19633   2.758   1.868  37.451  1.3029  0.3640 -0.4025
  173SAPI  H20T19634   2.819   2.022  37.528  1.0468 -1.5415  1.4048
  173SAPI   C3319635   2.278   0.232  38.796 -1.0690 -0.1849 -0.8547
  173SAPI   H3X19636   2.236   0.332  38.774 -1.8273 -0.1218  0.7308
  173SAPI   H3Y19637   2.333   0.210  38.702 -0.4016  0.1896 -0.5552
  173SAPI   C3419638   2.383   0.251  38.913  0.5263 -0.2042  0.0870
  173SAPI   H4X19639   2.435   0.153  38.915 -3.2861 -2.4000  1.9760
  173SAPI   H4Y19640   2.326   0.258  39.008  0.7540 -1.3141  0.3087
  173SAPI   C3519641   2.477   0.370  38.875 -0.2082 -0.4657 -0.2969
  173SAPI   H5X19642   2.416   0.461  38.859  0.3368  0.2043  1.2196
  173SAPI   H5Y19643   2.514   0.347  38.773 -2.9832  0.3386 -1.5763
  173SAPI   C3619644   2.582   0.407  38.981 -0.2344 -0.1243 -0.1196
  173SAPI   H6X19645   2.529   0.407  39.079 -0.9381 -4.7786 -0.2722
  173SAPI   H6Y19646   2.624   0.508  38.963  0.0287 -0.4376 -1.3323
  173SAPI   C3719647   2.694   0.306  38.959 -0.1585  0.7140 -0.0018
  173SAPI   H7X19648   2.733   0.327  38.857 -0.7905  2.2747  0.0475
  173SAPI   H7Y19649   2.643   0.208  38.973 -0.7040  0.9415 -0.3969
  173SAPI   C3819650   2.815   0.308  39.059  0.4812  0.7059  0.2278
  173SAPI   H8X19651   2.905   0.258  39.018  1.7991  3.3207 -0.2063
  173SAPI   H8Y19652   2.791   0.253  39.153  1.5704  1.8236  1.1891
  173SAPI   C3919653   2.859   0.450  39.087  0.2966 -0.0446  0.0272
  173SAPI   H9X19654   2.784   0.500  39.151  0.8008 -1.3524  1.7222
  173SAPI   H9Y19655   2.865   0.500  38.988 -0.9977  1.2704  0.5934
  173SAPI  C31019656   2.991   0.466  39.162 -0.1028 -0.4797 -0.0282
  173SAPI  H10X19657   3.030   0.569  39.168  0.8545 -0.7246 -1.5133
  173SAPI  H10Y19658   3.068   0.398  39.119  0.7422 -0.5920  1.5913
  173SAPI  C31119659   2.972   0.423  39.305 -0.6904  0.2972 -0.4770
  173SAPI  H11X19660   2.932   0.319  39.314 -1.8294  0.7314 -0.2820
  173SAPI  H11Y19661   2.894   0.486  39.352 -0.9325 -0.0239 -0.4447
  173SAPI  C31219662   3.105   0.427  39.380 -0.4117  0.0729  0.4068
  173SAPI  H12X19663   3.157   0.525  39.379  3.1132 -1.5319  2.5238
  173SAPI  H12Y19664   3.167   0.360  39.316 -1.6427  0.7749 -1.5837
  173SAPI  C31319665   3.092   0.377  39.525 -0.7786 -0.7858 -0.6171
  173SAPI  H13X19666   3.048   0.275  39.521 -3.8331  0.4529 -3.3386
  173SAPI  H13Y19667   3.018   0.442  39.576 -0.2531  0.6461 -1.6265
  173SAPI  C31419668   3.231   0.370  39.605  0.0528  0.9927  0.2152
  173SAPI  H14X19669   3.251   0.473  39.640  0.4924  0.7749  0.6129
  173SAPI  H14Y19670   3.315   0.343  39.538 -1.0265  2.0695 -1.6753
  173SAPI  C31519671   3.221   0.284  39.733  0.2454 -0.4895  0.2305
  173SAPI  H15X19672   3.325   0.261  39.767  0.1263 -0.2829  0.7379
  173SAPI  H15Y19673   3.159   0.192  39.729 -1.4268  0.6367 -1.0776
  173SAPI  C31619674   3.171   0.372  39.848 -0.8937 -0.1971  0.0921
  173SAPI  H16X19675   3.061   0.381  39.842 -0.9351 -1.2454 -1.1673
  173SAPI  H16Y19676   3.202   0.477  39.832 -0.2233  0.1223  2.9601
  173SAPI  C31719677   3.193   0.319  39.991  0.1777  0.2938 -0.3893
  173SAPI  H17X19678   3.187   0.405  40.061  1.6712  2.0341 -2.2637
  173SAPI  H17Y19679   3.297   0.280  39.997  0.3311  0.7479 -0.0593
  173SAPI  C31819680   3.092   0.225  40.040 -0.4492 -0.0444  0.7348
  173SAPI  H18X19681   3.115   0.181  40.139 -0.3785 -0.2516  0.6307
  173SAPI  H18Y19682   3.080   0.138  39.971  0.0419  0.7797 -0.4206
  173SAPI  H18Z19683   2.992   0.274  40.042 -1.0015 -0.6620 -3.0990
  174SAPI   C1219684   0.688   0.396  36.786 -0.2333 -0.0220  0.7452
  174SAPI    H219685   0.610   0.330  36.743  2.8009 -2.1134 -2.0719
  174SAPI    O219686   0.694   0.366  36.925  0.7665  0.0431 -0.5524
  174SAPI   HO219687   0.607   0.391  36.956  1.0329 -0.7861  0.9928
  174SAPI   C1319688   0.817   0.366  36.710  0.1188  0.1714 -0.4887
  174SAPI    H319689   0.780   0.389  36.608 -0.1031  3.0965  0.1728
  174SAPI    O319690   0.847   0.227  36.696  0.1061 -0.4213  0.4511
  174SAPI   HO319691   0.863   0.203  36.788 -2.8467  1.3565  1.5645
  174SAPI   C1419692   0.937   0.442  36.759  0.8819 -0.6988 -0.4662
  174SAPI    H419693   0.995   0.385  36.834  2.1661  0.3530 -0.6308
  174SAPI    O419694   1.031   0.451  36.655 -0.3124  0.1386  0.3399
  174SAPI   HO419695   1.110   0.403  36.679 -1.7616 -2.4424  0.3149
  174SAPI   C1519696   0.915   0.579  36.830 -0.4470  0.2027  0.2691
  174SAPI    H519697   0.960   0.653  36.760  1.2980 -1.0035  0.0347
  174SAPI    O519698   0.994   0.597  36.945  0.4901 -0.4306  0.3085
  174SAPI   HO519699   0.995   0.687  36.979  0.2034  0.2447 -1.3609
  174SAPI   C1619700   0.766   0.624  36.837  0.3589  0.8187 -0.2516
  174SAPI    H619701   0.743   0.605  36.944  1.2388 -0.2578 -0.2427
  174SAPI    O619702   0.756   0.766  36.820  0.4320 -0.2774 -0.5456
  174SAPI   HO619703   0.662   0.780  36.828  0.8012  3.3450 -1.0061
  174SAPI   C1119704   0.663   0.547  36.762  0.4164  0.8531  0.0883
  174SAPI    H119705   0.680   0.569  36.654 -2.4815  0.4590 -0.5147
  174SAPI     P19706   0.443   0.701  36.739 -0.3449  0.4718 -0.0701
  174SAPI   O1319707   0.453   0.714  36.590 -0.3135 -0.1197 -0.2941
  174SAPI   O1419708   0.491   0.812  36.819  0.4682 -0.7670 -0.0158
  174SAPI   O1219709   0.524   0.566  36.793 -0.3676  0.3978 -0.4251
  174SAPI   O1119710   0.292   0.674  36.773 -0.1652  0.1008  0.1778
  174SAPI    C119711   0.239   0.652  36.907  0.1770 -0.1232 -0.0876
  174SAPI    HA19712   0.310   0.700  36.978  1.3291 -0.6472 -0.8530
  174SAPI    HB19713   0.144   0.709  36.904 -0.8291 -1.7701 -0.2589
  174SAPI    C219714   0.194   0.504  36.930  0.0561 -0.1134  0.3623
  174SAPI    HS19715   0.280   0.443  36.894  0.3592  1.1410 -1.1436
  174SAPI   O2119716   0.082   0.474  36.840 -0.6833  0.1939  0.3768
  174SAPI   C2119717   0.111   0.428  36.722  0.3711  0.2649  0.0334
  174SAPI   O2219718   0.223   0.411  36.676  0.4477  0.1077 -0.2857
  174SAPI   C2219719  -0.013   0.394  36.657 -0.3431 -0.1226 -0.1262
  174SAPI   H2R19720  -0.031   0.285  36.665  1.7353 -0.4491  0.7416
  174SAPI   H2S19721  -0.090   0.450  36.715  1.0077  1.2270  0.4447
  174SAPI    C319722   0.160   0.467  37.074 -0.8424  0.2017  0.3069
  174SAPI    HX19723   0.157   0.356  37.077  0.9870  0.0085 -2.4335
  174SAPI    HY19724   0.059   0.506  37.100 -1.2392 -0.9557  0.5826
  174SAPI   O3119725   0.260   0.512  37.171  0.2054 -0.4394  0.2044
  174SAPI   C3119726   0.376   0.453  37.174 -0.4073  0.5131  0.0754
  174SAPI   O3219727   0.411   0.356  37.107  0.4285 -0.2186 -0.0316
  174SAPI   C3219728   0.463   0.527  37.272  0.5232  0.2263 -0.1463
  174SAPI   H2X19729   0.547   0.456  37.291  1.5933  1.1752 -1.1736
  174SAPI   H2Y19730   0.401   0.534  37.364 -1.2053 -1.7937 -1.0839
  174SAPI   C2319731  -0.016   0.421  36.507 -0.0586 -0.2066 -0.4434
  174SAPI   H3R19732  -0.106   0.373  36.461  1.4972 -2.8361 -0.9624
  174SAPI   H3S19733   0.068   0.375  36.450  0.7764  2.2086 -1.2923
  174SAPI   C2419734  -0.001   0.568  36.477  0.0587 -0.6404  0.0100
  174SAPI   H4R19735   0.060   0.613  36.559 -0.6868  1.3592 -0.4669
  174SAPI   H4S19736  -0.097   0.621  36.491 -0.3761 -1.4959  0.2816
  174SAPI   C2519737   0.053   0.620  36.347 -0.4380  0.0853 -0.2027
  174SAPI   H5R19738   0.161   0.640  36.360 -0.4805  0.1541  0.0455
  174SAPI   C2619739  -0.012   0.637  36.225 -0.1095  0.6836  0.1979
  174SAPI   H6R19740   0.040   0.687  36.142  1.3350 -0.8827  0.1087
  174SAPI   C2719741  -0.159   0.613  36.202 -0.8300 -0.1091  0.1603
  174SAPI   H7R19742  -0.203   0.679  36.124 -0.2315  3.6472  2.7376
  174SAPI   H7S19743  -0.216   0.649  36.290 -0.7244  0.5793 -0.0449
  174SAPI   C2819744  -0.187   0.462  36.196 -0.7764 -0.4687  0.3660
  174SAPI   H8R19745  -0.127   0.395  36.259  2.4196  0.3587 -1.5842
  174SAPI   C2919746  -0.292   0.406  36.135  0.1084 -0.0576 -0.1761
  174SAPI   H9R19747  -0.305   0.298  36.150 -2.1937  0.1133 -0.5583
  174SAPI  C21019748  -0.396   0.476  36.055 -0.0865 -0.6719 -0.0569
  174SAPI  H10R19749  -0.369   0.583  36.055 -1.1125 -0.3930  1.2906
  174SAPI  H10S19750  -0.495   0.476  36.106 -0.3656  0.4877 -0.5781
  174SAPI  C21119751  -0.417   0.418  35.912 -0.7833 -0.2791 -0.8993
  174SAPI  H11R19752  -0.378   0.315  35.902  2.7133  0.6147  1.4335
  174SAPI  C21219753  -0.469   0.485  35.807  0.0940  0.1650  0.4878
  174SAPI  H12R19754  -0.498   0.434  35.714 -1.3791  0.6253  0.6663
  174SAPI  C21319755  -0.537   0.620  35.816  0.1009  0.2986  0.0898
  174SAPI  H13R19756  -0.471   0.690  35.872  1.9859 -1.1351 -0.2504
  174SAPI  H13S19757  -0.616   0.610  35.893  0.5025  2.5844  0.8951
  174SAPI  C21419758  -0.599   0.676  35.687  0.0622  0.2011  1.0571
  174SAPI  H14R19759  -0.676   0.620  35.632  0.5254  1.1431 -0.6261
  174SAPI  C21519760  -0.545   0.773  35.617  0.1988 -0.8712  0.2906
  174SAPI  H15R19761  -0.602   0.790  35.525 -0.4165 -1.2491  0.5979
  174SAPI  C21619762  -0.425   0.849  35.655 -0.8822 -0.6862  0.4959
  174SAPI  H16R19763  -0.334   0.790  35.680 -0.6189 -0.0181  1.1463
  174SAPI  H16S19764  -0.446   0.911  35.744  0.5020 -0.6040  0.7875
  174SAPI  C21719765  -0.379   0.949  35.541  0.5593  0.1694  0.1406
  174SAPI  H17R19766  -0.346   0.895  35.449 -0.5197  1.0579 -0.7974
  174SAPI  H17S19767  -0.284   0.993  35.579  0.7775 -2.0969  2.4828
  174SAPI  C21819768  -0.483   1.060  35.510 -0.0542  0.4514 -0.4300
  174SAPI  H18R19769  -0.466   1.144  35.581  0.0946  0.0700 -0.0063
  174SAPI  H18S19770  -0.588   1.023  35.511 -0.3290  1.1045 -2.0595
  174SAPI  C21919771  -0.464   1.108  35.363  0.2471  0.3052 -0.1096
  174SAPI  H19R19772  -0.537   1.190  35.343  0.9141  1.1720  0.8828
  174SAPI  H19S19773  -0.497   1.020  35.304  3.2385 -1.7907  1.1266
  174SAPI  C22019774  -0.317   1.142  35.317  0.1205  0.1527 -0.6057
  174SAPI  H20R19775  -0.312   1.247  35.283  2.0919  0.4984  0.5753
  174SAPI  H20S19776  -0.278   1.071  35.242 -2.2729 -1.1491 -0.7304
  174SAPI  H20T19777  -0.256   1.143  35.410  0.6872 -1.1143 -0.9356
  174SAPI   C3319778   0.506   0.661  37.216 -0.1805 -0.1240 -0.2706
  174SAPI   H3X19779   0.513   0.648  37.106  0.0270  1.1641 -0.4255
  174SAPI   H3Y19780   0.609   0.685  37.248 -0.1965  0.5374 -0.6793
  174SAPI   C3419781   0.408   0.773  37.253  0.7105  0.2249 -0.1441
  174SAPI   H4X19782   0.379   0.762  37.359  1.2656 -1.6491 -0.1579
  174SAPI   H4Y19783   0.316   0.761  37.192 -0.7062 -0.7936  2.0923
  174SAPI   C3519784   0.464   0.915  37.227 -0.4153  1.5218  0.3621
  174SAPI   H5X19785   0.481   0.930  37.118 -2.3288 -0.1707 -0.2449
  174SAPI   H5Y19786   0.563   0.925  37.276 -0.7587  3.0683  0.7876
  174SAPI   C3619787   0.372   1.031  37.264  0.1693  0.4455 -0.2515
  174SAPI   H6X19788   0.424   1.125  37.293 -1.6046  1.4284 -0.0940
  174SAPI   H6Y19789   0.308   1.003  37.351  0.6787 -1.9085 -0.5726
  174SAPI   C3719790   0.267   1.057  37.150 -0.3309  0.5768  0.3603
  174SAPI   H7X19791   0.231   0.955  37.127 -1.5237  0.6308  1.8680
  174SAPI   H7Y19792   0.311   1.103  37.059 -0.5337 -0.2542 -0.1579
  174SAPI   C3819793   0.150   1.141  37.198 -0.2383 -0.5614  0.1164
  174SAPI   H8X19794   0.076   1.081  37.255  0.8382 -1.4793  0.6111
  174SAPI   H8Y19795   0.081   1.166  37.115  0.1597 -0.1896 -0.1059
  174SAPI   C3919796   0.185   1.265  37.285 -0.2026  0.0540 -0.3450
  174SAPI   H9X19797   0.257   1.335  37.238 -2.5411  2.0021 -1.2497
  174SAPI   H9Y19798   0.229   1.234  37.382  2.3049  1.8536 -0.8031
  174SAPI  C31019799   0.063   1.353  37.301 -0.1926  0.2647  0.0879
  174SAPI  H10X19800  -0.017   1.310  37.365 -1.7101  2.7952  0.0018
  174SAPI  H10Y19801  -0.001   1.360  37.211 -1.1610  0.8183  0.7888
  174SAPI  C31119802   0.099   1.482  37.367  0.4670 -0.2351 -0.5089
  174SAPI  H11X19803   0.164   1.548  37.305 -0.5404  2.0975  0.7603
  174SAPI  H11Y19804   0.158   1.462  37.459 -1.7732  2.3637  1.6749
  174SAPI  C31219805  -0.028   1.567  37.408  0.0887  0.2125 -0.5053
  174SAPI  H12X19806  -0.092   1.517  37.485  0.5644  0.1960 -0.1133
  174SAPI  H12Y19807  -0.101   1.598  37.330 -0.7322  3.6916  1.4350
  174SAPI  C31319808   0.017   1.702  37.464  0.1228 -0.2833 -0.1999
  174SAPI  H13X19809   0.055   1.771  37.387 -0.4661  0.6157  0.2884
  174SAPI  H13Y19810   0.095   1.700  37.544  0.0534 -0.8888 -0.1441
  174SAPI  C31419811  -0.101   1.788  37.516 -0.7916 -0.3066  0.4400
  174SAPI  H14X19812  -0.170   1.794  37.428 -0.3720 -2.5471 -0.1068
  174SAPI  H14Y19813  -0.062   1.890  37.538  1.9565 -1.2371  0.1670
  174SAPI  C31519814  -0.165   1.741  37.650  0.6547 -0.5416  0.4171
  174SAPI  H15X19815  -0.089   1.759  37.728 -1.8491  3.2523  2.3130
  174SAPI  H15Y19816  -0.204   1.637  37.648 -0.3284 -0.1904  0.7271
  174SAPI  C31619817  -0.281   1.838  37.688 -0.4142  0.0234 -0.1067
  174SAPI  H16X19818  -0.353   1.777  37.747 -1.3616 -1.4652 -2.6557
  174SAPI  H16Y19819  -0.328   1.863  37.591  0.1044  2.0691  0.1286
  174SAPI  C31719820  -0.247   1.961  37.770  0.1280  0.1348  0.3273
  174SAPI  H17X19821  -0.285   2.050  37.716  2.9827  0.9507 -0.5240
  174SAPI  H17Y19822  -0.137   1.978  37.764  0.3472 -1.5019 -1.9844
  174SAPI  C31819823  -0.304   1.960  37.916 -0.3254 -0.3568  0.7086
  174SAPI  H18X19824  -0.271   2.059  37.954  2.6985 -0.4249 -1.3089
  174SAPI  H18Y19825  -0.258   1.883  37.982 -1.3982 -0.7818  0.9742
  174SAPI  H18Z19826  -0.413   1.945  37.924 -0.0853 -1.8097  1.7570
  175SAPI   C1219827   1.817   0.770  25.442 -0.2273  0.8275  0.1535
  175SAPI    H219828   1.748   0.687  25.413 -1.3311  1.7976 -0.0822
  175SAPI    O219829   1.888   0.774  25.325 -0.4912 -0.0336  0.1721
  175SAPI   HO219830   1.946   0.698  25.334 -2.0582 -1.7189 -2.3519
  175SAPI   C1319831   1.745   0.899  25.478 -0.1338  0.3948 -0.3282
  175SAPI    H319832   1.705   0.902  25.582  0.3578  1.9963 -0.1635
  175SAPI    O319833   1.644   0.936  25.389 -0.6781 -0.1096  0.1200
  175SAPI   HO319834   1.653   1.031  25.384 -1.6681  0.0614  1.1546
  175SAPI   C1419835   1.857   1.000  25.473 -0.3863  0.2377  0.6582
  175SAPI    H419836   1.884   1.015  25.367  1.4406  1.0952  1.1965
  175SAPI    O419837   1.804   1.135  25.493  0.0594  0.3819 -0.0199
  175SAPI   HO419838   1.853   1.204  25.448  2.0616 -0.9524 -0.0078
  175SAPI   C1519839   1.981   0.973  25.555  0.4485 -0.6088  0.0574
  175SAPI    H519840   1.952   0.998  25.659  3.1377 -1.2477  1.0377
  175SAPI    O519841   2.097   1.058  25.530 -1.0245 -0.3265 -0.1166
  175SAPI   HO519842   2.123   1.042  25.439 -0.1099 -1.6476  0.3450
  175SAPI   C1619843   2.020   0.829  25.576  0.1318 -0.5859 -0.0443
  175SAPI    H619844   2.089   0.811  25.490 -0.8902  1.6012 -1.4160
  175SAPI    O619845   2.098   0.809  25.694 -0.3223  0.5766  0.4491
  175SAPI   HO619846   2.170   0.751  25.668 -0.6940  0.6073 -0.6969
  175SAPI   C1119847   1.905   0.732  25.557  0.7319  0.5899 -0.3153
  175SAPI    H119848   1.838   0.748  25.644  0.4822 -1.3995 -0.1109
  175SAPI     P19849   1.958   0.503  25.691  0.2715 -0.0228  0.3295
  175SAPI   O1319850   1.986   0.582  25.810 -0.4552  0.3799 -0.3720
  175SAPI   O1419851   2.055   0.390  25.668  0.0584 -0.2579  0.7312
  175SAPI   O1219852   1.949   0.597  25.554 -0.4563  0.1103 -0.1043
  175SAPI   O1119853   1.818   0.435  25.709  0.3914  0.0997  0.2451
  175SAPI    C119854   1.795   0.301  25.654  0.1548 -0.4304  0.1153
  175SAPI    HA19855   1.857   0.225  25.706  0.1594 -1.3714 -1.2093
  175SAPI    HB19856   1.688   0.278  25.674 -0.4788  0.9237 -1.4491
  175SAPI    C219857   1.805   0.291  25.492 -0.0405  0.1663  0.0644
  175SAPI    HS19858   1.884   0.362  25.460  2.1638 -1.9330  0.5658
  175SAPI   O2119859   1.672   0.321  25.443 -0.8628 -0.1726  0.4978
  175SAPI   C2119860   1.666   0.408  25.337 -0.7002 -0.1686 -0.2765
  175SAPI   O2219861   1.760   0.465  25.286  0.0172  0.3721  0.2699
  175SAPI   C2219862   1.519   0.432  25.297 -0.1025 -0.0484  0.1447
  175SAPI   H2R19863   1.460   0.384  25.378 -2.3346  1.2186 -0.6386
  175SAPI   H2S19864   1.488   0.538  25.306 -3.6554 -0.9349 -0.0407
  175SAPI    C319865   1.856   0.155  25.433 -0.0099  0.1135 -0.0295
  175SAPI    HX19866   1.775   0.083  25.459 -0.9066  1.5992  1.5075
  175SAPI    HY19867   1.948   0.110  25.476 -0.8083 -0.9295  0.6361
  175SAPI   O3119868   1.870   0.161  25.288 -0.3105 -0.2531 -0.3624
  175SAPI   C3119869   1.992   0.206  25.246  0.0891 -0.0978 -0.1856
  175SAPI   O3219870   2.084   0.236  25.321 -0.2098 -0.4452 -0.0885
  175SAPI   C3219871   1.999   0.193  25.098 -0.2191 -0.5650 -0.4187
  175SAPI   H2X19872   2.088   0.245  25.056 -0.1649  1.9899  2.5174
  175SAPI   H2Y19873   1.909   0.246  25.060  0.4963  1.2937  0.3818
  175SAPI   C2319874   1.484   0.371  25.158  0.1904 -0.2145 -0.5217
  175SAPI   H3R19875   1.507   0.263  25.155 -0.2183 -0.3028 -0.5119
  175SAPI   H3S19876   1.549   0.424  25.085 -0.5134  0.6649 -0.5286
  175SAPI   C2419877   1.336   0.407  25.131 -0.0154  0.7298 -0.6444
  175SAPI   H4R19878   1.310   0.514  25.141 -0.6368  0.5108  0.2668
  175SAPI   H4S19879   1.284   0.337  25.200 -1.6738  1.7836 -0.7739
  175SAPI   C2519880   1.294   0.367  24.986  0.0723  0.1611  0.1434
  175SAPI   H5R19881   1.370   0.312  24.929  1.7464  3.8292 -1.4635
  175SAPI   C2619882   1.182   0.412  24.921 -1.0698 -0.3366  0.0324
  175SAPI   H6R19883   1.156   0.379  24.819 -1.5893  0.7599 -0.2090
  175SAPI   C2719884   1.070   0.483  24.996 -0.0154  0.2461  0.1927
  175SAPI   H7R19885   1.122   0.564  25.050  2.6521 -1.3372  0.1674
  175SAPI   H7S19886   1.035   0.421  25.081 -0.7735  0.1101 -0.2104
  175SAPI   C2819887   0.958   0.524  24.908 -0.3804  0.6069 -0.3844
  175SAPI   H8R19888   0.973   0.532  24.800 -1.6917 -0.0778 -0.6336
  175SAPI   C2919889   0.846   0.579  24.962 -0.1614  0.8314  0.5582
  175SAPI   H9R19890   0.767   0.610  24.892 -0.3689 -0.1403  0.3399
  175SAPI  C21019891   0.801   0.594  25.105 -1.3977  0.3004 -0.4273
  175SAPI  H10R19892   0.835   0.509  25.169  0.7598  2.4303  1.4415
  175SAPI  H10S19893   0.692   0.573  25.111 -1.2745 -1.4822 -2.8086
  175SAPI  C21119894   0.841   0.706  25.189  0.7449 -0.8711 -0.0474
  175SAPI  H11R19895   0.917   0.776  25.153  0.2740 -0.2493  0.1483
  175SAPI  C21219896   0.769   0.747  25.297  0.3950  0.7728 -0.1687
  175SAPI  H12R19897   0.791   0.844  25.345 -2.3590  0.2394  2.4457
  175SAPI  C21319898   0.635   0.689  25.346  0.1207  0.0470 -0.0435
  175SAPI  H13R19899   0.559   0.676  25.265  0.8047  0.3836 -0.7580
  175SAPI  H13S19900   0.582   0.765  25.406  0.3987 -1.5385  2.3506
  175SAPI  C21419901   0.662   0.574  25.442  0.4795 -0.3367 -0.0117
  175SAPI  H14R19902   0.744   0.604  25.508  0.1734 -0.5006  0.4519
  175SAPI  C21519903   0.601   0.458  25.458  0.6589  0.6343 -0.6807
  175SAPI  H15R19904   0.623   0.402  25.550  0.4752  3.8410  1.4873
  175SAPI  C21619905   0.480   0.402  25.392  0.3438  0.2720  0.6652
  175SAPI  H16R19906   0.400   0.478  25.377 -1.5344 -1.7191  0.1003
  175SAPI  H16S19907   0.435   0.328  25.462 -2.0301  1.1812  0.2114
  175SAPI  C21719908   0.513   0.341  25.255 -0.5136  0.4354 -0.1592
  175SAPI  H17R19909   0.566   0.420  25.198  0.3030 -0.1602 -0.2423
  175SAPI  H17S19910   0.422   0.310  25.199  0.0427 -2.1045  0.2322
  175SAPI  C21819911   0.597   0.215  25.255 -0.3896 -0.2162 -0.4153
  175SAPI  H18R19912   0.534   0.144  25.313 -2.0406  2.3477  1.1425
  175SAPI  H18S19913   0.691   0.241  25.308 -0.1088  0.9855 -1.4746
  175SAPI  C21919914   0.638   0.164  25.116 -0.4738 -0.0405 -0.1826
  175SAPI  H19R19915   0.545   0.136  25.061 -1.1091 -1.5251  1.5691
  175SAPI  H19S19916   0.699   0.072  25.128  2.0703  1.5326 -0.2309
  175SAPI  C22019917   0.714   0.267  25.025 -0.5330 -0.4413 -0.6916
  175SAPI  H20R19918   0.650   0.354  24.999  0.4907  0.6888  0.4508
  175SAPI  H20S19919   0.741   0.220  24.928  2.9890  0.9721 -0.5575
  175SAPI  H20T19920   0.811   0.301  25.068 -0.2425 -1.2731 -0.6783
  175SAPI   C3319921   2.012   0.039  25.042 -0.7934 -0.2338 -0.0683
  175SAPI   H3X19922   2.101  -0.008  25.089  0.4672  0.1456 -1.9839
  175SAPI   H3Y19923   2.032   0.040  24.933  0.1412 -0.3203  0.0971
  175SAPI   C3419924   1.890  -0.050  25.064  0.0649  0.0800  0.1222
  175SAPI   H4X19925   1.862  -0.048  25.172 -1.1887  0.4661 -0.1873
  175SAPI   H4Y19926   1.921  -0.153  25.038  0.6090 -0.5065  2.7537
  175SAPI   C3519927   1.766  -0.005  24.969 -0.3592  0.3975 -0.0091
  175SAPI   H5X19928   1.789  -0.013  24.860 -0.5277 -0.1649 -0.0071
  175SAPI   H5Y19929   1.741   0.098  25.002 -1.6348  0.3403 -0.7297
  175SAPI   C3619930   1.637  -0.080  24.984  0.0833 -0.1205 -0.3542
  175SAPI   H6X19931   1.597  -0.070  25.087 -0.6260  4.6177 -0.8384
  175SAPI   H6Y19932   1.659  -0.186  24.959  1.6021  0.0032  0.3585
  175SAPI   C3719933   1.531  -0.042  24.884 -0.4733 -0.4021  0.4029
  175SAPI   H7X19934   1.570  -0.023  24.781  2.0672  1.2923  1.5724
  175SAPI   H7Y19935   1.495   0.056  24.922  0.0686 -0.6957  1.7030
  175SAPI   C3819936   1.412  -0.133  24.883 -0.5531 -0.0233 -0.4788
  175SAPI   H8X19937   1.442  -0.222  24.823 -0.4303 -1.1246  1.1642
  175SAPI   H8Y19938   1.327  -0.076  24.840 -1.2535 -1.4167 -0.9850
  175SAPI   C3919939   1.364  -0.170  25.029  0.2768  0.7955 -0.3493
  175SAPI   H9X19940   1.345  -0.074  25.082 -1.3287 -0.3407  1.2388
  175SAPI   H9Y19941   1.450  -0.209  25.089 -0.3819 -0.3071 -0.0968
  175SAPI  C31019942   1.247  -0.264  25.028  0.4619 -0.0820 -0.2816
  175SAPI  H10X19943   1.167  -0.217  24.967  0.5957 -1.4571 -1.5926
  175SAPI  H10Y19944   1.214  -0.297  25.129  2.0978 -0.3007  0.2168
  175SAPI  C31119945   1.272  -0.395  24.956  0.8112 -0.8078 -0.0798
  175SAPI  H11X19946   1.340  -0.463  25.011  1.5472 -0.0566 -0.0395
  175SAPI  H11Y19947   1.333  -0.368  24.868  0.3430  0.9789  0.1002
  175SAPI  C31219948   1.152  -0.473  24.903  0.3488  0.3429 -1.0188
  175SAPI  H12X19949   1.076  -0.515  24.973 -0.4485  2.1137 -0.7697
  175SAPI  H12Y19950   1.183  -0.565  24.849 -0.1925  0.3301 -1.3119
  175SAPI  C31319951   1.076  -0.401  24.792 -0.0537 -0.5451 -0.3217
  175SAPI  H13X19952   1.137  -0.370  24.705 -1.2736  0.7436 -0.7467
  175SAPI  H13Y19953   1.016  -0.314  24.827 -1.0284 -1.1357 -0.4928
  175SAPI  C31419954   0.971  -0.488  24.727 -0.4369  0.6503 -0.2183
  175SAPI  H14X19955   0.892  -0.517  24.800  0.4340 -1.5509 -0.0717
  175SAPI  H14Y19956   1.024  -0.579  24.693 -1.3285 -0.1006  0.3649
  175SAPI  C31519957   0.899  -0.417  24.603 -1.0525  0.2227 -0.1372
  175SAPI  H15X19958   0.901  -0.307  24.623 -1.9795  0.0421  1.1111
  175SAPI  H15Y19959   0.794  -0.454  24.607 -1.0631  0.1265 -1.0902
  175SAPI  C31619960   0.943  -0.455  24.466 -0.0819 -0.0519  0.1567
  175SAPI  H16X19961   0.929  -0.565  24.456  0.8029 -0.1742  0.1170
  175SAPI  H16Y19962   1.051  -0.434  24.448 -0.7274  1.8835 -1.9475
  175SAPI  C31719963   0.854  -0.396  24.355 -0.3489  0.6893 -0.6927
  175SAPI  H17X19964   0.852  -0.285  24.368 -0.6682  0.4402  2.0827
  175SAPI  H17Y19965   0.748  -0.427  24.365  0.3488 -2.3758 -1.8086
  175SAPI  C31819966   0.903  -0.435  24.215 -0.4706 -0.0901  0.4338
  175SAPI  H18X19967   0.983  -0.360  24.196 -1.2212  0.5752 -0.1286
  175SAPI  H18Y19968   0.817  -0.410  24.150  0.0593  1.8425  0.4200
  175SAPI  H18Z19969   0.932  -0.542  24.212  1.7742  0.4864  0.0238
  176SAPI   C1219970   1.115   2.715  22.548  0.6793 -0.3308 -0.2163
  176SAPI    H219971   1.137   2.749  22.652 -0.6326  0.8314 -0.2990
  176SAPI    O219972   1.229   2.660  22.484 -0.3809  0.3267 -0.8688
  176SAPI   HO219973   1.300   2.718  22.511  0.7928 -1.6376  0.5293
  176SAPI   C1319974   1.004   2.610  22.546  0.1205 -0.4086 -0.2699
  176SAPI    H319975   0.910   2.648  22.591  1.0225  1.9444 -0.2725
  176SAPI    O319976   1.045   2.500  22.628 -0.4361 -0.1197 -0.7680
  176SAPI   HO319977   1.140   2.498  22.643 -0.6822 -2.4486  1.1385
  176SAPI   C1419978   0.972   2.563  22.406  0.5947 -0.2180 -0.2181
  176SAPI    H419979   1.057   2.500  22.372  2.3246  1.3066  1.1248
  176SAPI    O419980   0.852   2.486  22.408  0.0365 -0.5069 -0.0431
  176SAPI   HO419981   0.872   2.393  22.417 -0.1820 -0.3554  2.9299
  176SAPI   C1519982   0.972   2.679  22.307 -0.3676  0.3085 -0.6447
  176SAPI    H519983   0.864   2.704  22.294 -0.6387 -0.6218 -0.2263
  176SAPI    O519984   1.003   2.629  22.173  0.1015 -0.3558 -0.2185
  176SAPI   HO519985   1.098   2.612  22.170 -0.1007 -2.2909  1.8194
  176SAPI   C1619986   1.038   2.815  22.339 -0.1285 -0.0762 -1.1532
  176SAPI    H619987   1.135   2.821  22.284  1.5707  0.1014  1.6839
  176SAPI    O619988   0.970   2.928  22.282 -0.0846  0.1460 -0.4042
  176SAPI   HO619989   1.001   3.000  22.339  2.9385  0.1291 -1.8448
  176SAPI   C1119990   1.079   2.849  22.481  0.2629  0.2159 -0.3235
  176SAPI    H119991   0.984   2.883  22.527 -1.4368 -1.8420 -2.0606
  176SAPI     P19992   1.201   3.094  22.505 -0.4862 -0.1689  0.5159
  176SAPI   O1319993   1.094   3.152  22.417 -0.1417  0.5237  0.0075
  176SAPI   O1419994   1.344   3.133  22.482  0.8482 -0.3916  0.3388
  176SAPI   O1219995   1.197   2.933  22.497  0.1994 -0.2610  0.1397
  176SAPI   O1119996   1.166   3.128  22.661  0.5756 -0.0776  0.4214
  176SAPI    C119997   1.264   3.106  22.761  0.3940 -0.0532  0.2421
  176SAPI    HA19998   1.278   2.996  22.776 -1.1477 -0.2141  0.6161
  176SAPI    HB19999   1.358   3.162  22.741  1.7503 -2.5079 -0.6992
  176SAPI    C220000   1.206   3.162  22.894  0.3911 -0.6418 -0.3124
  176SAPI    HS20001   1.287   3.146  22.969  0.1222 -0.1994  0.0801
  176SAPI   O2120002   1.091   3.089  22.929  1.2326  0.1436 -0.1517
  176SAPI   C2120003   1.107   2.974  22.974 -0.4359  0.3375  0.4560
  176SAPI   O2220004   1.211   2.920  23.012 -0.0057  0.4726  0.4662
  176SAPI   C2220005   0.962   2.910  22.983 -0.7529  0.1698 -0.5481
  176SAPI   H2R20006   0.887   2.967  23.041 -1.6238 -1.7974  0.3853
  176SAPI   H2S20007   0.925   2.918  22.879  0.4926  3.4107 -0.8531
  176SAPI    C320008   1.173   3.314  22.882 -0.2865 -0.2669  0.4085
  176SAPI    HX20009   1.089   3.334  22.812  0.0143  0.3399  0.2133
  176SAPI    HY20010   1.261   3.361  22.833  0.1421  0.5450  1.8918
  176SAPI   O3120011   1.174   3.374  23.012 -0.1201  0.2392 -0.5758
  176SAPI   C3120012   1.047   3.414  23.049 -0.3123  0.3485  0.5268
  176SAPI   O3220013   0.945   3.405  22.986 -0.1088  0.3731  0.1162
  176SAPI   C3220014   1.056   3.468  23.189 -0.5279 -0.0170  0.2645
  176SAPI   H2X20015   1.015   3.571  23.188 -1.3732 -0.3420 -1.2358
  176SAPI   H2Y20016   1.163   3.480  23.215 -0.7024  0.9582  0.5809
  176SAPI   C2320017   0.962   2.756  23.018 -0.2534  0.5451  0.0316
  176SAPI   H3R20018   1.023   2.736  23.108  1.1274  0.5261 -0.8779
  176SAPI   H3S20019   1.021   2.700  22.942 -0.6502  0.3980 -0.1680
  176SAPI   C2420020   0.821   2.712  23.041 -0.1692 -0.2096  0.2866
  176SAPI   H4R20021   0.754   2.791  23.079 -0.4088 -0.1643 -0.2312
  176SAPI   H4S20022   0.817   2.624  23.110 -0.5394 -1.6064 -1.4530
  176SAPI   C2520023   0.779   2.657  22.907  0.2810 -0.4522  0.2369
  176SAPI   H5R20024   0.746   2.730  22.832  1.1436  0.3692  0.6308
  176SAPI   C2620025   0.780   2.531  22.880  1.0120  0.1715  0.3539
  176SAPI   H6R20026   0.754   2.496  22.778  2.3114 -0.0976  0.1053
  176SAPI   C2720027   0.818   2.407  22.958 -0.1839 -0.4230 -0.3150
  176SAPI   H7R20028   0.731   2.345  22.988 -1.4815  0.6507 -1.6988
  176SAPI   H7S20029   0.861   2.448  23.053 -0.8864 -2.9616  1.1805
  176SAPI   C2820030   0.928   2.328  22.883 -0.2248 -0.3795  0.3311
  176SAPI   H8R20031   0.890   2.290  22.787 -1.7589  0.7545  0.4480
  176SAPI   C2920032   1.060   2.304  22.919 -0.5275 -0.5759  0.7835
  176SAPI   H9R20033   1.122   2.234  22.860 -1.7338  0.2405 -1.6262
  176SAPI  C21020034   1.123   2.333  23.049  0.1476 -0.4483  0.3947
  176SAPI  H10R20035   1.202   2.264  23.087  2.2750  0.7673 -1.5109
  176SAPI  H10S20036   1.037   2.339  23.119  0.5992  0.1459  0.9152
  176SAPI  C21120037   1.195   2.467  23.040  0.4024  0.6042  0.1583
  176SAPI  H11R20038   1.225   2.498  22.939 -0.6682 -0.0146 -0.3795
  176SAPI  C21220039   1.225   2.547  23.144  0.1429  0.1032  0.5929
  176SAPI  H12R20040   1.276   2.644  23.131 -0.2039  0.0078 -1.9602
  176SAPI  C21320041   1.181   2.521  23.283  0.0849 -0.1368  0.2961
  176SAPI  H13R20042   1.181   2.410  23.292  1.3816 -0.1223  0.8388
  176SAPI  H13S20043   1.080   2.561  23.302 -0.2017 -0.6742 -0.0614
  176SAPI  C21420044   1.285   2.572  23.386  0.1514  0.3344 -0.2204
  176SAPI  H14R20045   1.340   2.662  23.352 -0.0860  0.2366 -0.8765
  176SAPI  C21520046   1.307   2.529  23.510  0.0031 -0.5618 -0.3223
  176SAPI  H15R20047   1.388   2.578  23.565 -1.8556  1.8419  0.4928
  176SAPI  C21620048   1.253   2.398  23.562  0.2942  0.2718  0.5853
  176SAPI  H16R20049   1.156   2.362  23.522  0.6538  1.4035 -1.4323
  176SAPI  H16S20050   1.228   2.406  23.670 -0.3104 -0.1234  0.4783
  176SAPI  C21720051   1.369   2.289  23.551  0.0262  0.2341 -0.0936
  176SAPI  H17R20052   1.442   2.321  23.628 -2.4642  1.6503  1.8029
  176SAPI  H17S20053   1.414   2.298  23.449  0.4594  1.7994  0.2060
  176SAPI  C21820054   1.326   2.152  23.600 -0.6554  0.7283  0.0635
  176SAPI  H18R20055   1.398   2.073  23.572 -0.1864  1.0699  0.3049
  176SAPI  H18S20056   1.227   2.124  23.558 -0.5362 -1.2440  1.0090
  176SAPI  C21920057   1.320   2.148  23.751  0.0928 -0.2114 -0.2660
  176SAPI  H19R20058   1.256   2.231  23.790 -1.6534 -0.3449 -2.6178
  176SAPI  H19S20059   1.424   2.177  23.778 -0.4642  0.7592  0.9628
  176SAPI  C22020060   1.281   2.015  23.820  0.1940 -0.0973  0.6735
  176SAPI  H20R20061   1.239   2.033  23.922  0.7520 -1.8190  1.2424
  176SAPI  H20S20062   1.372   1.952  23.826 -0.3421 -0.7237  3.1901
  176SAPI  H20T20063   1.206   1.960  23.760  1.9296 -3.8962  1.6702
  176SAPI   C3320064   0.966   3.382  23.280 -0.7276 -0.2168  0.8353
  176SAPI   H3X20065   0.992   3.275  23.262 -1.3114 -0.2511  0.1493
  176SAPI   H3Y20066   0.859   3.400  23.258 -0.6683 -0.0022  0.7194
  176SAPI   C3420067   0.992   3.406  23.424  0.0331 -0.5512 -0.2536
  176SAPI   H4X20068   1.097   3.430  23.452  0.0104 -1.2374  0.4613
  176SAPI   H4Y20069   0.978   3.314  23.484  0.4771  0.0626  0.8227
  176SAPI   C3520070   0.897   3.506  23.495 -0.1538 -0.2624  0.4684
  176SAPI   H5X20071   0.794   3.491  23.457 -0.2494  0.3972  0.4589
  176SAPI   H5Y20072   0.925   3.611  23.471 -1.1075  0.0153  0.5225
  176SAPI   C3620073   0.894   3.478  23.645 -0.1206  0.6970  0.9187
  176SAPI   H6X20074   0.996   3.489  23.687  0.2268  0.3565  0.1906
  176SAPI   H6Y20075   0.861   3.373  23.660 -1.6965  0.8029 -1.2116
  176SAPI   C3720076   0.803   3.573  23.719 -0.1991  0.4597 -0.6509
  176SAPI   H7X20077   0.702   3.579  23.672 -1.2412  1.1281  1.5487
  176SAPI   H7Y20078   0.842   3.676  23.727  2.9189 -0.7769  2.6247
  176SAPI   C3820079   0.785   3.534  23.870 -0.0733 -0.3397  0.2061
  176SAPI   H8X20080   0.882   3.550  23.923  0.7924  2.1776 -1.9480
  176SAPI   H8Y20081   0.762   3.425  23.868 -0.2232 -0.3133 -1.9370
  176SAPI   C3920082   0.678   3.610  23.947  0.0279 -0.3212 -0.2776
  176SAPI   H9X20083   0.576   3.615  23.902  0.4251 -0.2979 -1.1868
  176SAPI   H9Y20084   0.717   3.714  23.944 -0.9455  0.1670  1.8771
  176SAPI  C31020085   0.689   3.580  24.096 -0.0374  0.5549 -0.1196
  176SAPI  H10X20086   0.799   3.582  24.109 -0.1795  1.5909  1.0471
  176SAPI  H10Y20087   0.659   3.475  24.118 -0.7947  0.7113 -0.3655
  176SAPI  C31120088   0.620   3.684  24.180 -0.0235 -0.1500 -0.1249
  176SAPI  H11X20089   0.510   3.670  24.169 -0.2612  2.1680 -1.3369
  176SAPI  H11Y20090   0.630   3.786  24.136 -0.2074 -1.0619 -2.4320
  176SAPI  C31220091   0.659   3.672  24.329 -0.2835 -0.1061 -0.0415
  176SAPI  H12X20092   0.601   3.750  24.383 -0.4736  0.1186 -0.5658
  176SAPI  H12Y20093   0.767   3.694  24.340 -0.0096 -1.2231 -0.4141
  176SAPI  C31320094   0.641   3.532  24.381  0.0627  0.3946 -0.1307
  176SAPI  H13X20095   0.724   3.469  24.342 -1.5652 -1.3747 -0.9264
  176SAPI  H13Y20096   0.554   3.475  24.342 -0.6103 -0.0985  1.9531
  176SAPI  C31420097   0.645   3.521  24.535 -0.6403 -0.3504 -0.2336
  176SAPI  H14X20098   0.566   3.581  24.585 -0.2279 -1.9285  2.5295
  176SAPI  H14Y20099   0.744   3.564  24.561  0.0802 -0.8952 -1.8987
  176SAPI  C31520100   0.636   3.376  24.590  0.2022 -0.1366  0.6289
  176SAPI  H15X20101   0.715   3.313  24.545 -1.9428 -1.9176 -0.8818
  176SAPI  H15Y20102   0.549   3.319  24.550  1.1958 -1.8132  0.7888
  176SAPI  C31620103   0.641   3.367  24.739  0.1521  0.5334 -0.1855
  176SAPI  H16X20104   0.579   3.434  24.802 -0.4303 -0.4881  0.3571
  176SAPI  H16Y20105   0.737   3.412  24.774  1.2876 -1.3260 -0.7676
  176SAPI  C31720106   0.618   3.221  24.794  1.0322 -0.1789  0.9918
  176SAPI  H17X20107   0.644   3.156  24.707  1.4813 -2.0751  2.4680
  176SAPI  H17Y20108   0.510   3.203  24.812  0.4853 -1.1761 -2.5460
  176SAPI  C31820109   0.698   3.178  24.913 -0.5024 -0.4563  0.7923
  176SAPI  H18X20110   0.806   3.189  24.891 -0.7055 -0.9327 -0.4939
  176SAPI  H18Y20111   0.674   3.073  24.939 -4.8772  0.4762  1.3986
  176SAPI  H18Z20112   0.660   3.241  24.997  0.2870 -1.4139  1.8875
  177SLPC     N20113   1.249   0.092  34.543 -0.8577 -0.7178  0.3769
  177SLPC   C1320114   1.294   0.201  34.632 -0.5819  0.3549  0.1703
  177SLPC  H13A20115   1.275   0.177  34.735  0.2105 -0.9518  0.0280
  177SLPC  H13B20116   1.400   0.214  34.617 -0.4280 -0.1611  0.7975
  177SLPC  H13C20117   1.242   0.292  34.606 -0.5597  0.4801  0.5617
  177SLPC   C1420118   1.108   0.052  34.571  0.3288  0.6918  0.7310
  177SLPC  H14A20119   1.063  -0.022  34.507 -2.5679  0.5666  2.7084
  177SLPC  H14B20120   1.098   0.011  34.670 -1.4991 -2.0791 -0.4843
  177SLPC  H14C20121   1.044   0.139  34.569  0.3443  0.8695  3.5045
  177SLPC   C1520122   1.336  -0.032  34.572  0.5002  0.4641  0.4270
  177SLPC  H15A20123   1.314  -0.070  34.670 -0.0504 -0.7248 -0.1406
  177SLPC  H15B20124   1.293  -0.102  34.502 -0.4750 -0.9051  2.3251
  177SLPC  H15C20125   1.443  -0.020  34.559  0.5582 -0.0775  0.3787
  177SLPC   C1220126   1.262   0.128  34.396  0.2076  0.1331  0.4624
  177SLPC  H12A20127   1.362   0.158  34.368  0.0844 -0.1644 -0.3064
  177SLPC  H12B20128   1.210   0.222  34.385 -1.8401 -0.9164  0.6710
  177SLPC   C1120129   1.212   0.030  34.293 -0.1915  0.5880  0.4163
  177SLPC  H11A20130   1.209   0.091  34.200 -0.9796  1.3817  0.9460
  177SLPC  H11B20131   1.105   0.006  34.312  0.0298  1.0569  2.5595
  177SLPC     P20132   1.351  -0.150  34.163  0.4065 -0.1254 -0.1979
  177SLPC   O1320133   1.395  -0.290  34.198 -0.1942  0.0899  0.1892
  177SLPC   O1420134   1.254  -0.158  34.052 -0.8178  0.7069  0.2999
  177SLPC   O1220135   1.280  -0.097  34.295  0.0704 -0.2954  0.1912
  177SLPC   O1120136   1.469  -0.055  34.134 -0.8279  0.7167  0.0122
  177SLPC    C120137   1.567  -0.031  34.237 -0.4459  0.1200  0.4054
  177SLPC    HA20138   1.548   0.062  34.296  0.9332 -0.3538  1.6607
  177SLPC    HB20139   1.575  -0.117  34.307  0.7256  0.0742  0.2314
  177SLPC    C220140   1.711  -0.027  34.171 -0.3888 -0.4632  0.2678
  177SLPC    HS20141   1.779  -0.004  34.255 -0.7555  1.1450  0.1536
  177SLPC   O2120142   1.722   0.062  34.062  0.3082  0.3544  0.1001
  177SLPC   C2120143   1.731   0.186  34.097  0.1872  0.4539  0.6727
  177SLPC   O2220144   1.737   0.231  34.211 -0.4879 -0.3647 -0.5190
  177SLPC   C2220145   1.726   0.269  33.972 -0.0770  1.0631  0.6708
  177SLPC   H2R20146   1.629   0.252  33.921  1.6597 -2.8834 -1.7868
  177SLPC   H2S20147   1.733   0.375  34.003 -0.6703  0.8660  1.5125
  177SLPC    C320148   1.752  -0.172  34.124  0.7404  0.5268  0.8381
  177SLPC    HX20149   1.684  -0.198  34.040 -0.4028  1.4342  1.4594
  177SLPC    HY20150   1.735  -0.232  34.215  1.7470 -0.8063  0.1804
  177SLPC   O3120151   1.898  -0.183  34.096  0.2084  0.3981 -0.7046
  177SLPC   C3120152   1.932  -0.172  33.970  1.0172  0.8799 -0.4393
  177SLPC   O3220153   1.856  -0.162  33.877 -0.2404  0.3648  0.1635
  177SLPC   C3220154   2.089  -0.176  33.969  0.0424 -0.1284  0.1865
  177SLPC   H2X20155   2.121  -0.277  34.004  1.3471  0.6707  1.4472
  177SLPC   H2Y20156   2.117  -0.101  34.046  1.9258  1.4023 -1.8794
  177SLPC   C2320157   1.847   0.234  33.876  0.7620 -0.8497 -0.0372
  177SLPC   H3R20158   1.860   0.123  33.869  0.4724 -0.7808 -2.6136
  177SLPC   H3S20159   1.945   0.273  33.909  1.1019 -0.5609 -1.3050
  177SLPC   C2420160   1.835   0.275  33.726 -0.4101 -0.5246 -0.1173
  177SLPC   H4R20161   1.939   0.265  33.689  0.4923 -1.1561  2.3811
  177SLPC   H4S20162   1.786   0.372  33.701  0.1056 -0.5646 -1.3396
  177SLPC   C2520163   1.752   0.171  33.646  0.0352  0.0665  0.3859
  177SLPC   H5R20164   1.652   0.155  33.692 -0.7342  0.3330 -1.1120
  177SLPC   H5S20165   1.800   0.071  33.647 -2.3199 -1.2017 -1.0141
  177SLPC   C2620166   1.721   0.225  33.504 -0.0958 -0.5919  0.4102
  177SLPC   H6R20167   1.693   0.332  33.510  2.5899  0.2177 -0.3324
  177SLPC   H6S20168   1.630   0.172  33.468 -0.5184  2.0536 -2.9218
  177SLPC   C2720169   1.837   0.205  33.402 -0.6618  0.0598 -0.5928
  177SLPC   H7R20170   1.857   0.098  33.382 -0.2784 -0.3783  1.8126
  177SLPC   H7S20171   1.919   0.254  33.458  0.3466  1.8488 -3.4276
  177SLPC   C2820172   1.831   0.292  33.276  0.1781 -0.0956  0.2018
  177SLPC   H8R20173   1.933   0.302  33.234  0.6290 -0.6122  1.1488
  177SLPC   H8S20174   1.798   0.396  33.295  0.5815  0.2598 -0.9888
  177SLPC   C2920175   1.750   0.223  33.173 -0.1509 -0.4359 -0.3583
  177SLPC   H9R20176   1.650   0.193  33.207  0.0707  1.6263  2.4229
  177SLPC  C21020177   1.778   0.196  33.042 -0.1031  1.4595 -0.1256
  177SLPC  H10R20178   1.705   0.142  32.981 -1.1699  0.6075  1.8123
  177SLPC  C21120179   1.895   0.224  32.956  0.3566  0.1789 -0.3272
  177SLPC  H11R20180   1.974   0.152  32.987 -0.0284  0.6193  1.8030
  177SLPC  H11S20181   1.858   0.189  32.857  0.4002 -1.6902  0.2843
  177SLPC  C21220182   1.938   0.365  32.958 -0.1321 -0.5438 -0.1385
  177SLPC  H12R20183   1.939   0.408  33.059 -0.2797 -0.4014 -0.1969
  177SLPC  C21320184   1.962   0.447  32.859  0.0590 -0.1181 -0.0931
  177SLPC  H13R20185   1.990   0.551  32.885  0.7323 -0.5122  0.8043
  177SLPC  C21420186   1.966   0.437  32.712  0.2603  0.7491  0.8587
  177SLPC  H14R20187   1.943   0.336  32.672  1.3916  0.4525  0.9459
  177SLPC  H14S20188   2.068   0.463  32.677 -0.1248  1.2653  0.0694
  177SLPC  C21520189   1.882   0.541  32.642 -0.1889  0.4741  0.3304
  177SLPC  H15R20190   1.883   0.641  32.689  0.5388  1.3050 -1.3879
  177SLPC  H15S20191   1.779   0.503  32.661 -0.4427  0.8262 -0.3513
  177SLPC  C21620192   1.897   0.539  32.500  0.0825 -0.1758  0.1766
  177SLPC  H16R20193   1.868   0.437  32.467 -3.3020 -0.4744  3.4938
  177SLPC  H16S20194   2.004   0.546  32.472 -0.0152 -1.7532 -0.7643
  177SLPC  C21720195   1.815   0.656  32.434  0.3640 -1.0930 -0.2688
  177SLPC  H17R20196   1.844   0.749  32.488 -0.8381  0.0073 -1.4496
  177SLPC  H17S20197   1.707   0.645  32.461  1.1211 -1.7425  2.9736
  177SLPC  C21820198   1.837   0.671  32.278 -0.4152  0.0046  0.3984
  177SLPC  H18R20199   1.765   0.736  32.225  1.2996 -0.1244 -2.2538
  177SLPC  H18S20200   1.823   0.569  32.235  0.7135 -0.4462  1.0622
  177SLPC  H18T20201   1.942   0.700  32.257 -0.5559  2.5889  2.7485
  177SLPC   C3320202   2.149  -0.148  33.832  0.2037  0.0675  0.5032
  177SLPC   H3X20203   2.123  -0.042  33.809 -0.8937 -0.3781 -0.3913
  177SLPC   H3Y20204   2.101  -0.213  33.756 -1.1460  0.0009  1.3847
  177SLPC   C3420205   2.302  -0.162  33.831  0.5251  0.0577 -0.3481
  177SLPC   H4X20206   2.341  -0.132  33.732  3.5650 -1.4079  0.3120
  177SLPC   H4Y20207   2.324  -0.270  33.845 -1.3539 -0.1416  1.5924
  177SLPC   C3520208   2.371  -0.078  33.942 -0.7287  0.2044  0.8219
  177SLPC   H5X20209   2.347  -0.118  34.042 -1.8813  0.6754  0.7548
  177SLPC   H5Y20210   2.332   0.026  33.933 -0.2516  0.4952  1.9872
  177SLPC   C3620211   2.524  -0.078  33.917  0.7184  0.5851 -0.8420
  177SLPC   H6X20212   2.557  -0.177  33.880 -2.3070 -1.2269  0.7822
  177SLPC   H6Y20213   2.572  -0.065  34.017  0.9340 -1.5899 -0.6124
  177SLPC   C3720214   2.561   0.021  33.817 -0.0464 -0.2980  0.0713
  177SLPC   H7X20215   2.479   0.094  33.801 -1.2342 -1.6616 -0.2369
  177SLPC   H7Y20216   2.586  -0.020  33.717  1.3344 -0.7291  0.5773
  177SLPC   C3820217   2.685   0.108  33.856 -0.7123  0.4819 -0.0758
  177SLPC   H8X20218   2.769   0.035  33.864 -0.5976  0.6192 -0.0149
  177SLPC   H8Y20219   2.661   0.160  33.951 -0.3147 -1.1462  0.9567
  177SLPC   C3920220   2.704   0.218  33.746  0.1526  0.2568  0.2186
  177SLPC   H9X20221   2.791   0.276  33.784 -0.1925  0.1721  1.1641
  177SLPC   H9Y20222   2.623   0.293  33.756  0.7038  1.2927 -2.2826
  177SLPC  C31020223   2.719   0.178  33.605 -0.0666 -0.3570  0.4678
  177SLPC  H10X20224   2.636   0.107  33.583 -1.7985  1.8980 -0.7126
  177SLPC  H10Y20225   2.817   0.127  33.602  0.7673  1.1299  1.4044
  177SLPC  C31120226   2.710   0.308  33.516  0.4697  0.1221 -1.3018
  177SLPC  H11X20227   2.804   0.367  33.522  0.4770 -0.0114  1.3592
  177SLPC  H11Y20228   2.621   0.371  33.540  1.0491  0.2392  0.8091
  177SLPC  C31220229   2.714   0.270  33.365  0.8841  0.2314 -0.1115
  177SLPC  H12X20230   2.797   0.196  33.358  0.2249 -0.5263 -0.0253
  177SLPC  H12Y20231   2.743   0.362  33.309 -2.4920  0.8782 -0.9984
  177SLPC  C31320232   2.584   0.204  33.308 -0.4948  0.0798  0.5292
  177SLPC  H13X20233   2.504   0.279  33.322 -0.0816  1.2714 -2.6593
  177SLPC  H13Y20234   2.550   0.112  33.360 -0.9147 -0.3804 -0.5350
  177SLPC  C31420235   2.593   0.154  33.167 -0.3867  0.4137 -0.0451
  177SLPC  H14X20236   2.644   0.057  33.152 -0.6448  0.6448 -3.0848
  177SLPC  H14Y20237   2.655   0.227  33.110  0.0848  0.5598  0.6434
  177SLPC  C31520238   2.454   0.163  33.087 -0.0107  0.3037  0.7203
  177SLPC  H15X20239   2.415   0.261  33.121  2.3514  0.9145  1.9059
  177SLPC  H15Y20240   2.395   0.088  33.143  1.2506 -0.2811  1.3204
  177SLPC  C31620241   2.471   0.146  32.935 -0.6169 -0.0997 -0.5257
  177SLPC  H16X20242   2.557   0.076  32.930 -1.5361 -1.4803  1.6124
  177SLPC  H16Y20243   2.505   0.243  32.893 -1.6508  0.8115  0.6562
  177SLPC  C31720244   2.343   0.112  32.864 -0.1787  0.5498 -0.4224
  177SLPC  H17X20245   2.316   0.016  32.913  0.4815  1.4403  1.8228
  177SLPC  H17Y20246   2.368   0.091  32.758 -3.1204 -2.4403 -0.6805
  177SLPC  C31820247   2.234   0.211  32.865 -0.1102 -0.5357  0.0222
  177SLPC  H18X20248   2.253   0.301  32.802  3.2481 -0.7780  0.4924
  177SLPC  H18Y20249   2.220   0.250  32.968  1.0927  2.8250 -0.9654
  177SLPC  H18Z20250   2.142   0.159  32.831 -0.6643 -1.5448  2.8207
  178SLPC     N20251   1.714   0.415  42.501 -0.2178  0.3459 -1.0571
  178SLPC   C1320252   1.590   0.457  42.572  0.1295 -0.4114 -0.1307
  178SLPC  H13A20253   1.561   0.385  42.647 -0.5299 -1.3918 -1.2868
  178SLPC  H13B20254   1.606   0.550  42.625  0.3500 -1.1849  1.1980
  178SLPC  H13C20255   1.499   0.468  42.515 -1.0562 -2.2566  1.2857
  178SLPC   C1420256   1.823   0.367  42.592 -0.7228 -0.3494  0.0008
  178SLPC  H14A20257   1.796   0.314  42.683  0.1153  0.5354  0.7982
  178SLPC  H14B20258   1.896   0.314  42.534 -1.9805 -1.7279 -0.3780
  178SLPC  H14C20259   1.862   0.459  42.632  0.1752 -0.1616 -1.2625
  178SLPC   C1520260   1.763   0.528  42.410  0.2523 -0.2379  0.8168
  178SLPC  H15A20261   1.850   0.507  42.349 -0.9554  1.4754 -1.7037
  178SLPC  H15B20262   1.674   0.552  42.352  2.7645  0.3329 -3.2007
  178SLPC  H15C20263   1.799   0.610  42.470 -2.5326 -0.7024  3.3378
  178SLPC   C1220264   1.684   0.307  42.403 -0.3920  0.3132  0.5878
  178SLPC  H12A20265   1.693   0.210  42.450  0.6126  0.4220  0.6373
  178SLPC  H12B20266   1.764   0.301  42.330 -0.9290  1.9428 -0.1817
  178SLPC   C1120267   1.569   0.319  42.308 -0.6175  0.1981  0.7176
  178SLPC  H11A20268   1.585   0.255  42.218  2.0469 -1.7390  2.4061
  178SLPC  H11B20269   1.558   0.423  42.272  2.8789  1.4995  2.8510
  178SLPC     P20270   1.406   0.133  42.388  0.3969  0.2454 -0.3367
  178SLPC   O1320271   1.497   0.066  42.488  0.1660  0.2432  0.0489
  178SLPC   O1420272   1.258   0.134  42.428 -0.2388  0.1569 -0.2482
  178SLPC   O1220273   1.453   0.278  42.371 -0.0725  0.4079 -0.1523
  178SLPC   O1120274   1.425   0.071  42.240  0.0928  1.0331 -0.9215
  178SLPC    C120275   1.494  -0.050  42.231  0.3609  0.6206  0.2913
  178SLPC    HA20276   1.603  -0.041  42.249  0.9334 -1.4668 -1.6580
  178SLPC    HB20277   1.459  -0.133  42.297  2.5446 -0.3940  0.2638
  178SLPC    C220278   1.473  -0.101  42.078 -0.8960  1.1329 -0.4720
  178SLPC    HS20279   1.542  -0.187  42.067 -0.6118  0.5265  4.0909
  178SLPC   O2120280   1.500   0.011  41.990 -0.6213  0.0247 -0.3328
  178SLPC   C2120281   1.626   0.030  41.979  0.1731 -0.1791  0.3878
  178SLPC   O2220282   1.713  -0.037  42.032  0.3810 -0.4873 -0.4610
  178SLPC   C2220283   1.646   0.136  41.876 -0.2987  0.1775 -0.1036
  178SLPC   H2R20284   1.583   0.226  41.894 -1.0452 -0.3288 -0.1733
  178SLPC   H2S20285   1.750   0.173  41.891  0.5820 -2.2932  0.2488
  178SLPC    C320286   1.325  -0.151  42.066 -0.8737 -0.1235 -0.8319
  178SLPC    HX20287   1.259  -0.070  42.103 -0.0704 -0.1209  0.6605
  178SLPC    HY20288   1.311  -0.239  42.133 -0.4908  2.1121  2.4326
  178SLPC   O3120289   1.283  -0.184  41.929  0.0632  0.0934  0.3570
  178SLPC   C3120290   1.341  -0.295  41.871 -0.3932 -1.0096 -0.2948
  178SLPC   O3220291   1.434  -0.352  41.921 -0.3866  0.7123  0.2735
  178SLPC   C3220292   1.275  -0.318  41.736  0.7956  0.5311  0.6133
  178SLPC   H2X20293   1.166  -0.295  41.740  1.1015  2.0313  1.1655
  178SLPC   H2Y20294   1.287  -0.425  41.712 -1.5401  0.1308  0.9890
  178SLPC   C2320295   1.635   0.074  41.729 -0.2942 -0.4568 -0.3805
  178SLPC   H3R20296   1.530   0.038  41.725 -1.0606  1.4531  0.7234
  178SLPC   H3S20297   1.700  -0.015  41.717 -1.2592 -1.8549  3.3735
  178SLPC   C2420298   1.656   0.174  41.620 -0.3272  0.0684 -0.3880
  178SLPC   H4R20299   1.753   0.221  41.646 -2.1458  2.5525  2.5549
  178SLPC   H4S20300   1.573   0.248  41.618  1.3789  2.3454  2.9808
  178SLPC   C2520301   1.672   0.112  41.478  0.0117  0.0575 -0.2720
  178SLPC   H5R20302   1.574   0.062  41.458  0.9242 -1.3204 -1.4726
  178SLPC   H5S20303   1.743   0.028  41.489  1.3995  1.3358  0.8719
  178SLPC   C2620304   1.725   0.200  41.368  0.4313 -0.0701  0.3376
  178SLPC   H6R20305   1.827   0.160  41.349  0.6835  1.1026 -0.9963
  178SLPC   H6S20306   1.739   0.300  41.415  0.3103 -0.8871  2.1937
  178SLPC   C2720307   1.634   0.186  41.246  0.4327  0.2276 -0.7880
  178SLPC   H7R20308   1.531   0.225  41.255  0.4197  0.3622 -1.4825
  178SLPC   H7S20309   1.629   0.078  41.220  1.9247 -0.2341  0.6304
  178SLPC   C2820310   1.708   0.263  41.130  0.1707  0.6975 -0.2485
  178SLPC   H8R20311   1.814   0.233  41.136 -0.5870 -2.0450  1.1475
  178SLPC   H8S20312   1.692   0.372  41.148 -1.6569  0.1853  1.7564
  178SLPC   C2920313   1.648   0.204  40.999  0.0623  0.0604  0.2041
  178SLPC   H9R20314   1.540   0.205  40.978 -0.0096  0.3228  0.5733
  178SLPC  C21020315   1.721   0.150  40.894 -0.2078  0.2656 -0.3404
  178SLPC  H10R20316   1.665   0.114  40.806  0.5165  0.4315 -0.8804
  178SLPC  C21120317   1.873   0.137  40.879  0.0966 -0.6473 -0.0323
  178SLPC  H11R20318   1.929   0.202  40.951 -3.1755  1.6313  0.6907
  178SLPC  H11S20319   1.907   0.189  40.787  0.4049  1.3051  1.1157
  178SLPC  C21220320   1.933   0.006  40.871 -0.0648 -0.5770 -0.1647
  178SLPC  H12R20321   1.865  -0.079  40.889  0.9689 -1.4430 -0.2711
  178SLPC  C21320322   2.053  -0.015  40.816  0.5226  0.4441 -0.3494
  178SLPC  H13R20323   2.088  -0.119  40.802 -0.1013  0.3425 -1.2011
  178SLPC  C21420324   2.155   0.081  40.765 -0.1830  0.0625  0.2019
  178SLPC  H14R20325   2.259   0.050  40.785  0.2739  0.1016 -1.9112
  178SLPC  H14S20326   2.135   0.183  40.805  1.3069  1.2983 -2.0104
  178SLPC  C21520327   2.155   0.087  40.610  0.3434  0.3304  0.0440
  178SLPC  H15R20328   2.066   0.142  40.571 -0.9759 -1.3084  0.6131
  178SLPC  H15S20329   2.151  -0.014  40.564  3.9844  0.7558 -1.5172
  178SLPC  C21620330   2.278   0.160  40.555 -0.0575  0.4062  0.3547
  178SLPC  H16R20331   2.363   0.100  40.594 -0.0494  0.9639  1.2263
  178SLPC  H16S20332   2.282   0.264  40.594  0.9241  1.1760 -1.6493
  178SLPC  C21720333   2.290   0.178  40.398  0.6602  0.3783  0.3307
  178SLPC  H17R20334   2.369   0.254  40.381  2.9022 -1.9467 -0.2944
  178SLPC  H17S20335   2.189   0.207  40.363  1.3980  1.5553 -0.9069
  178SLPC  C21820336   2.329   0.050  40.318  0.2895  0.7001 -0.4265
  178SLPC  H18R20337   2.355   0.090  40.217  0.8997  2.5652  0.4303
  178SLPC  H18S20338   2.253  -0.031  40.321  2.6199 -1.5656  2.0265
  178SLPC  H18T20339   2.423   0.009  40.360 -0.4168 -1.4870 -0.8553
  178SLPC   C3320340   1.358  -0.234  41.628  0.0539 -0.1718 -0.0667
  178SLPC   H3X20341   1.468  -0.248  41.637 -0.2051 -3.9888 -0.9443
  178SLPC   H3Y20342   1.323  -0.129  41.634  0.2231  0.0696 -2.3161
  178SLPC   C3420343   1.331  -0.293  41.492  0.3814 -0.4875 -0.1759
  178SLPC   H4X20344   1.227  -0.304  41.455  0.6387 -1.5232 -0.6138
  178SLPC   H4Y20345   1.355  -0.401  41.504  0.8436 -0.2186  1.7331
  178SLPC   C3520346   1.424  -0.217  41.389  0.0382  0.5284  0.5257
  178SLPC   H5X20347   1.525  -0.246  41.423 -0.0646 -0.2150  0.2115
  178SLPC   H5Y20348   1.423  -0.108  41.413 -1.3581  0.6907 -0.1374
  178SLPC   C3620349   1.389  -0.261  41.248 -0.6624 -0.3328  0.2904
  178SLPC   H6X20350   1.290  -0.218  41.224 -1.6829 -2.3181  0.6795
  178SLPC   H6Y20351   1.359  -0.368  41.240 -0.1663 -0.5933  1.7187
  178SLPC   C3720352   1.483  -0.217  41.131  0.2486 -0.0095 -0.4252
  178SLPC   H7X20353   1.506  -0.108  41.131  0.3808  0.0135 -2.7695
  178SLPC   H7Y20354   1.428  -0.239  41.037  0.3321  1.9224 -0.9707
  178SLPC   C3820355   1.611  -0.296  41.142  0.1874 -0.1285 -0.0622
  178SLPC   H8X20356   1.601  -0.397  41.188 -0.3129  0.5033  1.2685
  178SLPC   H8Y20357   1.661  -0.238  41.222 -0.6545  0.1506  0.2694
  178SLPC   C3920358   1.707  -0.299  41.022  0.1044 -0.2418 -0.1398
  178SLPC   H9X20359   1.807  -0.326  41.061  0.2480  1.2063  0.5799
  178SLPC   H9Y20360   1.709  -0.194  40.986 -0.1878 -0.3026 -0.3466
  178SLPC  C31020361   1.656  -0.383  40.904 -0.0737  0.5986  0.0819
  178SLPC  H10X20362   1.737  -0.393  40.828  1.7406  2.2005  1.6865
  178SLPC  H10Y20363   1.562  -0.333  40.873 -1.1615  0.1512  2.4924
  178SLPC  C31120364   1.629  -0.533  40.950 -0.6778 -0.4806 -0.4278
  178SLPC  H11X20365   1.554  -0.533  41.032 -1.1943 -1.1377 -0.8901
  178SLPC  H11Y20366   1.721  -0.574  40.997 -1.3056 -2.2898 -0.6987
  178SLPC  C31220367   1.578  -0.630  40.840  0.2937  0.3927  0.8304
  178SLPC  H12X20368   1.566  -0.729  40.890 -1.9888  0.5467  0.6541
  178SLPC  H12Y20369   1.656  -0.647  40.763  0.7295  1.7428  0.9637
  178SLPC  C31320370   1.454  -0.589  40.765  0.6794 -0.4638  0.2104
  178SLPC  H13X20371   1.456  -0.485  40.726  1.9012 -0.4382  0.3050
  178SLPC  H13Y20372   1.366  -0.603  40.831  0.5400 -1.9193 -0.2508
  178SLPC  C31420373   1.424  -0.668  40.631  0.4035  0.5023  0.3362
  178SLPC  H14X20374   1.520  -0.663  40.576 -0.4786 -0.9859 -1.4642
  178SLPC  H14Y20375   1.344  -0.622  40.569  0.0018 -0.3495  0.1988
  178SLPC  C31520376   1.387  -0.811  40.657 -0.3701  0.1295 -0.5349
  178SLPC  H15X20377   1.455  -0.840  40.740  0.1523 -3.0693 -1.9474
  178SLPC  H15Y20378   1.281  -0.838  40.677  0.0484 -0.1611  1.5485
  178SLPC  C31620379   1.426  -0.909  40.551  0.1356  0.2271  0.6101
  178SLPC  H16X20380   1.530  -0.886  40.522 -0.9838  2.4053 -2.1904
  178SLPC  H16Y20381   1.362  -0.889  40.462  1.2908  1.8795  0.1068
  178SLPC  C31720382   1.408  -1.052  40.594  0.0930  0.5902  0.0550
  178SLPC  H17X20383   1.302  -1.074  40.622  0.3642  0.0536  0.6769
  178SLPC  H17Y20384   1.456  -1.070  40.692 -0.5258  0.2817  0.3038
  178SLPC  C31820385   1.443  -1.141  40.475  0.3401  0.3597 -0.2523
  178SLPC  H18X20386   1.554  -1.135  40.470  0.3623  0.9250  0.7206
  178SLPC  H18Y20387   1.392  -1.102  40.384  0.0908 -1.8624 -1.1267
  178SLPC  H18Z20388   1.409  -1.245  40.492  0.3262  0.3648 -0.2476
  179SLPC     N20389   0.281   1.699  42.495  0.1993  0.5385 -0.2759
  179SLPC   C1320390   0.370   1.597  42.437 -0.6175  0.1791 -0.1292
  179SLPC  H13A20391   0.317   1.504  42.424 -0.7930  0.2719 -0.0719
  179SLPC  H13B20392   0.428   1.632  42.353  0.8748 -1.4272  0.1611
  179SLPC  H13C20393   0.448   1.571  42.508  0.4831 -2.7861 -2.2152
  179SLPC   C1420394   0.183   1.754  42.397 -0.4943  0.4591 -0.1599
  179SLPC  H14A20395   0.113   1.678  42.365 -2.0255  1.2163  1.2538
  179SLPC  H14B20396   0.136   1.846  42.428  1.3960  1.6863 -0.7582
  179SLPC  H14C20397   0.234   1.788  42.307  0.7254  1.0779  0.7367
  179SLPC   C1520398   0.360   1.818  42.549  0.6485 -0.7238  0.0677
  179SLPC  H15A20399   0.417   1.862  42.469 -0.4766  4.2219  1.6284
  179SLPC  H15B20400   0.289   1.893  42.581  1.3065  0.1366 -0.4575
  179SLPC  H15C20401   0.418   1.778  42.630  0.2465 -3.8053 -1.0501
  179SLPC   C1220402   0.201   1.642  42.615  0.3707  0.4952 -0.0320
  179SLPC  H12A20403   0.160   1.732  42.659 -1.1514 -1.4918  2.9102
  179SLPC  H12B20404   0.271   1.595  42.682  1.3503 -1.1969 -2.1223
  179SLPC   C1120405   0.088   1.537  42.587 -0.3355  0.3261  0.7629
  179SLPC  H11A20406  -0.007   1.584  42.553  0.4227 -0.4099 -2.7437
  179SLPC  H11B20407   0.074   1.476  42.678 -1.2421 -0.6202  0.0187
  179SLPC     P20408   0.052   1.386  42.385 -0.0952  0.2408 -0.0364
  179SLPC   O1320409   0.132   1.305  42.292  0.5177  0.2903 -0.5325
  179SLPC   O1420410  -0.065   1.315  42.442 -0.2983  0.2207 -0.1147
  179SLPC   O1220411   0.139   1.433  42.505  0.6775  0.4673  1.3384
  179SLPC   O1120412  -0.002   1.513  42.307  0.1065 -0.2353 -0.3262
  179SLPC    C120413  -0.136   1.567  42.309  0.2780 -0.3314 -0.4197
  179SLPC    HA20414  -0.206   1.495  42.356 -0.0717  1.3429  1.8099
  179SLPC    HB20415  -0.144   1.661  42.367  2.2207  0.5580 -1.5066
  179SLPC    C220416  -0.177   1.604  42.176 -0.4357 -0.1895 -0.6873
  179SLPC    HS20417  -0.189   1.509  42.120  1.7130 -0.5081 -0.6861
  179SLPC   O2120418  -0.068   1.687  42.127 -0.0946 -0.3352 -0.0200
  179SLPC   C2120419  -0.022   1.665  42.009 -0.0967 -0.4816 -0.2889
  179SLPC   O2220420  -0.065   1.589  41.925  0.3211 -0.3907 -0.0493
  179SLPC   C2220421   0.088   1.768  41.981 -0.7823 -1.1394  0.4124
  179SLPC   H2R20422   0.174   1.743  42.046 -0.0095  1.2356  0.3717
  179SLPC   H2S20423   0.120   1.741  41.878  4.4728  0.6360  1.3243
  179SLPC    C320424  -0.307   1.681  42.170  0.2817  0.3252  0.6283
  179SLPC    HX20425  -0.292   1.760  42.247  1.4429 -0.4564  1.2439
  179SLPC    HY20426  -0.394   1.619  42.200  0.1843  0.2672  0.2311
  179SLPC   O3120427  -0.338   1.745  42.041  0.5173  0.2429  0.0866
  179SLPC   C3120428  -0.372   1.658  41.942 -0.3190  0.4649  0.1898
  179SLPC   O3220429  -0.403   1.538  41.955 -0.0864  0.2850  0.2265
  179SLPC   C3220430  -0.386   1.737  41.816 -0.0788  0.6894 -0.9915
  179SLPC   H2X20431  -0.317   1.708  41.734 -1.9130  0.2177 -2.4545
  179SLPC   H2Y20432  -0.384   1.846  41.838 -0.8487  0.9764 -2.2106
  179SLPC   C2320433   0.058   1.917  41.995 -0.2320 -0.2260  0.6145
  179SLPC   H3R20434   0.146   1.983  42.013  0.4636 -1.3554  1.5434
  179SLPC   H3S20435  -0.010   1.932  42.082  0.7434 -2.0736  1.7550
  179SLPC   C2420436  -0.010   1.970  41.868  0.0443  0.0165 -0.3651
  179SLPC   H4R20437  -0.102   1.909  41.858  0.3440 -0.5645  0.3442
  179SLPC   H4S20438   0.063   1.978  41.784  2.6407  0.9546  1.8599
  179SLPC   C2520439  -0.068   2.113  41.885  0.1408 -1.1495 -0.1051
  179SLPC   H5R20440   0.017   2.185  41.884 -0.9589  0.2427  0.9479
  179SLPC   H5S20441  -0.118   2.125  41.983  1.3125 -0.9835  0.4923
  179SLPC   C2620442  -0.179   2.137  41.776 -0.6523  0.4079  0.1714
  179SLPC   H6R20443  -0.227   2.234  41.801 -2.2422 -0.6518  1.3945
  179SLPC   H6S20444  -0.254   2.055  41.782  0.7614 -1.1137 -1.6614
  179SLPC   C2720445  -0.121   2.138  41.629 -0.6054  0.0468 -0.6991
  179SLPC   H7R20446  -0.068   2.041  41.614 -0.0053  0.2736 -0.1366
  179SLPC   H7S20447  -0.045   2.218  41.619  2.1449 -2.2077  0.4534
  179SLPC   C2820448  -0.232   2.147  41.520  0.4503  0.0245  0.0982
  179SLPC   H8R20449  -0.279   2.047  41.528  0.1888  0.2117  1.0246
  179SLPC   H8S20450  -0.185   2.148  41.419 -0.1753  0.0085 -0.2043
  179SLPC   C2920451  -0.341   2.247  41.532  0.0461  0.6285 -0.1243
  179SLPC   H9R20452  -0.364   2.264  41.638 -1.0506 -0.5669 -0.1441
  179SLPC  C21020453  -0.422   2.297  41.435  0.2746 -0.3413  0.4215
  179SLPC  H10R20454  -0.505   2.360  41.469  0.6491 -0.3316  1.3424
  179SLPC  C21120455  -0.413   2.254  41.289  0.5327 -0.0219 -0.0776
  179SLPC  H11R20456  -0.406   2.143  41.283  3.0798 -0.0301  1.2824
  179SLPC  H11S20457  -0.313   2.292  41.258  1.0546  0.1978  1.7065
  179SLPC  C21220458  -0.524   2.315  41.208  0.6910 -0.2364  0.5201
  179SLPC  H12R20459  -0.628   2.307  41.243  0.9383 -0.5521  1.2058
  179SLPC  C21320460  -0.504   2.360  41.083 -0.3634 -0.1795  0.8587
  179SLPC  H13R20461  -0.590   2.408  41.034 -0.7519 -1.7524 -0.0831
  179SLPC  C21420462  -0.373   2.380  41.000 -0.1205  0.3662  0.0760
  179SLPC  H14R20463  -0.384   2.313  40.912 -1.9353 -0.2238  0.6979
  179SLPC  H14S20464  -0.279   2.350  41.052 -0.5243 -3.8167 -1.2101
  179SLPC  C21520465  -0.358   2.529  40.951  0.1870 -0.6174  0.3604
  179SLPC  H15R20466  -0.353   2.596  41.039 -0.0855 -0.2963  0.1314
  179SLPC  H15S20467  -0.455   2.559  40.906  1.4660  1.4818 -1.1856
  179SLPC  C21620468  -0.242   2.560  40.862 -0.5431  0.4322 -0.7489
  179SLPC  H16R20469  -0.148   2.548  40.921 -0.4507  1.0852 -0.7547
  179SLPC  H16S20470  -0.247   2.670  40.848 -1.1706  0.3241 -1.3829
  179SLPC  C21720471  -0.235   2.479  40.730  0.0026 -0.0589 -0.2093
  179SLPC  H17R20472  -0.216   2.372  40.751 -1.8850 -0.6526 -1.2961
  179SLPC  H17S20473  -0.138   2.511  40.686  0.0983  0.3686  0.3063
  179SLPC  C21820474  -0.347   2.517  40.642  0.7382 -0.4412 -0.6056
  179SLPC  H18R20475  -0.316   2.498  40.537  2.6725  1.5394 -0.4780
  179SLPC  H18S20476  -0.358   2.627  40.649 -0.0334 -0.4995 -0.7741
  179SLPC  H18T20477  -0.438   2.460  40.670  1.0335  0.1764  1.7704
  179SLPC   C3320478  -0.529   1.717  41.753 -0.3413 -0.2610  0.1511
  179SLPC   H3X20479  -0.600   1.751  41.831 -0.2227  0.3784 -0.0060
  179SLPC   H3Y20480  -0.550   1.615  41.716 -0.5118  0.3419 -1.5227
  179SLPC   C3420481  -0.534   1.816  41.631  0.1528  0.2819 -0.5390
  179SLPC   H4X20482  -0.451   1.798  41.559 -0.3680  0.7266 -1.2661
  179SLPC   H4Y20483  -0.512   1.918  41.669  0.1235 -0.1349  0.6250
  179SLPC   C3520484  -0.665   1.816  41.540  0.3976 -0.0782 -0.2459
  179SLPC   H5X20485  -0.746   1.806  41.615  2.6887  0.4975  2.4720
  179SLPC   H5Y20486  -0.668   1.727  41.474  0.7075  0.0794 -0.4739
  179SLPC   C3620487  -0.679   1.937  41.447  0.2548  0.3419  0.0920
  179SLPC   H6X20488  -0.580   1.948  41.397  0.5291 -1.3826  0.1809
  179SLPC   H6Y20489  -0.702   2.026  41.509  1.8391  0.3826  0.6703
  179SLPC   C3720490  -0.791   1.908  41.344 -0.3626 -0.0690  0.3086
  179SLPC   H7X20491  -0.896   1.914  41.381 -0.4820  1.2269 -0.1852
  179SLPC   H7Y20492  -0.785   1.801  41.313  1.2083 -0.3512  1.4775
  179SLPC   C3820493  -0.780   2.009  41.222  0.2668 -0.0795  0.4893
  179SLPC   H8X20494  -0.673   2.015  41.193  0.3173  2.9136  0.9747
  179SLPC   H8Y20495  -0.815   2.108  41.257  0.5816  0.2871 -0.1991
  179SLPC   C3920496  -0.870   1.947  41.115 -0.2248  0.2084  0.8658
  179SLPC   H9X20497  -0.966   1.938  41.169 -0.5261  1.5098  0.5923
  179SLPC   H9Y20498  -0.838   1.841  41.106 -0.5334  0.0351  1.7252
  179SLPC  C31020499  -0.890   2.016  40.986 -0.2057  0.0290 -0.0383
  179SLPC  H10X20500  -0.934   2.112  41.020  0.6806  0.9695 -1.4374
  179SLPC  H10Y20501  -0.953   1.955  40.917  2.0290 -1.8210 -0.5518
  179SLPC  C31120502  -0.758   2.055  40.920 -0.4316  0.0757  0.5586
  179SLPC  H11X20503  -0.684   1.972  40.916 -1.8255 -1.1899 -0.2873
  179SLPC  H11Y20504  -0.707   2.130  40.984  0.4779  1.7622 -1.9477
  179SLPC  C31220505  -0.772   2.100  40.774 -0.0830 -0.3126 -0.1449
  179SLPC  H12X20506  -0.872   2.149  40.768 -0.2464 -0.6946 -0.5641
  179SLPC  H12Y20507  -0.776   2.005  40.718  0.0184 -0.4390  0.0582
  179SLPC  C31320508  -0.659   2.184  40.721 -0.6820 -0.0055  1.3227
  179SLPC  H13X20509  -0.570   2.143  40.774 -0.5766 -0.6825  0.6419
  179SLPC  H13Y20510  -0.666   2.289  40.755 -0.5208 -0.2416  2.1047
  179SLPC  C31420511  -0.625   2.165  40.569  0.2942 -0.0342 -0.0078
  179SLPC  H14X20512  -0.563   2.250  40.532  0.1514 -0.7459 -1.9950
  179SLPC  H14Y20513  -0.715   2.173  40.504  1.7312  2.0566 -1.9337
  179SLPC  C31520514  -0.550   2.039  40.541  0.0271  0.1573 -0.1015
  179SLPC  H15X20515  -0.609   1.947  40.560  0.8870 -0.6128 -1.0418
  179SLPC  H15Y20516  -0.463   2.032  40.609 -0.9490  1.2436  1.3180
  179SLPC  C31620517  -0.487   2.047  40.392  0.2438 -0.1249 -0.6058
  179SLPC  H16X20518  -0.488   2.156  40.370 -3.5025 -0.0127 -0.6107
  179SLPC  H16Y20519  -0.551   1.986  40.325 -0.6832  0.1421  0.0194
  179SLPC  C31720520  -0.351   1.983  40.385 -0.1150  0.1374 -0.4411
  179SLPC  H17X20521  -0.348   1.883  40.434  1.8193  1.2458  1.9527
  179SLPC  H17Y20522  -0.286   2.042  40.454  1.6802 -1.0630 -1.0199
  179SLPC  C31820523  -0.297   1.979  40.247 -0.5945 -0.1041  0.7678
  179SLPC  H18X20524  -0.368   1.943  40.170 -1.1623 -0.6465  1.5383
  179SLPC  H18Y20525  -0.218   1.901  40.249  1.8571  2.0300 -2.0668
  179SLPC  H18Z20526  -0.262   2.082  40.222 -0.8554 -0.2103 -0.0851
  180SLPC     N20527   0.740   0.672  38.591 -0.3676 -0.0404  0.6071
  180SLPC   C1320528   0.623   0.633  38.679 -0.3170 -0.3072  0.3636
  180SLPC  H13A20529   0.558   0.720  38.679  0.7125  0.5304 -1.6055
  180SLPC  H13B20530   0.579   0.548  38.629  1.6958 -0.2976 -1.5987
  180SLPC  H13C20531   0.659   0.608  38.777  0.2964  0.6054  0.3891
  180SLPC   C1420532   0.822   0.781  38.654  0.4305  0.2604  0.1155
  180SLPC  H14A20533   0.891   0.826  38.584 -0.1732  0.2759 -0.4841
  180SLPC  H14B20534   0.755   0.857  38.692  2.2495  2.7630 -1.4625
  180SLPC  H14C20535   0.884   0.739  38.732  1.0826 -0.3048 -0.6858
  180SLPC   C1520536   0.692   0.708  38.450 -0.2373 -0.0195  0.5489
  180SLPC  H15A20537   0.653   0.621  38.400  1.4664 -1.2657  1.3031
  180SLPC  H15B20538   0.622   0.790  38.453 -2.0593 -1.5016  0.7365
  180SLPC  H15C20539   0.776   0.724  38.384  0.0125  0.5821  1.0025
  180SLPC   C1220540   0.830   0.550  38.579  0.8581  0.1134 -0.0065
  180SLPC  H12A20541   0.861   0.525  38.679  0.8951 -1.0623 -0.3064
  180SLPC  H12B20542   0.924   0.568  38.528 -0.2392  2.0082 -1.5493
  180SLPC   C1120543   0.775   0.415  38.532  0.0395 -0.3299 -0.4490
  180SLPC  H11A20544   0.856   0.344  38.504  1.6726  1.2279  0.1260
  180SLPC  H11B20545   0.730   0.442  38.434  2.2288 -0.7665 -1.6480
  180SLPC     P20546   0.751   0.286  38.752 -0.3862 -0.2163 -0.5038
  180SLPC   O1320547   0.810   0.160  38.701 -0.0248 -0.0978  0.3165
  180SLPC   O1420548   0.840   0.375  38.828  0.0011  0.3465  0.0317
  180SLPC   O1220549   0.684   0.358  38.622 -0.1173 -0.3443  0.0928
  180SLPC   O1120550   0.628   0.245  38.841  0.1506 -0.2075  0.0539
  180SLPC    C120551   0.496   0.252  38.806  1.0664 -0.1758 -0.2410
  180SLPC    HA20552   0.458   0.353  38.778 -1.8727 -1.2180 -0.3360
  180SLPC    HB20553   0.464   0.183  38.725 -2.1502 -0.6406  1.2777
  180SLPC    C220554   0.407   0.200  38.917  0.5283  0.2942 -0.5174
  180SLPC    HS20555   0.302   0.233  38.904  0.1076 -0.2679  1.1131
  180SLPC   O2120556   0.456   0.242  39.052 -0.1731 -0.3089  0.5740
  180SLPC   C2120557   0.433   0.371  39.078  0.0451  0.7845  0.0496
  180SLPC   O2220558   0.388   0.458  39.005 -0.4432  0.4383  0.3781
  180SLPC   C2220559   0.479   0.395  39.221 -0.1820  0.1845  0.6095
  180SLPC   H2R20560   0.403   0.359  39.293 -2.0724  0.3751 -1.1806
  180SLPC   H2S20561   0.583   0.356  39.221 -0.9718 -2.0483 -0.2924
  180SLPC    C320562   0.392   0.043  38.912  0.5604 -0.4953  0.4151
  180SLPC    HX20563   0.492   0.004  38.939  0.9879  0.3219  0.0493
  180SLPC    HY20564   0.359   0.007  38.812  1.4045 -2.1760  0.7130
  180SLPC   O3120565   0.304  -0.000  39.017 -0.2216 -0.5465  0.0859
  180SLPC   C3120566   0.311  -0.131  39.045  0.4523 -0.6293 -0.6388
  180SLPC   O3220567   0.386  -0.213  38.998 -0.0448 -0.1248  0.3700
  180SLPC   C3220568   0.206  -0.154  39.155  0.6094 -0.6293 -0.1966
  180SLPC   H2X20569   0.143  -0.063  39.167  2.1584  0.3910  0.5111
  180SLPC   H2Y20570   0.259  -0.168  39.251  1.2536  1.3576 -0.2263
  180SLPC   C2320571   0.499   0.540  39.249 -0.2838 -0.8656  0.0431
  180SLPC   H3R20572   0.398   0.585  39.259 -0.3293 -1.2796  1.9933
  180SLPC   H3S20573   0.555   0.591  39.168 -0.6364 -2.5329 -1.3003
  180SLPC   C2420574   0.573   0.567  39.384 -0.6864  0.9076  1.1918
  180SLPC   H4R20575   0.669   0.511  39.379 -1.2216  0.0944 -1.7497
  180SLPC   H4S20576   0.497   0.528  39.455 -1.9569  1.0346 -0.0541
  180SLPC   C2520577   0.614   0.715  39.399 -0.2829  0.1303  0.1406
  180SLPC   H5R20578   0.529   0.775  39.361 -0.5556 -1.2518 -1.5444
  180SLPC   H5S20579   0.700   0.722  39.329 -0.1700  0.2809  0.2933
  180SLPC   C2620580   0.651   0.758  39.542 -0.1378 -0.0838 -0.2747
  180SLPC   H6R20581   0.737   0.693  39.570 -0.9625 -2.5744 -2.9034
  180SLPC   H6S20582   0.558   0.736  39.597 -1.3089  0.6089 -1.8841
  180SLPC   C2720583   0.691   0.907  39.565 -0.3590  0.2274 -0.3427
  180SLPC   H7R20584   0.610   0.967  39.518 -1.0742  0.5538  1.2404
  180SLPC   H7S20585   0.779   0.926  39.500  0.0926 -0.7885 -0.0487
  180SLPC   C2820586   0.719   0.940  39.709 -0.4627 -0.3577  0.2236
  180SLPC   H8R20587   0.808   0.884  39.744  0.5134 -0.0448 -1.6212
  180SLPC   H8S20588   0.639   0.898  39.772 -2.2726  1.5671 -0.6589
  180SLPC   C2920589   0.741   1.089  39.731  0.5602 -0.8924 -0.3815
  180SLPC   H9R20590   0.800   1.142  39.655  1.2227 -0.3872  0.4706
  180SLPC  C21020591   0.691   1.155  39.837  0.0001  0.3953  0.7492
  180SLPC  H10R20592   0.698   1.264  39.844  1.6949  0.3371  0.2491
  180SLPC  C21120593   0.591   1.103  39.939  0.6220  0.4425 -0.2814
  180SLPC  H11R20594   0.629   1.107  40.044  1.8778  1.0752 -0.7466
  180SLPC  H11S20595   0.561   0.999  39.917 -0.8792  0.9170 -0.5654
  180SLPC  C21220596   0.455   1.169  39.924 -0.0321  0.1266  0.2286
  180SLPC  H12R20597   0.459   1.257  39.858  0.4408  1.4833  1.9905
  180SLPC  C21320598   0.336   1.141  39.990  0.1705 -0.6125  0.0239
  180SLPC  H13R20599   0.249   1.203  39.965  0.7845  0.8832  1.4234
  180SLPC  C21420600   0.318   1.046  40.098 -0.2392  0.1762 -0.4113
  180SLPC  H14R20601   0.418   0.998  40.110 -0.2512  0.4178  0.7982
  180SLPC  H14S20602   0.238   0.971  40.079 -0.8466  0.3346  1.3163
  180SLPC  C21520603   0.274   1.125  40.222  0.0840  0.2717 -0.2638
  180SLPC  H15R20604   0.187   1.186  40.192 -0.6968  0.0141  1.3547
  180SLPC  H15S20605   0.354   1.191  40.262 -0.3932  0.5517  0.2424
  180SLPC  C21620606   0.233   1.036  40.339 -1.0823  0.6220 -0.6823
  180SLPC  H16R20607   0.320   0.987  40.388 -2.8712 -0.9054  1.1312
  180SLPC  H16S20608   0.167   0.954  40.304 -0.8576 -0.0638  0.4364
  180SLPC  C21720609   0.159   1.117  40.448 -0.1648 -0.0007  0.2255
  180SLPC  H17R20610   0.116   1.047  40.522  0.6975 -0.2117  0.5438
  180SLPC  H17S20611   0.072   1.155  40.392 -0.1789 -2.6917 -1.7781
  180SLPC  C21820612   0.243   1.223  40.524  0.4909 -0.5322 -0.5795
  180SLPC  H18R20613   0.284   1.311  40.469 -0.9512  0.1801 -0.5669
  180SLPC  H18S20614   0.329   1.175  40.576 -0.1216  0.2575  1.2319
  180SLPC  H18T20615   0.173   1.278  40.589  0.2972  0.2172 -1.3930
  180SLPC   C3320616   0.119  -0.276  39.107  0.1244 -0.0268  0.2656
  180SLPC   H3X20617   0.193  -0.351  39.072 -0.4734 -0.5864  0.1810
  180SLPC   H3Y20618   0.053  -0.259  39.019 -0.8380 -3.0168  0.3023
  180SLPC   C3420619   0.042  -0.350  39.216  0.6891 -0.3421 -0.0585
  180SLPC   H4X20620   0.115  -0.375  39.297  1.6534 -0.1650 -0.8479
  180SLPC   H4Y20621   0.006  -0.444  39.169 -2.4715  1.3321 -1.2867
  180SLPC   C3520622  -0.077  -0.267  39.269  0.0752  0.2026 -0.9842
  180SLPC   H5X20623  -0.143  -0.241  39.183  1.6195  2.8630 -1.4662
  180SLPC   H5Y20624  -0.045  -0.171  39.314 -3.0263  1.0763 -0.4000
  180SLPC   C3620625  -0.174  -0.332  39.370  0.2554  0.7694  0.5730
  180SLPC   H6X20626  -0.128  -0.356  39.469  0.0019 -0.1185  0.4823
  180SLPC   H6Y20627  -0.203  -0.427  39.321  2.0153  1.5316 -2.1548
  180SLPC   C3720628  -0.306  -0.251  39.384 -0.5563  0.5109  0.2569
  180SLPC   H7X20629  -0.378  -0.319  39.435 -0.7490 -0.1351 -0.8518
  180SLPC   H7Y20630  -0.343  -0.248  39.279  0.1946 -1.7961 -0.1238
  180SLPC   C3820631  -0.288  -0.116  39.444 -0.0892  0.2634 -0.2677
  180SLPC   H8X20632  -0.388  -0.069  39.456  0.6192  1.5732  0.9645
  180SLPC   H8Y20633  -0.220  -0.057  39.378 -0.2607  0.7326 -0.0327
  180SLPC   C3920634  -0.234  -0.119  39.588 -0.5426 -0.1336  0.1526
  180SLPC   H9X20635  -0.205  -0.017  39.623 -0.4235  0.0499 -0.4711
  180SLPC   H9Y20636  -0.130  -0.160  39.588  0.9410  3.2831  0.0773
  180SLPC  C31020637  -0.321  -0.185  39.703 -0.2831 -0.5684 -0.1052
  180SLPC  H10X20638  -0.244  -0.210  39.779 -0.8152 -1.5443  0.1369
  180SLPC  H10Y20639  -0.366  -0.273  39.652 -0.0850 -0.1029 -1.0945
  180SLPC  C31120640  -0.427  -0.098  39.769  0.5130  0.6177  0.2204
  180SLPC  H11X20641  -0.506  -0.082  39.693  0.1729  1.9979  0.8347
  180SLPC  H11Y20642  -0.385   0.002  39.793 -0.8080  0.9332  1.3656
  180SLPC  C31220643  -0.490  -0.159  39.901  0.1590  0.1345  0.3797
  180SLPC  H12X20644  -0.414  -0.193  39.974 -1.9907 -2.9703  1.3815
  180SLPC  H12Y20645  -0.534  -0.254  39.862 -2.7047  1.4902  0.0710
  180SLPC  C31320646  -0.612  -0.074  39.954 -0.3925 -0.4888  0.3534
  180SLPC  H13X20647  -0.690  -0.063  39.876 -0.5764  1.9118  0.7861
  180SLPC  H13Y20648  -0.581   0.026  39.991  1.9308 -0.4592 -1.4579
  180SLPC  C31420649  -0.677  -0.147  40.071 -1.0297 -0.2452  0.1687
  180SLPC  H14X20650  -0.739  -0.074  40.128  0.6050  1.0829  0.3283
  180SLPC  H14Y20651  -0.594  -0.192  40.130 -1.2290 -0.7594  0.0549
  180SLPC  C31520652  -0.784  -0.246  40.022  0.3419 -0.6093 -0.2231
  180SLPC  H15X20653  -0.726  -0.332  39.983 -1.3659 -2.1629  0.5250
  180SLPC  H15Y20654  -0.843  -0.190  39.946 -0.0221 -0.6175  0.0477
  180SLPC  C31620655  -0.871  -0.291  40.142  0.1606 -0.4090 -0.1272
  180SLPC  H16X20656  -0.935  -0.374  40.104  0.7817 -0.6159 -0.7530
  180SLPC  H16Y20657  -0.937  -0.210  40.179  0.8083 -0.3828  1.0554
  180SLPC  C31720658  -0.794  -0.350  40.254  0.0406 -0.3502 -0.3144
  180SLPC  H17X20659  -0.869  -0.354  40.336  0.6808  0.2630  0.3104
  180SLPC  H17Y20660  -0.727  -0.275  40.301 -0.1790 -0.0802 -0.4303
  180SLPC  C31820661  -0.730  -0.486  40.244 -0.1803 -0.5558  0.0969
  180SLPC  H18X20662  -0.797  -0.575  40.240  0.5447 -1.1745  1.1247
  180SLPC  H18Y20663  -0.661  -0.511  40.328 -1.0639 -0.3309  0.8973
  180SLPC  H18Z20664  -0.671  -0.497  40.150  0.2222  0.1322  0.2610
  181SLPC     N20665   1.199   0.467  33.702 -0.3425 -0.0138 -1.1061
  181SLPC   C1320666   1.235   0.544  33.579  0.1644  0.6866 -0.4157
  181SLPC  H13A20667   1.143   0.586  33.542  0.6842  1.7633 -0.5059
  181SLPC  H13B20668   1.291   0.630  33.611 -0.9554  0.4992  2.3852
  181SLPC  H13C20669   1.298   0.480  33.519 -1.3593 -1.5909  0.2850
  181SLPC   C1420670   1.120   0.559  33.794  0.6027  0.3707 -0.0052
  181SLPC  H14A20671   1.104   0.493  33.878 -3.6749 -2.2062 -2.4864
  181SLPC  H14B20672   1.172   0.652  33.811  0.8126  0.1726  0.4536
  181SLPC  H14C20673   1.022   0.576  33.753  0.4900 -0.7545 -0.2547
  181SLPC   C1520674   1.322   0.416  33.769 -0.8863 -0.5555 -0.2599
  181SLPC  H15A20675   1.371   0.338  33.713 -2.3799  0.2612 -2.8833
  181SLPC  H15B20676   1.387   0.501  33.790 -0.8062  0.0309 -2.6170
  181SLPC  H15C20677   1.305   0.366  33.863  1.1154 -0.0834  0.4140
  181SLPC   C1220678   1.114   0.342  33.662  0.4677  0.0676  1.4109
  181SLPC  H12A20679   1.103   0.284  33.752  1.1625 -1.0002  0.8298
  181SLPC  H12B20680   1.172   0.283  33.593  0.0911  1.5009 -0.2109
  181SLPC   C1120681   0.971   0.377  33.595  0.4978  0.2938  0.3539
  181SLPC  H11A20682   0.927   0.280  33.563  2.8151 -0.4877 -0.7010
  181SLPC  H11B20683   0.994   0.437  33.504  0.7232  0.5678  0.5902
  181SLPC     P20684   0.761   0.402  33.742  0.1543 -0.2672  0.0309
  181SLPC   O1320685   0.813   0.277  33.802  0.5324 -1.1058 -0.6924
  181SLPC   O1420686   0.709   0.509  33.837 -0.4627  0.1540 -0.4654
  181SLPC   O1220687   0.881   0.466  33.667 -0.7411  0.3107  0.5112
  181SLPC   O1120688   0.646   0.373  33.639 -0.4721  0.2442  0.1438
  181SLPC    C120689   0.610   0.459  33.529 -0.0485  0.4449  0.4432
  181SLPC    HA20690   0.692   0.524  33.492 -1.2827  1.1341 -1.2719
  181SLPC    HB20691   0.563   0.397  33.449 -3.8738 -1.3159  3.6717
  181SLPC    C220692   0.505   0.545  33.583  0.1835 -0.2341 -0.1800
  181SLPC    HS20693   0.549   0.597  33.671  0.0450  0.1067 -0.3082
  181SLPC   O2120694   0.393   0.468  33.637  0.0640 -0.1218  0.0533
  181SLPC   C2120695   0.331   0.520  33.738  0.2267 -0.3197  0.7770
  181SLPC   O2220696   0.347   0.632  33.783 -0.1255 -0.2247  0.4963
  181SLPC   C2220697   0.231   0.418  33.798  0.4811  0.7076 -0.1437
  181SLPC   H2R20698   0.279   0.318  33.794  0.4367  0.6826 -0.0612
  181SLPC   H2S20699   0.235   0.450  33.905  0.1587 -3.0931  1.1515
  181SLPC    C320700   0.454   0.654  33.490  0.1934  1.0544 -0.4838
  181SLPC    HX20701   0.375   0.722  33.528 -0.5335  0.5286 -1.0240
  181SLPC    HY20702   0.394   0.607  33.409 -1.9224 -0.2811  1.7473
  181SLPC   O3120703   0.565   0.730  33.443  0.2435  0.5464 -0.8176
  181SLPC   C3120704   0.609   0.820  33.533 -0.4304 -0.3793 -0.4869
  181SLPC   O3220705   0.548   0.863  33.630 -0.3091  0.3556  0.2959
  181SLPC   C3220706   0.757   0.858  33.499 -0.1678  0.7498  0.2946
  181SLPC   H2X20707   0.810   0.766  33.532 -1.1933 -0.8554 -2.2381
  181SLPC   H2Y20708   0.790   0.945  33.560  1.6917  0.0840  0.3176
  181SLPC   C2320709   0.093   0.409  33.723 -0.5028  0.1265 -0.2223
  181SLPC   H3R20710   0.097   0.347  33.630  1.6331 -0.9521  0.5366
  181SLPC   H3S20711   0.060   0.513  33.701  2.0218  0.7912 -1.1552
  181SLPC   C2420712  -0.007   0.360  33.818  0.3698  0.0792 -0.4630
  181SLPC   H4R20713  -0.016   0.420  33.911  1.4762 -0.0417 -0.2668
  181SLPC   H4S20714   0.027   0.258  33.847 -2.0402 -0.4594  0.7793
  181SLPC   C2520715  -0.149   0.351  33.750  0.4440  0.1948 -0.0710
  181SLPC   H5R20716  -0.207   0.325  33.841  2.8011  1.2778  1.8590
  181SLPC   H5S20717  -0.142   0.266  33.679  0.4909 -0.4741  0.7142
  181SLPC   C2620718  -0.204   0.478  33.680  0.0187  0.2874  0.6724
  181SLPC   H6R20719  -0.127   0.492  33.601  0.1870 -0.4339  0.6961
  181SLPC   H6S20720  -0.183   0.569  33.741  1.8218 -0.7724  1.7278
  181SLPC   C2720721  -0.352   0.458  33.639 -0.5254  0.3314  0.0191
  181SLPC   H7R20722  -0.411   0.438  33.731 -2.7698  1.0314 -1.2013
  181SLPC   H7S20723  -0.353   0.370  33.571  1.8920 -1.6756  2.3280
  181SLPC   C2820724  -0.404   0.582  33.570 -0.1816  0.5749  0.1131
  181SLPC   H8R20725  -0.390   0.673  33.632  0.6693 -1.6751  3.5072
  181SLPC   H8S20726  -0.515   0.572  33.570 -0.2963  1.5201  1.4923
  181SLPC   C2920727  -0.351   0.597  33.429  1.0765  0.9307 -0.3461
  181SLPC   H9R20728  -0.265   0.533  33.406 -0.0509 -0.8977  0.3271
  181SLPC  C21020729  -0.406   0.675  33.333  0.2816 -0.0182 -0.8183
  181SLPC  H10R20730  -0.341   0.699  33.248  1.1476 -1.4943 -0.6025
  181SLPC  C21120731  -0.530   0.766  33.343 -0.3426  0.1141  0.0647
  181SLPC  H11R20732  -0.531   0.826  33.250 -3.5436  1.4606  0.8425
  181SLPC  H11S20733  -0.515   0.836  33.428 -0.1275  1.2665 -0.9083
  181SLPC  C21220734  -0.672   0.719  33.342  0.4205 -0.1421 -0.7454
  181SLPC  H12R20735  -0.700   0.613  33.330  1.1958 -0.4387 -0.0597
  181SLPC  C21320736  -0.775   0.793  33.381 -0.4329  0.5086 -0.6593
  181SLPC  H13R20737  -0.873   0.750  33.358 -0.1805 -0.5273  0.0888
  181SLPC  C21420738  -0.765   0.941  33.404 -0.4799  0.6404 -0.1309
  181SLPC  H14R20739  -0.841   0.997  33.347 -0.4607  1.1180  0.2957
  181SLPC  H14S20740  -0.672   0.986  33.363 -1.5666  2.4007 -0.7847
  181SLPC  C21520741  -0.791   0.972  33.556 -0.6103  0.8511 -0.1037
  181SLPC  H15R20742  -0.703   0.945  33.618 -0.7179  0.7570  0.0096
  181SLPC  H15S20743  -0.879   0.911  33.585 -0.0316 -0.5878 -1.2120
  181SLPC  C21620744  -0.828   1.113  33.588  1.2082 -0.0998 -0.0761
  181SLPC  H16R20745  -0.904   1.155  33.519  0.2933  0.4922  1.2332
  181SLPC  H16S20746  -0.731   1.168  33.586  1.4285 -0.1877  2.8369
  181SLPC  C21720747  -0.890   1.110  33.723  0.3534  0.2841 -0.8370
  181SLPC  H17R20748  -0.821   1.068  33.798 -1.0041  2.7664  2.0146
  181SLPC  H17S20749  -0.988   1.059  33.730  1.0597 -0.9953  0.1438
  181SLPC  C21820750  -0.915   1.252  33.775  0.4258  0.7916  0.6516
  181SLPC  H18R20751  -1.009   1.288  33.729  0.5775  0.9484  0.4627
  181SLPC  H18S20752  -0.833   1.318  33.739 -1.3887  1.0489 -3.5592
  181SLPC  H18T20753  -0.917   1.249  33.886 -2.2639  0.4309  0.6408
  181SLPC   C3320754   0.784   0.886  33.349  0.1597 -0.4411 -0.4901
  181SLPC   H3X20755   0.728   0.973  33.309  1.5022 -0.1222 -1.7941
  181SLPC   H3Y20756   0.764   0.801  33.281  2.9828 -0.4712 -1.4151
  181SLPC   C3420757   0.932   0.913  33.323 -1.3276  0.1649  0.9980
  181SLPC   H4X20758   0.989   0.824  33.356 -0.4061 -0.2371 -1.4158
  181SLPC   H4Y20759   0.971   0.996  33.386  0.3817  0.5711 -0.4823
  181SLPC   C3520760   0.964   0.937  33.173  1.0369  0.3994  0.1930
  181SLPC   H5X20761   0.953   0.843  33.114  0.9269  0.5137  0.0326
  181SLPC   H5Y20762   1.072   0.960  33.176  1.0475  0.3776 -0.0412
  181SLPC   C3620763   0.896   1.062  33.110  0.0933  0.3276  0.2208
  181SLPC   H6X20764   0.787   1.040  33.117  0.4994 -1.7594  0.5649
  181SLPC   H6Y20765   0.914   1.064  33.000  1.4211  0.7990  0.4379
  181SLPC   C3720766   0.946   1.195  33.155 -0.0751 -0.0546 -1.0199
  181SLPC   H7X20767   0.936   1.206  33.265 -0.7126  2.9664 -1.2920
  181SLPC   H7Y20768   0.878   1.268  33.106 -0.7731 -1.0523 -1.5936
  181SLPC   C3820769   1.087   1.225  33.118 -0.7147 -0.4070 -0.3872
  181SLPC   H8X20770   1.091   1.217  33.007  3.0095  0.4098 -0.4331
  181SLPC   H8Y20771   1.162   1.153  33.158  1.3018  1.1664 -1.1581
  181SLPC   C3920772   1.120   1.369  33.171 -0.2054 -0.4357  0.5263
  181SLPC   H9X20773   1.076   1.360  33.272 -0.2505 -2.5067  0.3646
  181SLPC   H9Y20774   1.045   1.436  33.123 -0.6967 -0.7765  0.8071
  181SLPC  C31020775   1.266   1.411  33.156  1.3158 -0.1631  0.3687
  181SLPC  H10X20776   1.328   1.345  33.221  2.2380 -0.6246 -0.9308
  181SLPC  H10Y20777   1.274   1.514  33.196 -0.1207  0.2050 -0.2305
  181SLPC  C31120778   1.320   1.411  33.014 -0.1052 -0.0695 -0.0979
  181SLPC  H11X20779   1.271   1.492  32.956  1.1258  1.5577  1.0375
  181SLPC  H11Y20780   1.301   1.322  32.951 -3.3365  1.0130 -0.8528
  181SLPC  C31220781   1.477   1.437  33.018  0.3337  0.0391  0.3608
  181SLPC  H12X20782   1.536   1.352  33.059  1.5205  0.8869  0.4482
  181SLPC  H12Y20783   1.494   1.518  33.091 -1.0325  0.4374  0.2659
  181SLPC  C31320784   1.532   1.472  32.873 -0.5566  0.0225  0.3407
  181SLPC  H13X20785   1.637   1.501  32.896 -0.8282  1.6194 -0.2858
  181SLPC  H13Y20786   1.471   1.553  32.828 -0.2719 -0.4921 -0.9937
  181SLPC  C31420787   1.549   1.345  32.783 -0.1766  0.3440 -0.0702
  181SLPC  H14X20788   1.450   1.310  32.746 -0.5086  0.2367  0.9058
  181SLPC  H14Y20789   1.604   1.272  32.847 -0.5218 -0.5557 -0.7785
  181SLPC  C31520790   1.638   1.372  32.662  0.1859 -0.2618  0.2891
  181SLPC  H15X20791   1.738   1.405  32.699  0.2399 -1.1302  0.9401
  181SLPC  H15Y20792   1.589   1.439  32.588 -1.1697 -1.9704 -0.4407
  181SLPC  C31620793   1.660   1.239  32.585 -0.3172  0.3464 -0.8955
  181SLPC  H16X20794   1.563   1.185  32.577 -0.4543  0.7017 -1.7746
  181SLPC  H16Y20795   1.732   1.175  32.639 -0.6766 -0.1599 -1.0085
  181SLPC  C31720796   1.706   1.268  32.438 -0.3715  0.0849 -0.6277
  181SLPC  H17X20797   1.790   1.340  32.446 -0.6769  0.3432  0.3999
  181SLPC  H17Y20798   1.619   1.315  32.386 -0.3694 -0.5315 -1.1980
  181SLPC  C31820799   1.760   1.141  32.372  0.2317 -0.1709 -0.9915
  181SLPC  H18X20800   1.671   1.098  32.322 -0.8217  2.2227 -1.2954
  181SLPC  H18Y20801   1.792   1.062  32.445 -1.9881  0.8902  1.2799
  181SLPC  H18Z20802   1.847   1.154  32.304  0.6163 -0.2641 -0.5250
  182SLPC     N20803   1.141   1.266  36.273  0.5825  0.1010  0.1490
  182SLPC   C1320804   1.090   1.391  36.196 -0.8795  0.2532  0.0195
  182SLPC  H13A20805   1.103   1.361  36.093  1.4281 -0.5300  0.4578
  182SLPC  H13B20806   0.994   1.424  36.231 -0.7140  0.0359  0.7034
  182SLPC  H13C20807   1.161   1.471  36.214 -0.4922  0.3232 -1.6862
  182SLPC   C1420808   1.102   1.282  36.409  0.2399 -0.1001  0.3481
  182SLPC  H14A20809   0.996   1.287  36.430  0.2367  2.5530 -0.0408
  182SLPC  H14B20810   1.136   1.194  36.462  1.8298 -0.1783 -0.7228
  182SLPC  H14C20811   1.142   1.372  36.452 -0.6490 -0.1223  1.2627
  182SLPC   C1520812   1.285   1.267  36.261 -0.2940  0.7860 -0.3023
  182SLPC  H15A20813   1.325   1.361  36.296 -0.2314  0.9843 -0.9028
  182SLPC  H15B20814   1.331   1.181  36.308 -1.5486  0.3400  0.1476
  182SLPC  H15C20815   1.315   1.254  36.158 -1.8720 -1.6161 -0.5363
  182SLPC   C1220816   1.090   1.147  36.190 -0.5263 -0.5673 -0.1038
  182SLPC  H12A20817   1.125   1.059  36.243  1.9353 -0.0044 -0.6994
  182SLPC  H12B20818   1.128   1.147  36.089 -0.2349  1.5055 -0.0338
  182SLPC   C1120819   0.929   1.127  36.184  0.5136 -0.4339 -0.1365
  182SLPC  H11A20820   0.907   1.067  36.092  1.5343 -1.5208  0.3060
  182SLPC  H11B20821   0.880   1.226  36.171  1.0574  0.1161  1.7245
  182SLPC     P20822   0.762   1.112  36.398 -0.2450 -0.0505  0.4201
  182SLPC   O1320823   0.649   1.037  36.344 -0.0431 -0.0591 -0.2181
  182SLPC   O1420824   0.799   1.090  36.544  0.1705  0.0635  1.0387
  182SLPC   O1220825   0.888   1.065  36.313 -0.0499 -0.4163  0.4796
  182SLPC   O1120826   0.753   1.263  36.366  0.7371 -0.5045 -0.4805
  182SLPC    C120827   0.665   1.324  36.269 -0.0665 -0.1175 -0.5045
  182SLPC    HA20828   0.724   1.368  36.186  1.8281  1.7005  1.6496
  182SLPC    HB20829   0.596   1.246  36.230 -0.9051  0.1467  0.4078
  182SLPC    C220830   0.582   1.439  36.337 -0.3434  0.7896 -0.3873
  182SLPC    HS20831   0.628   1.465  36.435 -2.0684  2.6153 -0.0031
  182SLPC   O2120832   0.442   1.403  36.359  0.0309 -0.2916 -0.7601
  182SLPC   C2120833   0.427   1.344  36.474 -0.1452 -0.1459 -0.3709
  182SLPC   O2220834   0.495   1.349  36.574  0.0729 -0.3133 -0.6784
  182SLPC   C2220835   0.314   1.238  36.460  0.1089 -0.2186  0.2693
  182SLPC   H2R20836   0.232   1.287  36.403  0.2558 -1.4364 -1.0400
  182SLPC   H2S20837   0.351   1.161  36.389  0.5009  0.6541 -0.5028
  182SLPC    C320838   0.579   1.562  36.244  0.0545 -0.2418  0.2680
  182SLPC    HX20839   0.682   1.586  36.210  0.6936 -2.0159  0.8096
  182SLPC    HY20840   0.550   1.655  36.297 -0.5190  0.8891 -1.9072
  182SLPC   O3120841   0.518   1.531  36.118  0.3251 -0.5746  0.2069
  182SLPC   C3120842   0.482   1.640  36.048 -0.2223 -0.5193 -0.2838
  182SLPC   O3220843   0.499   1.757  36.069 -0.0974  0.0823  0.4645
  182SLPC   C3220844   0.402   1.592  35.930 -0.9084 -0.6147  0.1407
  182SLPC   H2X20845   0.419   1.486  35.900  0.5252 -0.5051  0.4757
  182SLPC   H2Y20846   0.457   1.650  35.853  0.0928  1.3091  2.1817
  182SLPC   C2320847   0.280   1.176  36.603  0.4211 -0.0986 -0.2560
  182SLPC   H3R20848   0.245   1.256  36.672  0.1162 -1.7852  1.6319
  182SLPC   H3S20849   0.378   1.140  36.637  0.3300  0.4307  0.5892
  182SLPC   C2420850   0.188   1.057  36.617 -0.7169  0.6383  0.6889
  182SLPC   H4R20851   0.164   1.021  36.719 -0.2758  3.1229  1.7309
  182SLPC   H4S20852   0.252   0.985  36.561 -1.0195  1.6111 -0.9889
  182SLPC   C2520853   0.063   1.057  36.527  0.3611 -0.1372  0.7298
  182SLPC   H5R20854   0.020   0.956  36.511 -2.9733  0.8322  2.5077
  182SLPC   H5S20855   0.093   1.098  36.428  1.7193 -0.7068  0.8846
  182SLPC   C2620856  -0.051   1.154  36.585  0.5436 -0.3587  0.1719
  182SLPC   H6R20857  -0.014   1.257  36.571  1.4064 -0.7066 -0.2198
  182SLPC   H6S20858  -0.066   1.129  36.692 -0.8286 -0.4621 -0.0288
  182SLPC   C2720859  -0.187   1.143  36.504  0.0580  0.3383  0.0626
  182SLPC   H7R20860  -0.244   1.048  36.508 -3.7685  2.3652 -1.5655
  182SLPC   H7S20861  -0.166   1.150  36.395 -2.5208  1.8486 -0.4119
  182SLPC   C2820862  -0.286   1.252  36.551 -0.0424 -0.1110  0.3419
  182SLPC   H8R20863  -0.225   1.345  36.560 -2.0119  1.1135  1.7730
  182SLPC   H8S20864  -0.313   1.226  36.655 -1.1804  0.2006  0.1392
  182SLPC   C2920865  -0.398   1.273  36.453 -0.1973  0.1412  0.4719
  182SLPC   H9R20866  -0.369   1.322  36.359 -1.4745  2.0471  1.0160
  182SLPC  C21020867  -0.526   1.231  36.464  0.1784 -0.5275 -0.0930
  182SLPC  H10R20868  -0.591   1.240  36.375 -0.6632 -2.0062  0.3396
  182SLPC  C21120869  -0.597   1.179  36.589  0.4111  0.9044 -0.3636
  182SLPC  H11R20870  -0.620   1.260  36.662  0.0889  0.7636 -0.3058
  182SLPC  H11S20871  -0.533   1.113  36.652 -1.3029  1.8766  2.6536
  182SLPC  C21220872  -0.716   1.097  36.551 -0.4977  0.0818 -0.3610
  182SLPC  H12R20873  -0.685   0.992  36.542 -0.0103  0.2530 -0.7295
  182SLPC  C21320874  -0.842   1.138  36.533 -0.2689  0.5838  0.7936
  182SLPC  H13R20875  -0.914   1.064  36.494  1.7227 -1.1067  0.0834
  182SLPC  C21420876  -0.888   1.279  36.550 -0.4359 -0.0537 -0.1523
  182SLPC  H14R20877  -0.815   1.354  36.515 -0.9556 -0.0565 -1.2655
  182SLPC  H14S20878  -0.904   1.302  36.658  3.2424 -1.9942  0.9657
  182SLPC  C21520879  -1.028   1.305  36.477 -0.7800  0.4126 -0.0782
  182SLPC  H15R20880  -1.009   1.307  36.367 -2.3484 -2.0621 -0.4872
  182SLPC  H15S20881  -1.051   1.410  36.503  1.0628  1.2826 -1.7081
  182SLPC  C21620882  -1.142   1.201  36.508 -0.6549 -0.3544  0.1825
  182SLPC  H16R20883  -1.162   1.219  36.616 -3.2997 -0.9806 -0.1436
  182SLPC  H16S20884  -1.108   1.096  36.494  1.6650  0.0433  2.1939
  182SLPC  C21720885  -1.263   1.236  36.423  0.7343  0.5637 -0.0154
  182SLPC  H17R20886  -1.214   1.277  36.332  0.6280  2.4766  0.7377
  182SLPC  H17S20887  -1.310   1.330  36.459 -0.2498  1.3272 -3.0037
  182SLPC  C21820888  -1.366   1.125  36.401  0.3882  0.1143 -0.1366
  182SLPC  H18R20889  -1.344   1.046  36.326  2.9688  1.1969 -0.6274
  182SLPC  H18S20890  -1.463   1.167  36.367  1.4093  3.1643  0.4744
  182SLPC  H18T20891  -1.385   1.069  36.495  0.0088 -0.2514 -0.4205
  182SLPC   C3320892   0.256   1.637  35.931  0.6878 -0.4895  0.1644
  182SLPC   H3X20893   0.243   1.744  35.958  1.5102  0.3000 -2.3669
  182SLPC   H3Y20894   0.196   1.570  35.996  1.8392 -1.7213  0.0142
  182SLPC   C3420895   0.196   1.612  35.788 -0.0154 -0.8844  0.3439
  182SLPC   H4X20896   0.266   1.667  35.721 -1.5608 -2.2782 -2.5793
  182SLPC   H4Y20897   0.095   1.656  35.776  0.4096  0.0187 -0.0284
  182SLPC   C3520898   0.170   1.463  35.746 -0.3655  0.1847  1.3017
  182SLPC   H5X20899   0.081   1.423  35.800  0.5767 -0.1355  2.6637
  182SLPC   H5Y20900   0.259   1.402  35.771 -0.7433 -0.8253  0.3165
  182SLPC   C3620901   0.136   1.439  35.598  0.0853  0.3880  0.1933
  182SLPC   H6X20902   0.224   1.467  35.537 -0.1199  0.6361  0.0055
  182SLPC   H6Y20903   0.049   1.498  35.562 -0.8163 -1.8724 -1.5404
  182SLPC   C3720904   0.121   1.284  35.562  0.0281 -1.1332 -0.6092
  182SLPC   H7X20905   0.037   1.242  35.621  0.3074 -0.3455  0.3815
  182SLPC   H7Y20906   0.218   1.238  35.592  1.6371  2.1597 -0.3407
  182SLPC   C3820907   0.108   1.252  35.415 -0.7654 -0.4784  0.0354
  182SLPC   H8X20908   0.200   1.274  35.358 -0.3836 -1.6620  0.1626
  182SLPC   H8Y20909   0.016   1.302  35.379  0.0448  0.5037 -0.7035
  182SLPC   C3920910   0.099   1.103  35.367  0.9655 -0.0399  1.0755
  182SLPC   H9X20911   0.013   1.055  35.419 -0.7468  0.5857 -1.0329
  182SLPC   H9Y20912   0.180   1.041  35.410  0.2299 -1.7916  0.0144
  182SLPC  C31020913   0.083   1.084  35.215 -0.1917  0.4326 -0.7320
  182SLPC  H10X20914   0.170   1.130  35.163  1.3531 -0.3656  1.0177
  182SLPC  H10Y20915  -0.008   1.132  35.172 -2.5644 -2.7215  0.4161
  182SLPC  C31120916   0.072   0.937  35.160 -0.1416  0.6380  0.4863
  182SLPC  H11X20917  -0.018   0.897  35.210 -0.8454  1.6067  0.0360
  182SLPC  H11Y20918   0.170   0.885  35.172  0.4115  2.1206  3.1375
  182SLPC  C31220919   0.029   0.941  35.013 -0.0140 -0.0629 -1.1352
  182SLPC  H12X20920   0.117   0.918  34.949 -0.9040  0.4436 -2.5939
  182SLPC  H12Y20921  -0.010   1.044  34.994 -0.5932 -0.3296 -1.3958
  182SLPC  C31320922  -0.076   0.831  34.980 -0.1250  0.0786 -0.2913
  182SLPC  H13X20923  -0.118   0.825  34.877 -2.9925 -0.0546  0.8097
  182SLPC  H13Y20924  -0.156   0.847  35.055  0.5413  0.8636  0.2705
  182SLPC  C31420925  -0.021   0.692  35.011 -0.7422 -0.2962  0.3861
  182SLPC  H14X20926   0.000   0.700  35.120  0.9939 -0.0294  0.0629
  182SLPC  H14Y20927   0.076   0.673  34.961 -0.7511 -0.9157  0.5953
  182SLPC  C31520928  -0.109   0.574  34.964  0.0788  0.1541 -0.3969
  182SLPC  H15X20929  -0.153   0.583  34.862 -2.0022 -1.1987  0.3149
  182SLPC  H15Y20930  -0.195   0.570  35.034  0.0885 -3.4803 -0.4483
  182SLPC  C31620931  -0.034   0.443  34.950 -0.1977  0.2781 -0.4824
  182SLPC  H16X20932   0.011   0.423  35.049 -1.1015 -0.9095 -0.2857
  182SLPC  H16Y20933   0.041   0.463  34.871  0.1006 -2.3041 -0.9352
  182SLPC  C31720934  -0.123   0.328  34.889 -0.3221 -0.2987 -0.4057
  182SLPC  H17X20935  -0.197   0.291  34.963 -1.2067  2.1608  0.0269
  182SLPC  H17Y20936  -0.045   0.252  34.864  1.0462  0.6626  0.7357
  182SLPC  C31820937  -0.181   0.368  34.753  0.1688  0.7041  0.0984
  182SLPC  H18X20938  -0.281   0.414  34.764 -0.0893  0.7873 -2.0181
  182SLPC  H18Y20939  -0.192   0.280  34.685  0.1401  0.0854  0.8926
  182SLPC  H18Z20940  -0.119   0.440  34.695  1.3217  0.1293  0.5938
  183SLPC     N20941   0.658   1.043  34.519 -0.1778  0.0820 -0.2580
  183SLPC   C1320942   0.576   0.937  34.585 -0.3061 -0.1754  0.7284
  183SLPC  H13A20943   0.574   0.844  34.529 -0.4245  0.6913 -0.7839
  183SLPC  H13B20944   0.612   0.922  34.685 -0.4465 -0.8812  0.6790
  183SLPC  H13C20945   0.473   0.970  34.592 -0.2850 -0.1244  0.7958
  183SLPC   C1420946   0.805   1.000  34.509 -0.3723 -1.1973 -0.1375
  183SLPC  H14A20947   0.839   0.961  34.604 -5.7400 -1.8587  1.8892
  183SLPC  H14B20948   0.805   0.912  34.447  0.1533 -1.8617  0.7667
  183SLPC  H14C20949   0.872   1.074  34.469  0.5900 -1.3967  1.0376
  183SLPC   C1520950   0.650   1.166  34.617 -0.6067  0.0859  0.6792
  183SLPC  H15A20951   0.705   1.251  34.580  0.8772 -1.0133  0.3031
  183SLPC  H15B20952   0.548   1.198  34.635 -0.6252 -0.0716  0.8567
  183SLPC  H15C20953   0.687   1.132  34.712  0.8365  0.0277  0.1124
  183SLPC   C1220954   0.610   1.094  34.390 -0.1127  0.2799 -0.5444
  183SLPC  H12A20955   0.681   1.166  34.353  1.3230 -0.8675 -0.1387
  183SLPC  H12B20956   0.514   1.142  34.397 -0.6531 -0.7347 -0.7039
  183SLPC   C1120957   0.599   0.989  34.281 -0.4595  0.0728  0.4715
  183SLPC  H11A20958   0.535   1.030  34.199 -0.5898 -2.1349 -0.6054
  183SLPC  H11B20959   0.545   0.895  34.306  0.4330 -0.3118  0.9584
  183SLPC     P20960   0.820   1.055  34.140 -0.3113 -0.1479 -0.1673
  183SLPC   O1320961   0.862   1.165  34.227 -0.5214  0.2485 -0.1103
  183SLPC   O1420962   0.927   0.972  34.068 -0.2296  0.5676  0.5018
  183SLPC   O1220963   0.729   0.955  34.232  0.0223 -0.4254  0.2056
  183SLPC   O1120964   0.717   1.107  34.035 -0.2413 -0.2857 -0.0378
  183SLPC    C120965   0.716   1.231  33.968  0.2927  0.9802  0.5984
  183SLPC    HA20966   0.611   1.264  33.954  0.0286 -0.0234  0.1710
  183SLPC    HB20967   0.772   1.307  34.026 -0.2745 -1.5793  4.9912
  183SLPC    C220968   0.779   1.216  33.824  0.3974  0.9511 -0.3309
  183SLPC    HS20969   0.821   1.318  33.808 -0.5599  1.3642 -0.2964
  183SLPC   O2120970   0.681   1.181  33.727 -0.5820  0.1457  0.5481
  183SLPC   C2120971   0.654   1.257  33.623  0.1722 -0.8334  0.1967
  183SLPC   O2220972   0.697   1.372  33.605  0.0202  0.8096 -0.2679
  183SLPC   C2220973   0.565   1.184  33.527  0.0913 -0.3189 -0.5265
  183SLPC   H2R20974   0.627   1.115  33.466  0.4904  0.1434 -0.6556
  183SLPC   H2S20975   0.491   1.127  33.586  0.3114 -1.8192 -1.6543
  183SLPC    C320976   0.912   1.130  33.815  0.0581  0.1364 -0.5499
  183SLPC    HX20977   0.880   1.024  33.820 -0.9324  0.4073 -0.8397
  183SLPC    HY20978   0.974   1.151  33.904  0.3252  1.3970 -1.0128
  183SLPC   O3120979   0.987   1.162  33.697  0.1019  0.4416  0.0662
  183SLPC   C3120980   1.094   1.088  33.670 -0.7919  0.1983  1.1110
  183SLPC   O3220981   1.117   0.981  33.726 -1.2147 -0.0094 -0.1514
  183SLPC   C3220982   1.170   1.146  33.548 -0.2493  0.8039  0.3816
  183SLPC   H2X20983   1.233   1.226  33.593  0.0968 -0.2478  1.8255
  183SLPC   H2Y20984   1.104   1.175  33.464 -1.0317 -1.4499  0.1808
  183SLPC   C2320985   0.470   1.271  33.438 -0.8645 -1.2300 -0.1954
  183SLPC   H3R20986   0.521   1.334  33.363 -2.9761 -0.4648 -1.0738
  183SLPC   H3S20987   0.424   1.345  33.507  0.2519 -2.7046  2.2438
  183SLPC   C2420988   0.356   1.199  33.370 -0.0442 -0.3972 -0.0779
  183SLPC   H4R20989   0.297   1.270  33.309 -2.2495 -2.6636 -0.7350
  183SLPC   H4S20990   0.294   1.156  33.451 -2.6386  0.8779 -1.2987
  183SLPC   C2520991   0.410   1.098  33.268  0.6055  0.3337 -0.2306
  183SLPC   H5R20992   0.464   1.021  33.328  1.1721  0.1213 -1.0051
  183SLPC   H5S20993   0.489   1.146  33.206 -0.1566  0.7199 -0.9187
  183SLPC   C2620994   0.303   1.045  33.170  0.4149  0.1570 -0.3107
  183SLPC   H6R20995   0.352   0.969  33.105 -2.9008 -0.8826 -1.8152
  183SLPC   H6S20996   0.272   1.135  33.114 -1.9341 -0.1514  0.3673
  183SLPC   C2720997   0.172   0.991  33.227 -0.7534  0.0351  0.3052
  183SLPC   H7R20998   0.115   0.958  33.138  1.8028 -1.0582 -1.0240
  183SLPC   H7S20999   0.120   1.070  33.285  0.6830  0.4419  1.0856
  183SLPC   C2821000   0.188   0.868  33.312 -1.1623  0.0284  0.6627
  183SLPC   H8R21001   0.220   0.896  33.414 -1.2651  1.8336  0.2336
  183SLPC   H8S21002   0.268   0.803  33.272 -0.2700 -1.8970  5.0311
  183SLPC   C2921003   0.062   0.783  33.304 -0.5547 -0.3183 -0.8137
  183SLPC   H9R21004   0.037   0.738  33.206 -0.3998  0.0858 -1.0422
  183SLPC  C21021005  -0.021   0.769  33.404  0.1064  0.2387 -0.1591
  183SLPC  H10R21006  -0.118   0.722  33.381 -1.2729  1.5668  2.4972
  183SLPC  C21121007  -0.017   0.813  33.547 -0.6616 -0.3200 -0.1268
  183SLPC  H11R21008   0.088   0.825  33.580 -1.0959  0.6087  0.9814
  183SLPC  H11S21009  -0.067   0.741  33.615  0.5374  0.1588  1.3207
  183SLPC  C21221010  -0.071   0.958  33.553  0.4449 -0.7518  0.8590
  183SLPC  H12R21011  -0.016   1.022  33.483  0.0606 -0.4093  0.8726
  183SLPC  C21321012  -0.181   1.000  33.623  0.8560  0.1835 -0.1646
  183SLPC  H13R21013  -0.219   1.102  33.610  1.2183  0.5878  1.5926
  183SLPC  C21421014  -0.255   0.921  33.725  0.6720  0.4226 -0.3546
  183SLPC  H14R21015  -0.203   0.830  33.763 -1.1839  0.0098  1.3825
  183SLPC  H14S21016  -0.346   0.881  33.675 -0.2390  0.2387  1.3936
  183SLPC  C21521017  -0.301   1.012  33.841 -0.0859 -0.5315 -0.7571
  183SLPC  H15R21018  -0.377   0.952  33.895  0.0961 -0.1750 -0.0972
  183SLPC  H15S21019  -0.355   1.104  33.811 -2.0717 -0.2277  3.1613
  183SLPC  C21621020  -0.177   1.042  33.925  0.7525 -0.0808 -0.5747
  183SLPC  H16R21021  -0.084   1.013  33.871  0.9259  0.8110 -0.7705
  183SLPC  H16S21022  -0.192   0.982  34.017 -1.0223  3.7729  1.9589
  183SLPC  C21721023  -0.165   1.189  33.969 -0.1542 -0.0651  0.1188
  183SLPC  H17R21024  -0.174   1.259  33.883  2.3904  0.6641  0.3661
  183SLPC  H17S21025  -0.061   1.196  34.007  0.8015  0.7840 -2.4188
  183SLPC  C21821026  -0.268   1.235  34.071  0.9093  0.6199  0.0962
  183SLPC  H18R21027  -0.367   1.250  34.024  1.0964 -0.3934 -0.6452
  183SLPC  H18S21028  -0.249   1.339  34.104 -0.8031  2.0426 -3.0390
  183SLPC  H18T21029  -0.269   1.160  34.154  1.4489 -1.4324 -1.6438
  183SLPC   C3321030   1.260   1.031  33.483  0.3293 -0.7927 -0.1552
  183SLPC   H3X21031   1.202   0.966  33.415 -1.7916  0.4729  0.3536
  183SLPC   H3Y21032   1.312   0.968  33.559 -0.3551  0.4723  1.4345
  183SLPC   C3421033   1.370   1.101  33.399  0.1699 -0.0812 -0.4719
  183SLPC   H4X21034   1.426   1.180  33.454  0.4590 -0.5056 -0.1525
  183SLPC   H4Y21035   1.331   1.145  33.305 -0.3857  0.1553 -0.1367
  183SLPC   C3521036   1.480   0.997  33.350 -0.2385  0.6068  0.1414
  183SLPC   H5X21037   1.425   0.920  33.293  1.5207  0.9307 -2.1539
  183SLPC   H5Y21038   1.523   0.939  33.434 -1.9289 -0.4722  0.2992
  183SLPC   C3621039   1.577   1.066  33.252 -0.0807 -0.1586 -0.5840
  183SLPC   H6X21040   1.625   1.148  33.311  2.5191 -1.3700 -0.8706
  183SLPC   H6Y21041   1.531   1.116  33.164  2.6689  3.2115 -0.3637
  183SLPC   C3721042   1.689   0.973  33.197 -0.6401 -0.6235  0.1611
  183SLPC   H7X21043   1.638   0.880  33.167 -0.4349 -0.5983 -0.2778
  183SLPC   H7Y21044   1.758   0.953  33.282  1.6231  0.0979 -1.4152
  183SLPC   C3821045   1.774   1.042  33.084 -0.1811  0.1165 -0.2600
  183SLPC   H8X21046   1.804   1.144  33.115  1.0500 -0.7700  1.6343
  183SLPC   H8Y21047   1.695   1.072  33.012 -1.1986 -0.2649  0.6748
  183SLPC   C3921048   1.900   0.958  33.040  0.1123  0.7328 -0.5348
  183SLPC   H9X21049   1.856   0.856  33.040 -0.7923  1.1039  0.0626
  183SLPC   H9Y21050   1.978   0.947  33.118 -1.8700 -1.9491  1.2235
  183SLPC  C31021051   1.961   0.977  32.901 -0.3176  0.5045  0.7745
  183SLPC  H10X21052   2.030   1.064  32.904 -0.9615  1.1908 -1.9732
  183SLPC  H10Y21053   1.879   1.019  32.839  1.3181  0.2559 -1.6874
  183SLPC  C31121054   2.029   0.857  32.843 -0.0664 -0.0289  0.7867
  183SLPC  H11X21055   1.968   0.766  32.823 -1.1322  1.2095 -2.2055
  183SLPC  H11Y21056   2.104   0.835  32.922 -0.9502 -1.9409  1.1632
  183SLPC  C31221057   2.092   0.894  32.710  0.5319 -0.1308  0.0664
  183SLPC  H12X21058   2.141   0.994  32.708  1.4908 -0.5968 -0.7449
  183SLPC  H12Y21059   1.999   0.899  32.650 -0.3514 -2.3053  1.1381
  183SLPC  C31321060   2.195   0.794  32.664  0.2934 -0.7628 -0.3938
  183SLPC  H13X21061   2.222   0.827  32.562 -0.0917  1.8582  0.2750
  183SLPC  H13Y21062   2.163   0.688  32.660 -2.9471  0.0190  1.1320
  183SLPC  C31421063   2.335   0.821  32.732  0.8439 -0.2637 -0.7753
  183SLPC  H14X21064   2.322   0.781  32.835  1.2073  2.2417  0.3028
  183SLPC  H14Y21065   2.347   0.930  32.746  2.8782 -0.5843  0.4888
  183SLPC  C31521066   2.456   0.761  32.664 -0.0916  0.2450 -0.2896
  183SLPC  H15X21067   2.546   0.805  32.711 -0.8178  0.2613  1.1528
  183SLPC  H15Y21068   2.438   0.790  32.558 -0.4795 -3.1401 -1.2702
  183SLPC  C31621069   2.448   0.608  32.668  0.2664  0.0993  0.5393
  183SLPC  H16X21070   2.368   0.573  32.599  1.3537 -0.4213 -0.5102
  183SLPC  H16Y21071   2.407   0.575  32.766  1.2706 -1.2591  0.5404
  183SLPC  C31721072   2.584   0.550  32.630 -0.0528 -0.3375 -0.3405
  183SLPC  H17X21073   2.656   0.570  32.713 -0.1891 -2.9973  0.5267
  183SLPC  H17Y21074   2.632   0.589  32.538 -0.4614 -0.6790 -0.6959
  183SLPC  C31821075   2.581   0.393  32.623  0.5256  0.2829 -0.5941
  183SLPC  H18X21076   2.677   0.353  32.582  0.6744 -0.6768  0.6385
  183SLPC  H18Y21077   2.504   0.360  32.550  2.1782 -0.9543 -1.8574
  183SLPC  H18Z21078   2.568   0.351  32.725  0.6270 -3.0500 -1.8019
  184SLPC     N21079   0.250   3.286  42.778  0.4775 -0.3356  0.2225
  184SLPC   C1321080   0.370   3.219  42.832 -0.4949 -0.1184 -0.5872
  184SLPC  H13A21081   0.404   3.142  42.765  0.1115  0.8414 -1.4135
  184SLPC  H13B21082   0.450   3.290  42.850  1.2453 -2.4250  1.3830
  184SLPC  H13C21083   0.347   3.179  42.929  2.6020 -0.9256 -0.0901
  184SLPC   C1421084   0.178   3.352  42.890  0.5384 -0.3202 -0.4086
  184SLPC  H14A21085   0.131   3.281  42.955  1.2827 -1.5191 -1.1400
  184SLPC  H14B21086   0.250   3.412  42.945  0.0083 -0.5055  0.5049
  184SLPC  H14C21087   0.101   3.417  42.851  0.5368 -0.0382  0.0588
  184SLPC   C1521088   0.160   3.182  42.720  0.2608  0.5410  0.0684
  184SLPC  H15A21089   0.056   3.210  42.726  0.0095 -0.6451  1.8888
  184SLPC  H15B21090   0.180   3.169  42.615  1.0678 -0.7336  0.3620
  184SLPC  H15C21091   0.185   3.089  42.769  0.3438  0.8554  0.6334
  184SLPC   C1221092   0.290   3.385  42.665 -0.0424 -0.1997  0.0232
  184SLPC  H12A21093   0.360   3.458  42.703  2.0712 -0.6399 -2.6950
  184SLPC  H12B21094   0.205   3.425  42.612  0.6881 -1.3995 -2.1563
  184SLPC   C1121095   0.381   3.316  42.556  0.7510 -0.0545 -0.7134
  184SLPC  H11A21096   0.376   3.392  42.474 -1.2647  0.2489 -0.3577
  184SLPC  H11B21097   0.338   3.222  42.517  0.8847 -0.1601 -0.6065
  184SLPC     P21098   0.640   3.362  42.567 -0.0262  0.0507 -0.1376
  184SLPC   O1321099   0.626   3.494  42.632  0.0444  0.1218  0.0637
  184SLPC   O1421100   0.761   3.284  42.605  0.1597  0.0412 -0.6238
  184SLPC   O1221101   0.515   3.277  42.597 -0.3590 -0.4390  0.6743
  184SLPC   O1121102   0.639   3.385  42.412 -0.1223 -0.2999  0.2454
  184SLPC    C121103   0.687   3.289  42.315  0.2257 -0.2478  0.1261
  184SLPC    HA21104   0.797   3.279  42.321  0.2985 -0.0239 -0.6553
  184SLPC    HB21105   0.643   3.188  42.333 -1.2294  0.4594  0.7657
  184SLPC    C221106   0.664   3.355  42.180  0.3830  0.2345 -0.0008
  184SLPC    HS21107   0.556   3.380  42.174  0.0694 -1.0301  0.0281
  184SLPC   O2121108   0.705   3.259  42.080 -0.1893 -0.3064 -0.1000
  184SLPC   C2121109   0.650   3.277  41.956 -0.0638 -0.3978  0.6247
  184SLPC   O2221110   0.548   3.341  41.941 -0.0359 -0.3627 -0.0490
  184SLPC   C2221111   0.720   3.199  41.846  0.1779  0.0111  0.1331
  184SLPC   H2R21112   0.776   3.117  41.896  0.7393  0.6845  0.6301
  184SLPC   H2S21113   0.648   3.149  41.778  0.1487  0.2113  0.0152
  184SLPC    C321114   0.735   3.503  42.170 -0.2989  0.4076  0.3734
  184SLPC    HX21115   0.837   3.497  42.215  0.2234  3.2365 -0.2333
  184SLPC    HY21116   0.687   3.559  42.253  1.2063 -0.3393  1.8202
  184SLPC   O3121117   0.728   3.558  42.039  0.3760 -0.1091 -0.0922
  184SLPC   C3121118   0.622   3.626  42.002 -0.1686  0.1479 -0.3212
  184SLPC   O3221119   0.539   3.664  42.078  0.5732 -0.7104  0.3164
  184SLPC   C3221120   0.651   3.673  41.859  0.0408  0.5169  0.1818
  184SLPC   H2X21121   0.682   3.576  41.815  0.5014 -0.1115  1.8292
  184SLPC   H2Y21122   0.741   3.739  41.854  0.6114 -0.1352  1.5287
  184SLPC   C2321123   0.806   3.294  41.767  0.3798  0.7122  0.4009
  184SLPC   H3R21124   0.897   3.243  41.729  1.0254  2.5885 -0.7081
  184SLPC   H3S21125   0.850   3.375  41.829  1.0184  0.1981  0.6258
  184SLPC   C2421126   0.737   3.342  41.639  0.3596 -0.1758 -0.3719
  184SLPC   H4R21127   0.814   3.399  41.582 -0.3125  0.3176 -0.7852
  184SLPC   H4S21128   0.653   3.407  41.670  0.7101 -0.6264  1.7032
  184SLPC   C2521129   0.674   3.237  41.535  0.1190  0.4997  0.2610
  184SLPC   H5R21130   0.591   3.185  41.587  0.3686 -0.7410 -0.5391
  184SLPC   H5S21131   0.760   3.167  41.524 -0.4974 -0.5529  1.7576
  184SLPC   C2621132   0.643   3.302  41.393  0.3299  0.0835 -1.1382
  184SLPC   H6R21133   0.743   3.316  41.347  1.3034 -1.3172  0.4218
  184SLPC   H6S21134   0.590   3.399  41.400 -0.8302 -0.6415  1.4080
  184SLPC   C2721135   0.560   3.213  41.307  0.0543  0.7195 -0.8858
  184SLPC   H7R21136   0.460   3.196  41.353  0.1990  0.6676 -0.5890
  184SLPC   H7S21137   0.613   3.116  41.299  0.3787  1.0306 -3.3361
  184SLPC   C2821138   0.547   3.260  41.162 -0.0833 -0.3669 -0.4429
  184SLPC   H8R21139   0.649   3.279  41.122 -0.0730  0.8770  0.1430
  184SLPC   H8S21140   0.501   3.358  41.138  0.4166 -0.1604 -0.5801
  184SLPC   C2921141   0.471   3.150  41.087 -0.2258  0.3592 -0.0036
  184SLPC   H9R21142   0.397   3.097  41.148 -0.3839 -0.3285 -0.7763
  184SLPC  C21021143   0.495   3.103  40.967 -0.0119 -0.5689  1.0379
  184SLPC  H10R21144   0.430   3.020  40.935 -1.3998  0.6454  0.5896
  184SLPC  C21121145   0.595   3.155  40.868 -0.5515 -0.4326 -0.8601
  184SLPC  H11R21146   0.674   3.197  40.933 -0.1289 -0.9721 -1.0156
  184SLPC  H11S21147   0.534   3.225  40.806 -2.1594 -2.0546 -1.2110
  184SLPC  C21221148   0.656   3.045  40.783  0.2922 -0.4386 -0.9223
  184SLPC  H12R21149   0.758   3.018  40.815  0.6543  0.5202 -1.2381
  184SLPC  C21321150   0.594   2.993  40.674 -0.0823 -0.3049  0.5019
  184SLPC  H13R21151   0.645   2.917  40.613  1.4307 -0.4377  1.8530
  184SLPC  C21421152   0.455   3.022  40.627 -0.8673 -1.1034  0.2375
  184SLPC  H14R21153   0.400   3.055  40.717  2.2843  2.7827  1.0132
  184SLPC  H14S21154   0.419   2.931  40.575 -0.2847 -2.4383  2.1164
  184SLPC  C21521155   0.453   3.142  40.531  0.0134  0.4027 -0.0239
  184SLPC  H15R21156   0.500   3.223  40.593 -0.2274 -1.4885  2.8102
  184SLPC  H15S21157   0.350   3.172  40.503 -0.4170 -2.7421 -2.2341
  184SLPC  C21621158   0.519   3.119  40.399 -0.3580  0.8568  0.1827
  184SLPC  H16R21159   0.500   3.021  40.350 -0.2468 -0.8256  3.2504
  184SLPC  H16S21160   0.629   3.131  40.403  0.8548 -5.3857 -2.2935
  184SLPC  C21721161   0.480   3.241  40.307  0.1457  0.4333 -0.0482
  184SLPC  H17R21162   0.371   3.250  40.285 -0.0173  1.0570  0.9497
  184SLPC  H17S21163   0.519   3.213  40.206 -0.3806 -0.4301 -0.0236
  184SLPC  C21821164   0.548   3.380  40.321 -0.3509 -0.0923  0.5125
  184SLPC  H18R21165   0.509   3.448  40.242  0.8084  0.7850  0.6593
  184SLPC  H18S21166   0.656   3.369  40.296 -0.3932 -0.8394  0.6486
  184SLPC  H18T21167   0.526   3.430  40.418 -3.0515  0.6981 -0.4424
  184SLPC   C3321168   0.527   3.724  41.783  0.1757 -0.0903 -0.6698
  184SLPC   H3X21169   0.482   3.811  41.836 -0.2143 -0.9967  0.5163
  184SLPC   H3Y21170   0.463   3.634  41.787  1.2542 -0.9424 -1.8097
  184SLPC   C3421171   0.551   3.762  41.639 -0.2854 -0.1392 -0.5403
  184SLPC   H4X21172   0.554   3.665  41.587  1.2488 -1.3000  1.5474
  184SLPC   H4Y21173   0.648   3.816  41.646 -1.1170  1.3643  0.0561
  184SLPC   C3521174   0.455   3.870  41.574  0.1666  0.2621  0.9506
  184SLPC   H5X21175   0.353   3.826  41.579 -0.0667  0.5208 -0.7707
  184SLPC   H5Y21176   0.481   3.880  41.466 -1.4087 -0.3013  0.5044
  184SLPC   C3621177   0.459   4.004  41.636  0.6812 -0.0943  0.2849
  184SLPC   H6X21178   0.556   4.058  41.625  0.1044  1.1492  1.0687
  184SLPC   H6Y21179   0.416   3.996  41.738 -1.2318 -1.0400 -0.5533
  184SLPC   C3721180   0.369   4.102  41.553 -0.3650  0.0172 -0.7175
  184SLPC   H7X21181   0.277   4.046  41.528 -0.3840 -1.2158  1.8890
  184SLPC   H7Y21182   0.419   4.122  41.455  2.0785  2.2527  0.8341
  184SLPC   C3821183   0.330   4.235  41.617  0.3686  0.6068 -0.1727
  184SLPC   H8X21184   0.419   4.302  41.616  1.3987 -0.7076  0.2881
  184SLPC   H8Y21185   0.292   4.221  41.720 -0.2233  1.8246 -0.2203
  184SLPC   C3921186   0.215   4.308  41.545  0.5828  0.0488 -0.2580
  184SLPC   H9X21187   0.198   4.403  41.601  0.4638 -0.5213  0.6952
  184SLPC   H9Y21188   0.124   4.244  41.551  1.5770 -1.3436  0.5028
  184SLPC  C31021189   0.231   4.345  41.397  0.6022 -0.5471  0.0830
  184SLPC  H10X21190   0.264   4.255  41.341 -1.0582 -0.8323 -0.4935
  184SLPC  H10Y21191   0.309   4.424  41.398  1.4637 -1.3378 -1.4476
  184SLPC  C31121192   0.106   4.426  41.349 -0.1147  0.4163  0.3682
  184SLPC  H11X21193   0.071   4.508  41.416  0.8868 -0.5364  2.1432
  184SLPC  H11Y21194   0.023   4.353  41.335  0.6995 -0.3096 -0.8956
  184SLPC  C31221195   0.125   4.486  41.207 -1.4981  1.1085 -0.1275
  184SLPC  H12X21196   0.139   4.397  41.141 -0.6947  1.2845 -0.2029
  184SLPC  H12Y21197   0.219   4.544  41.202 -1.2130  0.6121 -0.7216
  184SLPC  C31321198   0.007   4.553  41.140 -0.0316  0.0301 -0.1146
  184SLPC  H13X21199  -0.007   4.659  41.173  0.1608  0.0137  0.0178
  184SLPC  H13Y21200  -0.085   4.496  41.163 -0.5013  1.2572  1.1901
  184SLPC  C31421201   0.009   4.545  40.989 -0.1640  0.1525 -0.9834
  184SLPC  H14X21202   0.013   4.440  40.953  1.4385 -0.2917  0.4153
  184SLPC  H14Y21203   0.100   4.596  40.951  0.8365 -0.2786  0.7449
  184SLPC  C31521204  -0.112   4.613  40.930  0.0190 -0.6022 -0.1357
  184SLPC  H15X21205  -0.088   4.719  40.954 -1.9962 -0.0024 -0.5794
  184SLPC  H15Y21206  -0.212   4.598  40.976 -1.1829 -1.9754 -2.9762
  184SLPC  C31621207  -0.130   4.593  40.782 -0.5451  0.1844 -0.1814
  184SLPC  H16X21208  -0.152   4.489  40.751 -0.7415  0.4301 -0.8962
  184SLPC  H16Y21209  -0.038   4.627  40.729  0.2216  0.2491  1.1440
  184SLPC  C31721210  -0.245   4.676  40.740 -0.2471 -0.1857 -0.2430
  184SLPC  H17X21211  -0.243   4.782  40.775 -1.0931  0.0195 -0.7839
  184SLPC  H17Y21212  -0.332   4.617  40.774 -0.3959 -0.9332 -1.8091
  184SLPC  C31821213  -0.263   4.688  40.587 -0.3142 -0.7607  0.7376
  184SLPC  H18X21214  -0.219   4.780  40.544 -0.7308 -1.2773 -0.8638
  184SLPC  H18Y21215  -0.372   4.679  40.566  0.0046 -1.9958 -0.5589
  184SLPC  H18Z21216  -0.209   4.603  40.540  0.9665 -0.3658  1.4697
  185SLPC     N21217   1.926   0.335  22.206  0.1234  0.2311 -0.1165
  185SLPC   C1321218   1.911   0.197  22.138 -0.2263  0.3486  0.5067
  185SLPC  H13A21219   1.934   0.207  22.033  1.6846  0.1259  0.8597
  185SLPC  H13B21220   1.992   0.139  22.181  1.3600  2.2140  0.1419
  185SLPC  H13C21221   1.812   0.157  22.153 -0.0872 -1.0807 -1.9595
  185SLPC   C1421222   1.821   0.427  22.150 -0.0383 -0.0632  0.0303
  185SLPC  H14A21223   1.830   0.527  22.189  2.5205 -0.4681  0.6603
  185SLPC  H14B21224   1.829   0.433  22.043 -4.8033  0.0716 -0.5590
  185SLPC  H14C21225   1.723   0.388  22.175 -0.3202  0.2317 -0.6066
  185SLPC   C1521226   2.063   0.392  22.164 -0.0571  0.3566  0.1538
  185SLPC  H15A21227   2.140   0.321  22.189  0.0041  0.5967  0.6724
  185SLPC  H15B21228   2.066   0.413  22.059 -0.2448 -0.3303  0.0080
  185SLPC  H15C21229   2.077   0.480  22.225  1.0520 -1.9618  3.5248
  185SLPC   C1221230   1.924   0.327  22.353 -0.0623 -0.5902 -0.0758
  185SLPC  H12A21231   1.961   0.422  22.389  2.4675 -2.0783  1.6521
  185SLPC  H12B21232   1.997   0.255  22.387  0.2838  0.5405  1.7220
  185SLPC   C1121233   1.795   0.281  22.420 -0.4147 -0.1639  0.0142
  185SLPC  H11A21234   1.700   0.325  22.381 -0.0525  1.5819  1.0163
  185SLPC  H11B21235   1.788   0.317  22.525  0.4410 -0.0440  0.0397
  185SLPC     P21236   1.831   0.050  22.549  0.2199  0.4425 -0.5465
  185SLPC   O1321237   1.736  -0.060  22.552  0.7024  0.0286 -0.0161
  185SLPC   O1421238   1.975   0.006  22.529  0.2838 -0.3634 -0.9412
  185SLPC   O1221239   1.792   0.139  22.422  0.4708  0.2239  0.2923
  185SLPC   O1121240   1.804   0.144  22.675 -0.2236 -0.2007  0.0778
  185SLPC    C121241   1.678   0.185  22.711 -0.6327 -0.6716  0.0478
  185SLPC    HA21242   1.669   0.296  22.709 -1.6775 -0.7536 -0.2158
  185SLPC    HB21243   1.596   0.147  22.647 -1.7376 -0.7213  1.4497
  185SLPC    C221244   1.638   0.145  22.850  0.0860  0.0245  0.3775
  185SLPC    HS21245   1.538   0.191  22.867 -0.0751  0.5435 -1.7380
  185SLPC   O2121246   1.733   0.197  22.939 -0.4475  0.4701  0.0543
  185SLPC   C2121247   1.720   0.321  22.973  0.2663  0.0080  0.1807
  185SLPC   O2221248   1.648   0.406  22.923  0.2506 -0.3351 -0.0711
  185SLPC   C2221249   1.815   0.361  23.078  0.1686  0.1419 -0.5347
  185SLPC   H2R21250   1.854   0.461  23.047  3.0576 -0.9799 -0.8923
  185SLPC   H2S21251   1.752   0.376  23.168 -0.5148  2.2981 -1.3155
  185SLPC    C321252   1.623  -0.012  22.876  0.4090 -0.5262 -0.1344
  185SLPC    HX21253   1.723  -0.061  22.875  0.6361 -0.0740 -0.1310
  185SLPC    HY21254   1.571  -0.052  22.787  3.2697  0.2311 -2.3091
  185SLPC   O3121255   1.554  -0.040  23.003  0.1687 -0.3469 -0.0886
  185SLPC   C3121256   1.534  -0.159  23.051  0.2571 -0.1249 -0.0467
  185SLPC   O3221257   1.575  -0.265  23.005 -0.7594  0.0881 -0.3422
  185SLPC   C3221258   1.442  -0.164  23.181 -1.0977 -0.6618 -0.0345
  185SLPC   H2X21259   1.338  -0.137  23.157 -1.1985 -0.9658  0.0576
  185SLPC   H2Y21260   1.484  -0.082  23.243  0.2778 -0.6053 -0.9767
  185SLPC   C2321261   1.936   0.269  23.115  0.0331 -0.4701 -0.0650
  185SLPC   H3R21262   1.999   0.261  23.024 -0.8975  0.2152 -0.8066
  185SLPC   H3S21263   1.906   0.166  23.144 -1.7830 -0.5820 -2.0808
  185SLPC   C2421264   2.014   0.327  23.238  0.3917  0.4627 -0.0596
  185SLPC   H4R21265   2.032   0.436  23.228  0.0417  0.4051 -1.4642
  185SLPC   H4S21266   2.117   0.287  23.229  0.4983  1.0870 -1.8593
  185SLPC   C2521267   1.950   0.276  23.369 -0.1138 -0.6901  0.9020
  185SLPC   H5R21268   1.967   0.167  23.380  2.4833 -0.2495  2.1066
  185SLPC   H5S21269   1.844   0.311  23.369 -0.0801 -0.5896  1.0496
  185SLPC   C2621270   2.006   0.330  23.501  0.0251 -0.5432  0.6068
  185SLPC   H6R21271   1.968   0.434  23.507  2.0328  0.2874 -0.1937
  185SLPC   H6S21272   2.116   0.327  23.488 -0.0813 -0.1139 -0.4860
  185SLPC   C2721273   1.959   0.246  23.625 -0.1876  0.4782  0.0541
  185SLPC   H7R21274   2.008   0.146  23.627 -1.5629 -0.2194 -0.1017
  185SLPC   H7S21275   1.852   0.222  23.607  0.1190 -1.3427  0.4757
  185SLPC   C2821276   1.974   0.320  23.759  0.3570  0.2509  0.3538
  185SLPC   H8R21277   1.923   0.254  23.832  1.2831 -0.0726  0.7360
  185SLPC   H8S21278   1.922   0.418  23.757 -0.7319 -0.3271 -0.1940
  185SLPC   C2921279   2.112   0.327  23.825  0.4380  0.0974  0.4175
  185SLPC   H9R21280   2.198   0.278  23.777  0.5685  0.3769  0.3639
  185SLPC  C21021281   2.127   0.378  23.946 -0.1609 -0.1623 -0.7603
  185SLPC  H10R21282   2.231   0.402  23.974 -0.1106 -1.2922  0.1015
  185SLPC  C21121283   2.016   0.446  24.026 -0.2772  0.3192  0.7590
  185SLPC  H11R21284   1.922   0.386  24.017 -0.0322  0.1787 -1.5158
  185SLPC  H11S21285   2.003   0.550  23.990 -1.0642 -0.4053 -1.1799
  185SLPC  C21221286   2.063   0.456  24.169  0.5629 -0.3120 -0.6632
  185SLPC  H12R21287   2.149   0.394  24.198  1.3776  0.0559 -2.2105
  185SLPC  C21321288   2.008   0.562  24.247  0.8727 -1.0258  1.3817
  185SLPC  H13R21289   2.041   0.567  24.352  0.9235 -1.2276  1.3767
  185SLPC  C21421290   1.894   0.650  24.214  0.1355  0.1942 -0.2765
  185SLPC  H14R21291   1.858   0.632  24.111  1.5038  0.3011 -0.8017
  185SLPC  H14S21292   1.916   0.758  24.202 -4.1360  0.9880 -2.6507
  185SLPC  C21521293   1.772   0.625  24.310  0.0947 -0.0860  0.1975
  185SLPC  H15R21294   1.759   0.515  24.310 -2.2817  0.0611  3.4207
  185SLPC  H15S21295   1.689   0.684  24.266 -0.8617 -0.3452  1.5954
  185SLPC  C21621296   1.797   0.670  24.453  0.3388 -0.0657 -0.3656
  185SLPC  H16R21297   1.785   0.780  24.460 -2.0827 -0.2471 -0.9464
  185SLPC  H16S21298   1.888   0.637  24.510 -0.7461 -1.4429  0.6364
  185SLPC  C21721299   1.674   0.631  24.544 -0.1804 -0.9910 -0.5634
  185SLPC  H17R21300   1.690   0.665  24.649  0.1186 -0.3967 -0.8002
  185SLPC  H17S21301   1.651   0.522  24.537 -1.4225 -0.7354 -0.6575
  185SLPC  C21821302   1.550   0.718  24.519  0.7028 -0.1219  0.4442
  185SLPC  H18R21303   1.579   0.817  24.560 -0.6439 -0.2779  1.8183
  185SLPC  H18S21304   1.467   0.687  24.586 -0.2622 -0.1154 -0.7149
  185SLPC  H18T21305   1.531   0.729  24.410  2.5642  2.2493  0.2698
  185SLPC   C3321306   1.444  -0.301  23.256 -0.1810  0.5011 -0.1330
  185SLPC   H3X21307   1.544  -0.334  23.292 -0.5661 -1.3732 -0.6628
  185SLPC   H3Y21308   1.407  -0.386  23.195 -2.1081 -1.7746  3.7706
  185SLPC   C3421309   1.349  -0.316  23.380  0.2477 -0.6303 -0.8751
  185SLPC   H4X21310   1.338  -0.424  23.403  4.4423 -0.5708  2.5696
  185SLPC   H4Y21311   1.249  -0.293  23.337  0.6082  2.2945 -0.3743
  185SLPC   C3521312   1.377  -0.227  23.508  0.3691  0.1921 -0.6421
  185SLPC   H5X21313   1.375  -0.121  23.474  1.1597  0.0861 -1.0615
  185SLPC   H5Y21314   1.477  -0.254  23.548  0.8936  2.3483 -0.3829
  185SLPC   C3621315   1.266  -0.245  23.608  0.6729 -0.8635 -0.1225
  185SLPC   H6X21316   1.255  -0.348  23.650  1.1631 -0.6528  0.5495
  185SLPC   H6Y21317   1.169  -0.221  23.559 -0.9902  0.4873  3.4672
  185SLPC   C3721318   1.280  -0.144  23.718 -0.6454  0.6660  0.2038
  185SLPC   H7X21319   1.285  -0.046  23.666  1.9223  0.8673  0.6592
  185SLPC   H7Y21320   1.379  -0.156  23.768 -0.6840 -0.3167  0.0491
  185SLPC   C3821321   1.174  -0.137  23.826  0.0227  0.0234  0.6457
  185SLPC   H8X21322   1.186  -0.231  23.884  1.5995 -0.1470  0.1108
  185SLPC   H8Y21323   1.074  -0.137  23.777  1.2358 -0.5862 -2.0014
  185SLPC   C3921324   1.185  -0.017  23.923 -0.0633 -0.2895  0.4763
  185SLPC   H9X21325   1.148   0.078  23.879  3.9916  2.3880  2.2254
  185SLPC   H9Y21326   1.290   0.001  23.955  0.2655 -1.2045 -0.0384
  185SLPC  C31021327   1.111  -0.057  24.054  0.3424 -0.0313  0.7690
  185SLPC  H10X21328   1.136  -0.162  24.084 -0.5732 -0.0889  1.3644
  185SLPC  H10Y21329   1.003  -0.055  24.029  0.3524  0.1486  0.7468
  185SLPC  C31121330   1.127   0.030  24.180 -0.3326  0.5291  0.0839
  185SLPC  H11X21331   1.087   0.133  24.175  1.3554  1.4026  2.6648
  185SLPC  H11Y21332   1.235   0.053  24.196 -0.3520 -0.2558  1.5891
  185SLPC  C31221333   1.066  -0.049  24.300 -0.8763  0.1644  0.0938
  185SLPC  H12X21334   1.138  -0.133  24.312  0.4736  1.1749 -0.5567
  185SLPC  H12Y21335   0.964  -0.087  24.277  0.0817 -1.0888 -2.5000
  185SLPC  C31321336   1.071   0.042  24.424  0.0558  0.0145  0.7432
  185SLPC  H13X21337   0.995   0.123  24.429  1.0038  0.8692  2.4282
  185SLPC  H13Y21338   1.169   0.093  24.412  0.0061 -0.0088  0.2557
  185SLPC  C31421339   1.062  -0.026  24.557 -0.0648  0.0658  0.0837
  185SLPC  H14X21340   1.145  -0.099  24.564  0.5859  0.8336  0.6004
  185SLPC  H14Y21341   0.962  -0.075  24.555  0.7844 -1.7788  0.7434
  185SLPC  C31521342   1.067   0.070  24.680 -0.2111  0.6684 -1.0716
  185SLPC  H15X21343   0.989   0.146  24.660  1.2223  2.3904 -0.3858
  185SLPC  H15Y21344   1.172   0.103  24.691  0.7293 -2.0073 -1.1455
  185SLPC  C31621345   1.033  -0.013  24.801 -0.2062 -0.0961 -0.8728
  185SLPC  H16X21346   1.098  -0.103  24.805  0.5698  0.4465 -1.0147
  185SLPC  H16Y21347   0.935  -0.062  24.780  0.7498 -1.6214 -2.0047
  185SLPC  C31721348   1.024   0.063  24.930 -0.8277  0.4203 -0.8119
  185SLPC  H17X21349   0.980   0.165  24.917 -1.7846 -0.0381 -1.2276
  185SLPC  H17Y21350   1.130   0.086  24.955 -0.2855 -0.1376 -2.4765
  185SLPC  C31821351   0.969  -0.018  25.051 -0.5391 -0.7191 -0.0911
  185SLPC  H18X21352   1.011  -0.120  25.065  0.1975 -0.1472  2.4128
  185SLPC  H18Y21353   0.859  -0.033  25.047 -0.7024 -0.8063  2.5140
  185SLPC  H18Z21354   0.978   0.033  25.150 -0.8252 -0.0745 -0.3947
  186SLPC     N21355   2.389   2.526  27.814  0.1253  0.6592  0.9269
  186SLPC   C1321356   2.485   2.586  27.915 -0.1482  0.1517 -0.0505
  186SLPC  H13A21357   2.563   2.644  27.867 -0.4850  1.0364  0.4379
  186SLPC  H13B21358   2.430   2.650  27.982 -0.1280 -1.5316  1.6192
  186SLPC  H13C21359   2.528   2.507  27.974  1.1538 -0.8816 -2.2610
  186SLPC   C1421360   2.470   2.429  27.732  0.4656  0.1362  0.2616
  186SLPC  H14A21361   2.551   2.477  27.678 -0.7804  0.7715 -1.1105
  186SLPC  H14B21362   2.507   2.346  27.790 -0.3401 -1.2128 -1.0725
  186SLPC  H14C21363   2.405   2.378  27.663 -0.2506 -0.4557  1.3526
  186SLPC   C1521364   2.352   2.643  27.731 -0.1739 -0.1341  0.6634
  186SLPC  H15A21365   2.275   2.624  27.658  1.2558 -2.1806 -0.4285
  186SLPC  H15B21366   2.326   2.728  27.792  2.6679 -0.4369  2.5130
  186SLPC  H15C21367   2.439   2.669  27.673 -1.4252  1.0735 -0.7751
  186SLPC   C1221368   2.265   2.475  27.880 -0.1583 -0.6294  0.2082
  186SLPC  H12A21369   2.207   2.448  27.793  1.6902  1.3315 -1.7273
  186SLPC  H12B21370   2.216   2.554  27.935 -0.2877 -0.9459  0.5525
  186SLPC   C1121371   2.276   2.351  27.972 -0.5036  0.8573 -0.2511
  186SLPC  H11A21372   2.265   2.263  27.906  1.2433 -0.0107  0.5477
  186SLPC  H11B21373   2.184   2.355  28.034 -0.6073  1.5846 -0.4422
  186SLPC     P21374   2.482   2.219  28.074  0.6601  0.0460 -0.0540
  186SLPC   O1321375   2.494   2.171  27.934  0.1724 -0.6784 -0.3459
  186SLPC   O1421376   2.605   2.257  28.152  0.1964  0.0920  0.7363
  186SLPC   O1221377   2.391   2.352  28.062  1.1049  0.3858  0.1155
  186SLPC   O1121378   2.390   2.122  28.160  0.3055  0.0005  0.7956
  186SLPC    C121379   2.341   2.162  28.287  0.7352 -0.2283 -0.9899
  186SLPC    HA21380   2.414   2.143  28.368 -2.5677  0.7269  2.4887
  186SLPC    HB21381   2.316   2.269  28.301  2.3335 -0.0141  0.4531
  186SLPC    C221382   2.206   2.080  28.320 -0.2991 -0.2395 -0.0044
  186SLPC    HS21383   2.147   2.137  28.394  1.6567  3.6052 -1.1691
  186SLPC   O2121384   2.239   1.953  28.368  0.0653 -0.3463 -0.4453
  186SLPC   C2121385   2.261   1.940  28.502  0.5803 -0.3038 -0.0955
  186SLPC   O2221386   2.245   2.027  28.585  0.4104  0.1603 -0.3361
  186SLPC   C2221387   2.308   1.794  28.525  1.1906  0.2996  0.7898
  186SLPC   H2R21388   2.227   1.720  28.510  0.2484  1.4629 -0.0151
  186SLPC   H2S21389   2.393   1.782  28.455  2.5702  2.1056  2.0659
  186SLPC    C321390   2.113   2.081  28.197 -1.0087  0.7930  0.2370
  186SLPC    HX21391   2.157   2.014  28.120  2.1486  2.7133  0.1789
  186SLPC    HY21392   2.128   2.178  28.146  4.3583  0.0952 -0.1212
  186SLPC   O3121393   1.981   2.055  28.234  0.2812  0.2025  0.1418
  186SLPC   C3121394   1.916   1.956  28.165 -0.7738  0.2390 -0.1381
  186SLPC   O3221395   1.965   1.885  28.078 -0.1827 -0.2012 -0.4143
  186SLPC   C3221396   1.767   1.954  28.212 -0.5869 -0.2106 -0.6170
  186SLPC   H2X21397   1.728   1.855  28.182 -0.3602 -0.6943  0.6425
  186SLPC   H2Y21398   1.706   2.030  28.159  0.9164  1.5347  0.0454
  186SLPC   C2321399   2.364   1.768  28.668  0.1402  0.7807 -0.1023
  186SLPC   H3R21400   2.289   1.796  28.745  0.9032  0.6190  0.7142
  186SLPC   H3S21401   2.454   1.833  28.666 -0.9042  2.4472  2.5199
  186SLPC   C2421402   2.408   1.617  28.678  0.5888  0.1206 -0.5113
  186SLPC   H4R21403   2.469   1.584  28.591  1.3058 -0.0781  0.0604
  186SLPC   H4S21404   2.318   1.552  28.679  0.6166  0.0803  0.9317
  186SLPC   C2521405   2.484   1.585  28.807  0.5834  1.0709  0.7130
  186SLPC   H5R21406   2.591   1.606  28.791  0.8589 -1.6176 -1.9396
  186SLPC   H5S21407   2.489   1.474  28.808  2.2176  1.0988 -0.9874
  186SLPC   C2621408   2.431   1.640  28.943  0.1035  0.3045  0.5110
  186SLPC   H6R21409   2.427   1.751  28.940  0.6786  0.3256 -1.8402
  186SLPC   H6S21410   2.487   1.600  29.030  2.5079  1.3770 -0.4566
  186SLPC   C2721411   2.290   1.578  28.975 -0.0392 -1.0427 -0.3714
  186SLPC   H7R21412   2.311   1.474  29.010 -1.5132 -2.0866 -2.3730
  186SLPC   H7S21413   2.231   1.577  28.881  1.7084 -0.0435 -1.5246
  186SLPC   C2821414   2.218   1.657  29.086 -0.2706  0.3462 -0.5158
  186SLPC   H8R21415   2.118   1.609  29.096 -1.1254  1.5038 -2.9022
  186SLPC   H8S21416   2.198   1.758  29.045 -2.1779  0.9447  1.6699
  186SLPC   C2921417   2.293   1.674  29.215  0.2221 -0.4736 -0.2497
  186SLPC   H9R21418   2.375   1.748  29.218 -0.5268  0.3426  2.1924
  186SLPC  C21021419   2.262   1.615  29.335  0.0796  0.0264  0.6852
  186SLPC  H10R21420   2.314   1.643  29.428 -0.6474  2.6789  0.3487
  186SLPC  C21121421   2.181   1.494  29.345  0.5812 -0.3393 -0.6978
  186SLPC  H11R21422   2.185   1.439  29.248 -2.4845  1.1859 -1.8461
  186SLPC  H11S21423   2.080   1.539  29.341  0.3344 -0.6135  1.4828
  186SLPC  C21221424   2.216   1.401  29.460  0.6000 -0.3689 -0.4793
  186SLPC  H12R21425   2.322   1.371  29.461  1.0353  1.0748 -0.0851
  186SLPC  C21321426   2.128   1.360  29.559 -0.2338 -1.0784  0.0949
  186SLPC  H13R21427   2.156   1.303  29.649 -0.2477  1.1125  1.5454
  186SLPC  C21421428   1.985   1.383  29.558 -0.2312  0.2161 -0.3499
  186SLPC  H14R21429   1.927   1.289  29.546 -1.5218  0.6069  2.0954
  186SLPC  H14S21430   1.962   1.419  29.455 -1.0542 -3.6097 -1.6933
  186SLPC  C21521431   1.930   1.482  29.660 -0.3588 -1.0161  0.6991
  186SLPC  H15R21432   1.821   1.500  29.652 -0.1346 -0.0833 -0.6651
  186SLPC  H15S21433   1.983   1.579  29.649 -1.7534 -0.1796  1.0935
  186SLPC  C21621434   1.971   1.440  29.796  0.5088  0.0981  0.4045
  186SLPC  H16R21435   2.078   1.424  29.820  0.5334  0.6995  0.6997
  186SLPC  H16S21436   1.930   1.337  29.800  0.5298  0.0630 -0.1093
  186SLPC  C21721437   1.905   1.524  29.913 -0.0176  0.4300  0.0470
  186SLPC  H17R21438   1.795   1.515  29.917 -0.1474  1.4932 -0.7256
  186SLPC  H17S21439   1.920   1.629  29.879  1.2185  0.3745  0.3688
  186SLPC  C21821440   1.979   1.495  30.047 -0.1457  0.3957  0.5174
  186SLPC  H18R21441   1.936   1.558  30.128 -1.4462 -1.6859  1.5221
  186SLPC  H18S21442   2.086   1.518  30.029 -0.7562  2.1865 -1.2502
  186SLPC  H18T21443   1.962   1.389  30.076 -2.1668  0.5478  0.0196
  186SLPC   C3321444   1.750   1.965  28.368 -0.3007  0.0687  0.5308
  186SLPC   H3X21445   1.753   2.075  28.383 -2.5348  0.4573 -1.3148
  186SLPC   H3Y21446   1.820   1.891  28.413 -1.7385 -1.1882  0.7922
  186SLPC   C3421447   1.611   1.934  28.419  1.3292  0.1372 -0.4896
  186SLPC   H4X21448   1.538   2.007  28.378  3.1067  2.1410 -0.2319
  186SLPC   H4Y21449   1.601   1.943  28.530 -2.5272 -1.6909 -0.5197
  186SLPC   C3521450   1.570   1.784  28.395  0.4686  0.2516 -0.3760
  186SLPC   H5X21451   1.643   1.728  28.457  0.7039  0.6901 -0.2481
  186SLPC   H5Y21452   1.585   1.760  28.288  0.2267  1.9810 -0.8323
  186SLPC   C3621453   1.419   1.770  28.419 -0.1021 -0.0092  0.3026
  186SLPC   H6X21454   1.365   1.855  28.372  0.8596  0.7774  0.5794
  186SLPC   H6Y21455   1.394   1.785  28.526  2.4865  0.9966  0.8502
  186SLPC   C3721456   1.359   1.630  28.368  0.2750 -0.0799  0.0277
  186SLPC   H7X21457   1.254   1.649  28.336 -0.0423  0.8607  1.5219
  186SLPC   H7Y21458   1.358   1.571  28.462  0.0585  2.4036  1.6636
  186SLPC   C3821459   1.439   1.552  28.267  0.5477  0.0179  0.1615
  186SLPC   H8X21460   1.531   1.510  28.313 -0.0673  0.0363  1.4338
  186SLPC   H8Y21461   1.463   1.625  28.187 -1.0016  1.7105  1.1672
  186SLPC   C3921462   1.361   1.427  28.205  0.2130  0.8145  0.4270
  186SLPC   H9X21463   1.425   1.369  28.135 -0.5192 -0.6866  0.9736
  186SLPC   H9Y21464   1.273   1.466  28.150 -0.7608  1.3866  2.3122
  186SLPC  C31021465   1.286   1.334  28.298  0.1474  0.6674 -0.1628
  186SLPC  H10X21466   1.205   1.386  28.353  1.4931  1.6435  0.9550
  186SLPC  H10Y21467   1.357   1.302  28.378  0.0949 -0.1121 -0.4158
  186SLPC  C31121468   1.238   1.202  28.236 -0.0730 -0.3051 -0.0453
  186SLPC  H11X21469   1.332   1.152  28.206  2.2358  2.0508  2.6028
  186SLPC  H11Y21470   1.170   1.214  28.149 -1.1027  0.8460  0.8839
  186SLPC  C31221471   1.168   1.097  28.324  0.8115 -0.4772  0.0227
  186SLPC  H12X21472   1.213   1.087  28.425 -0.8128 -1.7331  0.6675
  186SLPC  H12Y21473   1.180   0.999  28.273  1.6172  0.4345 -1.6321
  186SLPC  C31321474   1.014   1.114  28.343 -0.1913 -0.6287 -0.1982
  186SLPC  H13X21475   0.974   1.148  28.245  0.9577  0.9808 -0.1506
  186SLPC  H13Y21476   0.996   1.195  28.417  0.1309 -0.1818 -0.6038
  186SLPC  C31421477   0.945   0.993  28.400  0.0267 -0.1582 -0.1017
  186SLPC  H14X21478   0.972   0.903  28.341 -0.1198 -0.2532 -0.0259
  186SLPC  H14Y21479   0.835   1.005  28.386 -0.1278 -0.9354  0.3755
  186SLPC  C31521480   0.979   0.976  28.544 -0.4407  0.4671 -0.3037
  186SLPC  H15X21481   0.969   1.071  28.599  0.0107  0.2148  0.2253
  186SLPC  H15Y21482   1.087   0.954  28.556 -0.4609 -0.0953 -1.0415
  186SLPC  C31621483   0.890   0.871  28.616 -0.1967  0.0762 -0.2406
  186SLPC  H16X21484   0.912   0.774  28.565 -1.1970  0.0273 -0.6004
  186SLPC  H16Y21485   0.785   0.897  28.591  0.1693  0.5732 -1.2848
  186SLPC  C31721486   0.916   0.862  28.772  0.0821  0.4214  0.3254
  186SLPC  H17X21487   1.020   0.826  28.790  0.1464  0.1165 -0.6097
  186SLPC  H17Y21488   0.844   0.788  28.814  0.4153  0.2946  0.6823
  186SLPC  C31821489   0.897   0.997  28.848 -0.3635  0.4211  0.1729
  186SLPC  H18X21490   0.946   1.072  28.783  0.9151 -1.6708 -1.4359
  186SLPC  H18Y21491   0.946   0.989  28.947 -1.6682  2.0907  0.9993
  186SLPC  H18Z21492   0.790   1.020  28.864 -0.7343 -2.4926  2.7775
  187SLPC     N21493   3.332   3.079  29.848  0.0351 -0.2581 -0.2686
  187SLPC   C1321494   3.461   3.120  29.777 -0.1282 -0.6495  0.2363
  187SLPC  H13A21495   3.542   3.049  29.783  0.0391 -0.7961 -2.6126
  187SLPC  H13B21496   3.449   3.139  29.672  0.1038 -0.6718  0.2037
  187SLPC  H13C21497   3.491   3.216  29.815 -2.1356  0.7828 -1.5927
  187SLPC   C1421498   3.226   3.177  29.795 -0.9099  0.1402 -0.2263
  187SLPC  H14A21499   3.134   3.183  29.851 -0.6891 -0.2246  0.1781
  187SLPC  H14B21500   3.273   3.274  29.803 -0.5075 -0.1370  1.0651
  187SLPC  H14C21501   3.207   3.152  29.692  2.0091 -1.8156 -0.4064
  187SLPC   C1521502   3.349   3.093  29.994 -0.2623  0.6328  0.5518
  187SLPC  H15A21503   3.389   3.183  30.039 -0.4985 -0.4288  3.0206
  187SLPC  H15B21504   3.250   3.089  30.037 -1.4827  1.7225 -1.9279
  187SLPC  H15C21505   3.401   3.006  30.029 -1.9909  0.2823  2.4302
  187SLPC   C1221506   3.289   2.937  29.813 -0.4089  0.1168  0.1372
  187SLPC  H12A21507   3.283   2.924  29.706  0.5131  0.0778  0.0851
  187SLPC  H12B21508   3.197   2.918  29.867 -0.4197 -1.5063 -0.4143
  187SLPC   C1121509   3.384   2.828  29.854 -0.5130 -0.7514 -1.0194
  187SLPC  H11A21510   3.486   2.857  29.822 -0.3009 -2.4508 -1.9747
  187SLPC  H11B21511   3.362   2.734  29.801  0.6330  0.0807 -3.0673
  187SLPC     P21512   3.270   2.713  30.061  0.1489 -0.0662 -0.1795
  187SLPC   O1321513   3.147   2.787  30.079 -0.5151 -0.3578  0.2489
  187SLPC   O1421514   3.268   2.577  30.005 -0.0246  0.0903  0.1824
  187SLPC   O1221515   3.378   2.806  29.991  0.5931 -0.0537 -0.3436
  187SLPC   O1121516   3.339   2.699  30.204 -0.5140  0.0241 -0.3401
  187SLPC    C121517   3.377   2.819  30.276  0.7748  0.0272 -0.1106
  187SLPC    HA21518   3.393   2.902  30.204 -0.4687 -1.4582 -2.2232
  187SLPC    HB21519   3.293   2.841  30.346  0.7033 -1.2562  0.2258
  187SLPC    C221520   3.508   2.811  30.358 -0.3734 -0.2751 -0.0971
  187SLPC    HS21521   3.513   2.902  30.421 -0.1041 -1.3830  1.5409
  187SLPC   O2121522   3.624   2.790  30.276  0.6280  0.2624  0.1778
  187SLPC   C2121523   3.644   2.884  30.174  0.3221  0.3706  0.0163
  187SLPC   O2221524   3.600   2.998  30.170 -0.1433  0.5104  0.3818
  187SLPC   C2221525   3.729   2.823  30.063  0.0204 -0.0153  0.0003
  187SLPC   H2R21526   3.774   2.726  30.093  0.7572  0.4866  0.5664
  187SLPC   H2S21527   3.662   2.809  29.975 -0.4113  1.2970  0.0950
  187SLPC    C321528   3.511   2.689  30.453 -0.2357  0.0230  0.0140
  187SLPC    HX21529   3.614   2.680  30.493  0.4296 -0.3727 -1.7140
  187SLPC    HY21530   3.493   2.593  30.401 -0.6643 -1.3553  2.5890
  187SLPC   O3121531   3.408   2.698  30.553  0.0422 -0.4350 -0.5337
  187SLPC   C3121532   3.464   2.707  30.670  0.0729 -1.0076  0.5479
  187SLPC   O3221533   3.581   2.730  30.694 -0.7475 -0.7454 -0.4175
  187SLPC   C3221534   3.359   2.708  30.783 -0.2735 -0.0760  0.5735
  187SLPC   H2X21535   3.296   2.618  30.765  0.1983 -0.8709  2.6558
  187SLPC   H2Y21536   3.300   2.801  30.768  1.0840  0.7303  0.0439
  187SLPC   C2321537   3.859   2.905  30.039  0.0354 -0.1575 -0.1245
  187SLPC   H3R21538   3.835   3.012  30.019  0.7432 -0.4193 -2.8783
  187SLPC   H3S21539   3.911   2.880  29.944  1.6802 -0.6366  0.8627
  187SLPC   C2421540   3.965   2.886  30.149 -0.5169  0.0720 -0.5436
  187SLPC   H4R21541   3.987   2.778  30.160  1.9631  0.6797  1.2537
  187SLPC   H4S21542   3.925   2.910  30.249 -2.9474  0.4025 -1.5363
  187SLPC   C2521543   4.098   2.959  30.137 -0.2086 -0.1971 -0.1184
  187SLPC   H5R21544   4.158   2.978  30.228  0.6799  3.1538 -1.2449
  187SLPC   H5S21545   4.081   3.061  30.096  0.3652 -0.4420 -0.9987
  187SLPC   C2621546   4.186   2.880  30.038 -0.3503 -0.4774 -0.3156
  187SLPC   H6R21547   4.125   2.855  29.948 -0.0676 -0.8084 -0.4195
  187SLPC   H6S21548   4.223   2.785  30.082 -0.1117 -0.5343 -0.6328
  187SLPC   C2721549   4.310   2.955  30.007  0.2186  0.3313 -0.3396
  187SLPC   H7R21550   4.357   2.993  30.100 -1.9317  0.6845  0.6632
  187SLPC   H7S21551   4.272   3.053  29.970  0.1243 -0.4558 -2.4502
  187SLPC   C2821552   4.402   2.893  29.907  0.0511 -0.0418 -0.1419
  187SLPC   H8R21553   4.477   2.968  29.875  1.2743 -1.0966  0.2035
  187SLPC   H8S21554   4.349   2.860  29.815  1.0554 -2.4493  0.0692
  187SLPC   C2921555   4.470   2.769  29.954 -0.8624  0.4552 -0.7558
  187SLPC   H9R21556   4.411   2.714  30.028 -2.9694 -2.0342 -4.0086
  187SLPC  C21021557   4.592   2.732  29.917 -0.2059 -0.3799 -0.1025
  187SLPC  H10R21558   4.649   2.650  29.964  0.4443  0.7588  1.1504
  187SLPC  C21121559   4.683   2.815  29.831 -0.8402 -0.1488  0.5056
  187SLPC  H11R21560   4.786   2.779  29.851 -1.8695 -1.9134  3.1983
  187SLPC  H11S21561   4.683   2.920  29.866 -0.9091 -0.1599  0.5396
  187SLPC  C21221562   4.660   2.798  29.685  0.0691  0.1156  0.2611
  187SLPC  H12R21563   4.561   2.825  29.646  0.4582 -1.6610 -2.1998
  187SLPC  C21321564   4.747   2.741  29.589 -0.0247  0.3733 -0.5922
  187SLPC  H13R21565   4.725   2.747  29.482 -0.7128 -1.5738 -0.5938
  187SLPC  C21421566   4.878   2.672  29.614 -0.2574  0.5473  0.7687
  187SLPC  H14R21567   4.878   2.585  29.545 -2.2399  1.7956 -0.9528
  187SLPC  H14S21568   4.885   2.625  29.715 -0.9109  0.3439  0.7285
  187SLPC  C21521569   5.008   2.744  29.579  0.4037 -0.3916  0.1776
  187SLPC  H15R21570   5.084   2.662  29.579  0.4062 -0.4965  3.0441
  187SLPC  H15S21571   5.050   2.823  29.644 -1.4500  2.4827 -1.9171
  187SLPC  C21621572   5.019   2.807  29.437  0.0813 -0.4697 -0.4150
  187SLPC  H16R21573   4.945   2.890  29.435 -0.5654 -0.9484  1.4836
  187SLPC  H16S21574   4.979   2.737  29.360  0.0650  1.1240 -1.9149
  187SLPC  C21721575   5.160   2.852  29.399 -0.7327 -0.2998 -0.6876
  187SLPC  H17R21576   5.155   2.900  29.298  1.1972  0.7198 -0.3647
  187SLPC  H17S21577   5.228   2.767  29.375  1.0254  0.8700 -0.1167
  187SLPC  C21821578   5.216   2.964  29.483 -0.7147  0.4355 -0.2645
  187SLPC  H18R21579   5.308   3.015  29.448  0.4082 -0.3858  1.3713
  187SLPC  H18S21580   5.232   2.915  29.582 -0.0427 -1.5399 -1.3014
  187SLPC  H18T21581   5.141   3.044  29.504 -0.0201  0.6587  1.5093
  187SLPC   C3321582   3.417   2.716  30.925 -0.6000  0.8366 -0.4929
  187SLPC   H3X21583   3.497   2.792  30.939 -0.1697  0.2770  0.1614
  187SLPC   H3Y21584   3.473   2.625  30.955  0.7601  1.2445 -1.6631
  187SLPC   C3421585   3.305   2.745  31.024  0.9164  0.2945 -0.1985
  187SLPC   H4X21586   3.240   2.824  30.979  0.1540 -0.3327 -0.2046
  187SLPC   H4Y21587   3.346   2.759  31.126 -1.1016  0.5879  0.6282
  187SLPC   C3521588   3.201   2.634  31.044  0.5100 -0.4785  0.4264
  187SLPC   H5X21589   3.169   2.624  31.150 -2.0231 -1.2389 -0.3340
  187SLPC   H5Y21590   3.253   2.539  31.020  1.9930  0.6159 -0.9362
  187SLPC   C3621591   3.073   2.655  30.960  0.2524  0.3412  0.0415
  187SLPC   H6X21592   3.081   2.724  30.874 -0.9638  0.4112 -0.0303
  187SLPC   H6Y21593   3.005   2.711  31.027 -3.7683 -2.1551 -1.5173
  187SLPC   C3721594   2.998   2.522  30.933  0.3231  0.1708  0.0507
  187SLPC   H7X21595   3.053   2.452  30.867 -1.4326 -0.4074 -0.8463
  187SLPC   H7Y21596   2.969   2.476  31.030 -1.2595 -2.7546 -1.6790
  187SLPC   C3821597   2.863   2.554  30.864  0.1100  0.1924  0.0635
  187SLPC   H8X21598   2.882   2.600  30.765  3.2172  0.9396  0.8948
  187SLPC   H8Y21599   2.806   2.632  30.918  0.4724  0.6007 -0.1374
  187SLPC   C3921600   2.781   2.423  30.841 -0.5711 -0.3592 -0.5535
  187SLPC   H9X21601   2.770   2.366  30.935  1.5843  2.0044  1.2784
  187SLPC   H9Y21602   2.848   2.365  30.773  1.7434  0.4839  0.8872
  187SLPC  C31021603   2.651   2.431  30.768  0.0058  0.0667  0.1888
  187SLPC  H10X21604   2.617   2.335  30.725 -1.3389  0.8908 -0.6907
  187SLPC  H10Y21605   2.664   2.501  30.682  0.8797 -0.1530  0.1359
  187SLPC  C31121606   2.533   2.481  30.857 -0.3130 -0.3351  0.1017
  187SLPC  H11X21607   2.543   2.445  30.962  0.0305 -1.5331 -0.3212
  187SLPC  H11Y21608   2.453   2.419  30.811  0.6901 -1.7662  0.2090
  187SLPC  C31221609   2.505   2.632  30.851  0.0198 -0.4838 -0.2883
  187SLPC  H12X21610   2.599   2.692  30.847  0.8392 -1.4011  2.7871
  187SLPC  H12Y21611   2.436   2.656  30.934  0.7458 -1.1407  0.5258
  187SLPC  C31321612   2.418   2.668  30.729 -0.3584  0.5277 -0.4761
  187SLPC  H13X21613   2.333   2.598  30.712  0.4644 -1.0564  1.4995
  187SLPC  H13Y21614   2.477   2.637  30.641 -0.5944 -1.5899  0.0578
  187SLPC  C31421615   2.383   2.813  30.725 -0.3491 -0.3477  0.5589
  187SLPC  H14X21616   2.476   2.875  30.728 -1.1247  0.8466  0.4338
  187SLPC  H14Y21617   2.324   2.848  30.813 -0.2024  0.7376  0.2468
  187SLPC  C31521618   2.302   2.846  30.605  0.6176 -0.4239  0.1396
  187SLPC  H15X21619   2.348   2.799  30.515 -0.4450 -0.2725 -0.5108
  187SLPC  H15Y21620   2.301   2.956  30.589  0.5166 -0.3914  0.3682
  187SLPC  C31621621   2.156   2.810  30.639  0.7108  0.2737 -0.4392
  187SLPC  H16X21622   2.113   2.881  30.713 -2.5532 -0.1245 -1.7911
  187SLPC  H16Y21623   2.149   2.706  30.678 -0.0595  0.4757 -0.0343
  187SLPC  C31721624   2.055   2.821  30.516 -0.3336 -0.7501 -0.4470
  187SLPC  H17X21625   2.089   2.745  30.443  1.1711 -1.2536  0.7144
  187SLPC  H17Y21626   2.068   2.915  30.458  1.2794 -1.0127 -0.5509
  187SLPC  C31821627   1.911   2.809  30.549  0.4744  0.0648  0.0385
  187SLPC  H18X21628   1.871   2.867  30.634 -0.5496 -0.0463 -0.3430
  187SLPC  H18Y21629   1.878   2.704  30.565 -1.3540  0.7860  1.3799
  187SLPC  H18Z21630   1.852   2.843  30.461 -0.3415 -0.4803  0.3653
  188SLPC     N21631   2.777   2.210  22.919  0.0956  0.0905  0.1826
  188SLPC   C1321632   2.776   2.357  22.940  0.4350 -0.0179  0.1135
  188SLPC  H13A21633   2.845   2.407  22.874  3.0490 -1.8511  1.2685
  188SLPC  H13B21634   2.681   2.405  22.919  0.4586  0.1980  0.4735
  188SLPC  H13C21635   2.803   2.392  23.039  1.0714 -0.1044 -0.0262
  188SLPC   C1421636   2.678   2.136  23.012  0.4950 -0.6652  0.2485
  188SLPC  H14A21637   2.587   2.193  23.005  2.0093  1.8179 -0.5323
  188SLPC  H14B21638   2.670   2.034  22.978  0.1417 -1.0472  1.4547
  188SLPC  H14C21639   2.723   2.130  23.110 -1.2138 -2.4705  0.9781
  188SLPC   C1521640   2.916   2.162  22.931  0.6923  0.5959 -0.1632
  188SLPC  H15A21641   2.977   2.191  22.846  3.8727  0.9219  2.0621
  188SLPC  H15B21642   2.975   2.204  23.011  1.1720  0.5779 -0.5063
  188SLPC  H15C21643   2.911   2.054  22.923 -2.3490  0.7576 -2.4400
  188SLPC   C1221644   2.736   2.173  22.773  0.3621  0.1082 -0.8345
  188SLPC  H12A21645   2.744   2.066  22.756  1.9686  0.0353  0.2141
  188SLPC  H12B21646   2.804   2.223  22.706  1.2950 -0.0846 -0.0541
  188SLPC   C1121647   2.588   2.210  22.722  0.0813 -0.0862 -0.1406
  188SLPC  H11A21648   2.525   2.148  22.788  0.4001  0.1500  0.3955
  188SLPC  H11B21649   2.569   2.177  22.617 -3.0389 -0.7039  0.5319
  188SLPC     P21650   2.397   2.383  22.779  0.1146 -0.0801 -0.5874
  188SLPC   O1321651   2.395   2.531  22.792  0.3692  0.3272  0.2720
  188SLPC   O1421652   2.312   2.331  22.671 -0.3077  0.2451 -0.0757
  188SLPC   O1221653   2.554   2.345  22.754  0.4537 -0.5346 -0.6054
  188SLPC   O1121654   2.362   2.312  22.910 -0.1448  0.1087 -0.0666
  188SLPC    C121655   2.376   2.369  23.041 -0.4092  0.7945  0.4914
  188SLPC    HA21656   2.480   2.365  23.080 -0.8568  1.9138  1.8537
  188SLPC    HB21657   2.342   2.474  23.050  2.1300  1.9109 -1.4720
  188SLPC    C221658   2.291   2.292  23.153 -0.0711  0.1124  0.2469
  188SLPC    HS21659   2.305   2.340  23.252  0.8834 -0.1389  0.2448
  188SLPC   O2121660   2.351   2.161  23.166 -0.5230  0.1627  0.9340
  188SLPC   C2121661   2.317   2.097  23.267  0.3283  0.6537 -0.4665
  188SLPC   O2221662   2.257   2.135  23.364  0.1458  0.0549 -0.1725
  188SLPC   C2221663   2.342   1.947  23.237  0.1410 -0.8352 -0.2060
  188SLPC   H2R21664   2.309   1.913  23.137  2.7423 -3.8815 -0.1962
  188SLPC   H2S21665   2.453   1.937  23.232  0.1496 -1.5304  1.0711
  188SLPC    C321666   2.140   2.286  23.105  0.3469  0.0942 -0.2490
  188SLPC    HX21667   2.127   2.210  23.024 -1.5387  1.2299 -1.0987
  188SLPC    HY21668   2.100   2.382  23.065  0.5201  0.1771 -0.2248
  188SLPC   O3121669   2.064   2.242  23.225  0.3607  0.1000  0.7979
  188SLPC   C3121670   2.017   2.337  23.301 -0.4833 -0.4000 -0.7103
  188SLPC   O3221671   2.036   2.456  23.295 -0.0663  0.2809 -0.0513
  188SLPC   C3221672   1.957   2.273  23.426 -0.4818  0.1399  0.2022
  188SLPC   H2X21673   2.043   2.227  23.480 -1.5331  0.1692  1.9881
  188SLPC   H2Y21674   1.900   2.184  23.392 -0.5557  0.4901 -0.5907
  188SLPC   C2321675   2.288   1.850  23.347 -0.2921  1.2038  0.1857
  188SLPC   H3R21676   2.309   1.754  23.296  1.7381  2.6207 -1.8604
  188SLPC   H3S21677   2.179   1.860  23.363 -0.6359 -0.7495 -0.6923
  188SLPC   C2421678   2.377   1.847  23.474  0.6847  0.6495 -0.0478
  188SLPC   H4R21679   2.388   1.948  23.519 -2.0548  0.9740  0.0840
  188SLPC   H4S21680   2.475   1.805  23.444  1.3728 -0.2369  3.0853
  188SLPC   C2521681   2.314   1.759  23.581  0.3245 -0.2700  0.2885
  188SLPC   H5R21682   2.291   1.659  23.539 -3.6223  0.3321  0.6385
  188SLPC   H5S21683   2.212   1.795  23.607 -0.8309 -1.6673 -2.0196
  188SLPC   C2621684   2.401   1.748  23.707 -0.1134 -0.0120 -0.1225
  188SLPC   H6R21685   2.505   1.735  23.670 -0.3216 -0.5688 -0.5356
  188SLPC   H6S21686   2.368   1.658  23.765 -1.2191 -0.3632 -1.2548
  188SLPC   C2721687   2.375   1.862  23.807 -0.5598 -0.3983 -0.0766
  188SLPC   H7R21688   2.275   1.852  23.854  0.1605 -1.4331  1.3305
  188SLPC   H7S21689   2.399   1.961  23.763 -0.2888 -0.2960  0.2872
  188SLPC   C2821690   2.478   1.879  23.921 -0.1958 -0.6747 -0.6935
  188SLPC   H8R21691   2.464   1.982  23.960  0.3361 -1.4038  1.5690
  188SLPC   H8S21692   2.577   1.877  23.872  1.2237  1.4511  1.8436
  188SLPC   C2921693   2.469   1.778  24.034 -0.9250  0.1449 -0.5969
  188SLPC   H9R21694   2.509   1.678  24.009 -1.3759 -0.2857  0.3615
  188SLPC  C21021695   2.425   1.803  24.160 -0.4104  1.0434 -0.9118
  188SLPC  H10R21696   2.415   1.724  24.236 -1.8018  3.1681  1.2753
  188SLPC  C21121697   2.355   1.927  24.209 -1.4936 -0.2982 -0.0855
  188SLPC  H11R21698   2.277   1.954  24.135 -0.0120  2.3823 -0.7720
  188SLPC  H11S21699   2.418   2.018  24.215 -1.5852 -0.1807 -0.8521
  188SLPC  C21221700   2.279   1.908  24.344 -0.0498 -0.4755  0.0265
  188SLPC  H12R21701   2.182   1.855  24.343 -0.3666 -0.0813  2.9072
  188SLPC  C21321702   2.308   1.966  24.461  0.1124 -0.1561 -0.5224
  188SLPC  H13R21703   2.233   1.956  24.541  0.2883  0.8879 -0.2104
  188SLPC  C21421704   2.428   2.045  24.496  0.1751  0.7174  0.6642
  188SLPC  H14R21705   2.501   2.033  24.413 -0.8073 -0.9933 -0.0064
  188SLPC  H14S21706   2.484   2.003  24.583 -0.2168 -0.6238  0.2960
  188SLPC  C21521707   2.407   2.191  24.532  1.2691  0.4170 -0.1823
  188SLPC  H15R21708   2.352   2.228  24.443  0.6598 -3.3802 -1.5493
  188SLPC  H15S21709   2.508   2.236  24.540  1.2926  0.1535  1.2236
  188SLPC  C21621710   2.330   2.222  24.661  0.1567  0.0490 -0.4514
  188SLPC  H16R21711   2.352   2.142  24.735 -0.9840 -0.9269 -1.1297
  188SLPC  H16S21712   2.223   2.209  24.631 -0.3212  3.9089 -0.9024
  188SLPC  C21721713   2.362   2.361  24.715 -0.2790 -0.0562 -0.3259
  188SLPC  H17R21714   2.354   2.432  24.630 -0.4694  1.1041  0.6373
  188SLPC  H17S21715   2.468   2.370  24.748 -0.5959  2.6629  0.1394
  188SLPC  C21821716   2.266   2.395  24.831 -0.4353  0.5178 -0.4446
  188SLPC  H18R21717   2.168   2.362  24.790 -0.1720 -0.3820 -0.3723
  188SLPC  H18S21718   2.248   2.502  24.852  0.7035  1.2807 -2.9915
  188SLPC  H18T21719   2.285   2.332  24.921  2.4457  0.5654 -0.9311
  188SLPC   C3321720   1.877   2.371  23.507  0.7612  0.6184 -0.4517
  188SLPC   H3X21721   1.778   2.372  23.456  0.5664 -2.0466 -0.2791
  188SLPC   H3Y21722   1.936   2.464  23.506  2.5204 -0.4414  0.4304
  188SLPC   C3421723   1.874   2.341  23.660  0.0947  0.3505  0.1528
  188SLPC   H4X21724   1.978   2.347  23.700  0.1895  0.5499 -0.1180
  188SLPC   H4Y21725   1.842   2.237  23.683 -1.2641  1.3814  3.5944
  188SLPC   C3521726   1.791   2.448  23.739 -0.1310  0.2004  0.4692
  188SLPC   H5X21727   1.726   2.499  23.666  0.4001 -3.4656 -2.9233
  188SLPC   H5Y21728   1.840   2.527  23.800  1.0879  0.9720 -1.4492
  188SLPC   C3621729   1.684   2.393  23.839  0.4951 -0.5064 -0.6480
  188SLPC   H6X21730   1.737   2.346  23.925  0.5720  3.9193  2.0144
  188SLPC   H6Y21731   1.634   2.306  23.790  1.6462 -2.0037  0.7142
  188SLPC   C3721732   1.568   2.495  23.874  0.0750  0.2233  0.0812
  188SLPC   H7X21733   1.473   2.444  23.848  1.7389 -2.0976 -1.8994
  188SLPC   H7Y21734   1.577   2.580  23.803 -0.6528  0.0772 -0.1973
  188SLPC   C3821735   1.579   2.541  24.017 -0.2841 -0.3830  0.1898
  188SLPC   H8X21736   1.506   2.623  24.035 -1.0311 -1.2786  1.4711
  188SLPC   H8Y21737   1.679   2.588  24.027 -1.3137  1.6855  1.5534
  188SLPC   C3921738   1.562   2.426  24.111  1.0206 -0.0342  0.8143
  188SLPC   H9X21739   1.621   2.339  24.074 -0.3316 -0.5095 -0.3161
  188SLPC   H9Y21740   1.455   2.399  24.104  0.6700  1.5368 -0.2850
  188SLPC  C31021741   1.582   2.456  24.261  0.9156 -0.3333 -0.7090
  188SLPC  H10X21742   1.507   2.533  24.290  0.7410 -0.7698  0.0346
  188SLPC  H10Y21743   1.678   2.512  24.258 -0.7561  2.7360 -1.2584
  188SLPC  C31121744   1.562   2.337  24.353 -0.0268  0.0871  0.0031
  188SLPC  H11X21745   1.647   2.267  24.338  0.5797  0.7801  0.1724
  188SLPC  H11Y21746   1.468   2.280  24.335  0.5967 -1.4288  1.3434
  188SLPC  C31221747   1.559   2.374  24.501  0.0367 -0.3114  0.3898
  188SLPC  H12X21748   1.464   2.425  24.530 -0.1280  0.0446 -0.7252
  188SLPC  H12Y21749   1.642   2.442  24.531  0.4191 -1.0847  1.1253
  188SLPC  C31321750   1.570   2.244  24.573 -0.8758  1.1151  0.6456
  188SLPC  H13X21751   1.665   2.190  24.552 -0.8971  0.6788  1.6572
  188SLPC  H13Y21752   1.488   2.176  24.539  0.8042 -1.1011  0.7945
  188SLPC  C31421753   1.559   2.255  24.725  0.4023 -0.1649 -0.2733
  188SLPC  H14X21754   1.456   2.285  24.754  0.0666 -0.3820 -1.2173
  188SLPC  H14Y21755   1.638   2.320  24.768 -0.7184  0.1544  1.4114
  188SLPC  C31521756   1.574   2.105  24.782 -0.0953  0.0917 -0.1661
  188SLPC  H15X21757   1.673   2.069  24.748 -1.1271 -1.8311 -1.2918
  188SLPC  H15Y21758   1.499   2.035  24.740  1.6605 -2.1305  0.2552
  188SLPC  C31621759   1.572   2.106  24.935 -0.6284  0.0636 -0.2687
  188SLPC  H16X21760   1.483   2.153  24.982 -0.4772 -1.1326  1.2690
  188SLPC  H16Y21761   1.664   2.159  24.969 -0.2133 -0.7157 -0.1697
  188SLPC  C31721762   1.580   1.959  24.996  0.4859  0.0309  0.5380
  188SLPC  H17X21763   1.667   1.914  24.943  2.3301  2.6819  1.1020
  188SLPC  H17Y21764   1.488   1.907  24.964  0.5524  0.5001 -0.4785
  188SLPC  C31821765   1.600   1.958  25.144  0.2160 -0.2596  0.1628
  188SLPC  H18X21766   1.521   2.013  25.199  0.3334  0.7487 -0.6580
  188SLPC  H18Y21767   1.689   2.015  25.176 -2.4558  4.1210  0.6102
  188SLPC  H18Z21768   1.615   1.852  25.176  0.7262 -0.3089 -0.2230
  189SLPC     N21769   1.826   2.382  26.363 -0.7517  1.0158 -0.2645
  189SLPC   C1321770   1.896   2.501  26.424 -0.5395  0.5694 -0.9783
  189SLPC  H13A21771   1.970   2.537  26.354  0.8660 -2.2369 -1.0817
  189SLPC  H13B21772   1.825   2.582  26.421 -0.2212  0.8465 -0.9750
  189SLPC  H13C21773   1.953   2.475  26.512 -0.1986  3.7999 -0.1428
  189SLPC   C1421774   1.771   2.429  26.231 -0.9492 -0.2015 -0.7172
  189SLPC  H14A21775   1.697   2.503  26.257 -0.2995 -0.3510  1.8135
  189SLPC  H14B21776   1.848   2.470  26.168 -1.4914 -0.8040 -1.7918
  189SLPC  H14C21777   1.732   2.345  26.176 -1.5370  1.2239 -2.5768
  189SLPC   C1521778   1.703   2.346  26.444 -0.7702 -0.6877  0.2106
  189SLPC  H15A21779   1.732   2.312  26.543 -0.2503  0.2379  0.3910
  189SLPC  H15B21780   1.641   2.434  26.453  0.5477  0.1420  2.0382
  189SLPC  H15C21781   1.641   2.272  26.397 -1.5373  1.5600 -2.5822
  189SLPC   C1221782   1.922   2.272  26.340  0.2788  0.6109  0.7036
  189SLPC  H12A21783   1.853   2.189  26.332  2.6209 -1.3920  0.0456
  189SLPC  H12B21784   1.981   2.264  26.430  0.0659 -1.3473  0.7175
  189SLPC   C1121785   2.027   2.301  26.226  0.0601  0.1812  0.1576
  189SLPC  H11A21786   1.986   2.302  26.123 -0.1672 -0.4841  0.2389
  189SLPC  H11B21787   2.095   2.213  26.235 -0.0416  0.2774  2.3268
  189SLPC     P21788   2.244   2.431  26.175 -0.4907  0.1723  0.1464
  189SLPC   O1321789   2.289   2.569  26.180 -0.3498 -0.4167 -0.1159
  189SLPC   O1421790   2.337   2.335  26.234 -0.9090 -0.4557  0.2639
  189SLPC   O1221791   2.106   2.421  26.249  0.6853 -0.6546  0.1547
  189SLPC   O1121792   2.222   2.392  26.032 -0.6533  0.1950 -0.3555
  189SLPC    C121793   2.142   2.468  25.941 -0.1681  0.1322 -0.3585
  189SLPC    HA21794   2.072   2.405  25.881 -1.2498  0.5971  0.3712
  189SLPC    HB21795   2.072   2.535  25.996 -0.0599 -0.3630  0.3984
  189SLPC    C221796   2.226   2.542  25.836  0.0438  0.0499 -0.2439
  189SLPC    HS21797   2.166   2.627  25.798  0.0425  0.7140  1.1393
  189SLPC   O2121798   2.268   2.450  25.735  0.6646 -0.9967 -0.5534
  189SLPC   C2121799   2.168   2.398  25.670  0.1406 -0.6311  0.4212
  189SLPC   O2221800   2.051   2.430  25.663 -0.0677 -0.5801 -0.0435
  189SLPC   C2221801   2.231   2.284  25.584  0.2739 -0.5724  0.1338
  189SLPC   H2R21802   2.338   2.303  25.560  0.7858 -2.6108  0.5917
  189SLPC   H2S21803   2.218   2.195  25.650 -0.7788 -0.6275 -0.1339
  189SLPC    C321804   2.352   2.619  25.892  0.0380  0.7023  0.6173
  189SLPC    HX21805   2.409   2.552  25.959 -0.2714  2.7132  3.0427
  189SLPC    HY21806   2.319   2.700  25.961 -0.3332 -0.8848  2.3717
  189SLPC   O3121807   2.443   2.667  25.791 -0.2294 -0.1478 -0.0216
  189SLPC   C3121808   2.578   2.671  25.827 -0.6766  0.4054 -0.1167
  189SLPC   O3221809   2.614   2.666  25.944 -0.1049  0.3422  0.6689
  189SLPC   C3221810   2.672   2.689  25.710  0.3634 -0.4795 -0.4053
  189SLPC   H2X21811   2.669   2.795  25.677  1.6481  0.4882  2.3227
  189SLPC   H2Y21812   2.631   2.630  25.625 -0.4809 -0.6524  0.1166
  189SLPC   C2321813   2.154   2.245  25.458 -0.0691  0.4068 -0.7174
  189SLPC   H3R21814   2.048   2.253  25.489  0.1573 -0.4459  0.3226
  189SLPC   H3S21815   2.155   2.142  25.417 -0.1626  0.0184  0.2373
  189SLPC   C2421816   2.155   2.343  25.341 -0.3365  0.0531 -0.5914
  189SLPC   H4R21817   2.164   2.449  25.373  4.0228 -0.0514 -0.9339
  189SLPC   H4S21818   2.056   2.335  25.291 -0.9682 -1.9951  0.8701
  189SLPC   C2521819   2.267   2.307  25.231 -0.0168  0.2690  0.1444
  189SLPC   H5R21820   2.260   2.393  25.162 -0.2826  0.1634  0.0370
  189SLPC   H5S21821   2.233   2.217  25.176  0.4902  0.4491 -0.4653
  189SLPC   C2621822   2.405   2.295  25.285  0.5621  0.1478 -0.4471
  189SLPC   H6R21823   2.396   2.211  25.358 -0.9640 -2.2059 -3.1179
  189SLPC   H6S21824   2.429   2.393  25.332  0.1882 -0.4657  1.0987
  189SLPC   C2721825   2.501   2.259  25.179  0.5744 -0.0326  0.5755
  189SLPC   H7R21826   2.508   2.338  25.102 -1.0302 -0.2871  0.1342
  189SLPC   H7S21827   2.465   2.163  25.135 -1.9163  0.3921  1.4947
  189SLPC   C2821828   2.636   2.252  25.245 -0.4557 -0.0196  0.9519
  189SLPC   H8R21829   2.642   2.184  25.332 -0.7710  0.6062  1.4672
  189SLPC   H8S21830   2.656   2.347  25.298  2.3124 -0.2866  0.5324
  189SLPC   C2921831   2.752   2.219  25.148 -0.3715  0.1736 -0.9501
  189SLPC   H9R21832   2.777   2.112  25.145  0.5644  0.4015 -1.8684
  189SLPC  C21021833   2.826   2.301  25.073  0.7763  0.0903  0.2008
  189SLPC  H10R21834   2.909   2.266  25.011  0.5744 -1.0105  0.5323
  189SLPC  C21121835   2.798   2.446  25.070 -0.1854 -0.5754  0.3882
  189SLPC  H11R21836   2.801   2.489  25.173 -2.3299  0.3549  0.1159
  189SLPC  H11S21837   2.690   2.451  25.044  0.0430  0.8063 -0.4286
  189SLPC  C21221838   2.873   2.539  24.982 -0.1922  0.4829 -0.4842
  189SLPC  H12R21839   2.982   2.545  25.000 -0.1477 -0.4162 -0.3942
  189SLPC  C21321840   2.812   2.629  24.904 -1.1130 -0.6864 -0.2932
  189SLPC  H13R21841   2.875   2.695  24.842 -0.3039 -0.2839  0.9248
  189SLPC  C21421842   2.663   2.656  24.879  0.3858 -0.4797  0.7986
  189SLPC  H14R21843   2.643   2.744  24.944  0.4995 -0.4718  0.8225
  189SLPC  H14S21844   2.607   2.569  24.917  0.0996 -0.7725 -0.2786
  189SLPC  C21521845   2.648   2.681  24.728 -0.1113  0.0681 -0.1055
  189SLPC  H15R21846   2.694   2.598  24.670  1.9707  1.0623  0.0324
  189SLPC  H15S21847   2.711   2.769  24.707  0.3741 -0.5420 -1.3063
  189SLPC  C21621848   2.501   2.699  24.690 -0.0761 -0.0402  0.3649
  189SLPC  H16R21849   2.435   2.625  24.740 -0.3900 -1.3280 -1.8023
  189SLPC  H16S21850   2.505   2.674  24.581 -0.1494 -1.4570  0.6694
  189SLPC  C21721851   2.452   2.846  24.721  0.4042  0.4207  0.8661
  189SLPC  H17R21852   2.479   2.873  24.825  1.5167  1.7907  0.2531
  189SLPC  H17S21853   2.342   2.829  24.724  0.8612 -4.0482 -0.8242
  189SLPC  C21821854   2.494   2.954  24.626 -0.4671  0.1643  0.3056
  189SLPC  H18R21855   2.424   3.040  24.637  0.4111  0.8284  0.8227
  189SLPC  H18S21856   2.489   2.926  24.518  0.7937  0.8493  0.0486
  189SLPC  H18T21857   2.590   3.007  24.645 -0.5916 -0.0342  1.5785
  189SLPC   C3321858   2.816   2.653  25.756 -0.1901 -0.0817 -0.1081
  189SLPC   H3X21859   2.813   2.545  25.783 -0.3118 -0.1921 -0.5550
  189SLPC   H3Y21860   2.842   2.712  25.846 -0.8245  1.2069 -0.7296
  189SLPC   C3421861   2.906   2.675  25.639 -0.5469 -0.6526  0.8566
  189SLPC   H4X21862   2.897   2.775  25.591  4.0197 -0.0422  0.8028
  189SLPC   H4Y21863   2.876   2.614  25.552  0.8035  1.6135 -1.3271
  189SLPC   C3521864   3.047   2.662  25.678 -0.5170 -1.3112  0.1092
  189SLPC   H5X21865   3.047   2.649  25.788 -0.5392 -1.4705  0.0921
  189SLPC   H5Y21866   3.095   2.763  25.675 -4.9389  1.0104  0.1503
  189SLPC   C3621867   3.118   2.554  25.598 -0.6751 -0.1407 -0.5639
  189SLPC   H6X21868   3.059   2.460  25.604  2.2089 -2.1672 -1.4981
  189SLPC   H6Y21869   3.219   2.536  25.640 -1.3117  1.3174  1.7335
  189SLPC   C3721870   3.147   2.591  25.445 -0.1345 -0.5720  0.3364
  189SLPC   H7X21871   3.046   2.614  25.404 -0.2142 -1.3489  0.0822
  189SLPC   H7Y21872   3.196   2.507  25.392  2.7018  0.2111  1.5441
  189SLPC   C3821873   3.244   2.709  25.417  0.1203 -0.0805 -0.1342
  189SLPC   H8X21874   3.342   2.680  25.460  0.1479 -1.6681 -1.1771
  189SLPC   H8Y21875   3.205   2.794  25.478  0.5471  0.3302 -0.4290
  189SLPC   C3921876   3.250   2.753  25.272 -0.1272 -0.1031  0.4491
  189SLPC   H9X21877   3.306   2.676  25.215  0.3211  0.5603 -0.0260
  189SLPC   H9Y21878   3.315   2.844  25.276 -0.9144  0.4428  3.0687
  189SLPC  C31021879   3.124   2.812  25.196  0.2072  0.6094  0.0614
  189SLPC  H10X21880   3.056   2.851  25.275  0.6120  1.3547  0.0610
  189SLPC  H10Y21881   3.061   2.731  25.153  1.4733  0.3306 -1.3238
  189SLPC  C31121882   3.156   2.904  25.085 -0.3151 -0.6012 -0.3243
  189SLPC  H11X21883   3.063   2.927  25.029 -0.7325 -0.4161  0.4389
  189SLPC  H11Y21884   3.226   2.845  25.021 -0.4755 -1.5933  0.3983
  189SLPC  C31221885   3.211   3.049  25.122 -0.6661 -0.2819 -0.2130
  189SLPC  H12X21886   3.305   3.029  25.178  0.0434 -1.2275 -1.6839
  189SLPC  H12Y21887   3.135   3.099  25.186 -1.0668 -0.0609 -0.8512
  189SLPC  C31321888   3.252   3.153  25.008  0.4030 -0.5658 -0.0804
  189SLPC  H13X21889   3.302   3.234  25.065  0.7371 -1.3049  0.7157
  189SLPC  H13Y21890   3.163   3.195  24.958 -0.0944  0.2413  1.4424
  189SLPC  C31421891   3.342   3.093  24.888 -0.1616 -0.2169 -0.4289
  189SLPC  H14X21892   3.335   3.169  24.808  1.4113  0.3617 -0.0492
  189SLPC  H14Y21893   3.299   2.997  24.851  1.1863  0.0249 -2.7525
  189SLPC  C31521894   3.490   3.063  24.912 -0.0436  0.5865 -0.5648
  189SLPC  H15X21895   3.498   2.998  25.002 -2.3657  1.5882  0.4647
  189SLPC  H15Y21896   3.530   3.163  24.938  0.0239  0.2443  0.7001
  189SLPC  C31621897   3.543   3.016  24.779  0.0123  0.0749  0.0604
  189SLPC  H16X21898   3.497   3.082  24.702 -1.5786  0.1168  1.0129
  189SLPC  H16Y21899   3.500   2.915  24.768  1.1913 -0.4979  0.5627
  189SLPC  C31721900   3.691   3.021  24.767  0.2195 -0.2681 -1.0616
  189SLPC  H17X21901   3.735   3.122  24.754  1.0992 -0.0847  2.3372
  189SLPC  H17Y21902   3.718   2.963  24.676 -0.7308  0.0125 -1.5361
  189SLPC  C31821903   3.765   2.945  24.881 -0.1448  0.6832  0.6591
  189SLPC  H18X21904   3.744   2.838  24.864 -3.7563  1.4317 -0.5212
  189SLPC  H18Y21905   3.733   2.974  24.983 -2.3091  0.0555  0.2032
  189SLPC  H18Z21906   3.875   2.959  24.872 -0.2894  0.7265 -1.8421
  190SLPC     N21907   2.740   2.804  22.294 -0.0225  0.2224 -0.0869
  190SLPC   C1321908   2.621   2.878  22.246 -0.5006 -0.1481  0.1775
  190SLPC  H13A21909   2.662   2.975  22.222  0.4808 -0.3550  0.9308
  190SLPC  H13B21910   2.572   2.836  22.160 -2.0357  1.8545 -0.0067
  190SLPC  H13C21911   2.550   2.888  22.327  0.8050  2.6822  1.1022
  190SLPC   C1421912   2.829   2.785  22.178 -0.3136 -0.7021  0.4131
  190SLPC  H14A21913   2.924   2.739  22.202 -1.4970 -2.5327  1.9164
  190SLPC  H14B21914   2.778   2.716  22.112 -1.8109  0.5630  0.1972
  190SLPC  H14C21915   2.862   2.876  22.130  2.8283 -2.3757 -0.8758
  190SLPC   C1521916   2.698   2.669  22.343 -0.0046 -0.4368 -0.2174
  190SLPC  H15A21917   2.616   2.678  22.412  1.7077 -1.3768  2.0749
  190SLPC  H15B21918   2.655   2.602  22.269 -0.2688  0.3758 -0.8138
  190SLPC  H15C21919   2.781   2.628  22.398 -1.0138  1.1460  2.6530
  190SLPC   C1221920   2.816   2.881  22.397  0.2560  0.0792  0.3823
  190SLPC  H12A21921   2.844   2.975  22.355 -2.5739  0.0940 -1.7520
  190SLPC  H12B21922   2.912   2.834  22.413 -0.2764 -0.9324  0.7148
  190SLPC   C1121923   2.747   2.914  22.537  0.3239  0.2562  0.7627
  190SLPC  H11A21924   2.824   2.968  22.596  0.2658  2.7044 -1.2335
  190SLPC  H11B21925   2.702   2.825  22.586 -0.4309 -0.1235 -0.5668
  190SLPC     P21926   2.669   3.157  22.488 -0.2485  0.2091  0.1293
  190SLPC   O1321927   2.794   3.167  22.404 -0.1448  0.0484 -0.4999
  190SLPC   O1421928   2.549   3.209  22.428 -0.3876 -0.8111 -0.5352
  190SLPC   O1221929   2.635   3.004  22.511  0.0007 -0.4440  0.4967
  190SLPC   O1121930   2.696   3.230  22.630 -0.0297  0.5465 -0.3150
  190SLPC    C121931   2.592   3.218  22.730 -0.4795 -0.2020 -0.1488
  190SLPC    HA21932   2.522   3.303  22.714 -0.8664 -0.5745 -0.4721
  190SLPC    HB21933   2.535   3.123  22.722  0.7373 -1.0786  1.1351
  190SLPC    C221934   2.655   3.242  22.874 -0.7743  0.5559 -0.0188
  190SLPC    HS21935   2.573   3.209  22.942 -1.1109  2.0400  0.3206
  190SLPC   O2121936   2.683   3.380  22.890 -0.3557  0.1215 -0.1453
  190SLPC   C2121937   2.645   3.430  23.001 -0.8888 -0.5086  0.2859
  190SLPC   O2221938   2.599   3.371  23.098 -0.2989  0.6741  0.6705
  190SLPC   C2221939   2.678   3.581  22.992 -0.6850  1.2479  0.2985
  190SLPC   H2R21940   2.785   3.583  22.961 -0.4599  0.9482  1.0337
  190SLPC   H2S21941   2.613   3.628  22.916  0.0926  4.2449  1.3640
  190SLPC    C321942   2.786   3.157  22.901  0.2245  0.3529  0.3611
  190SLPC    HX21943   2.863   3.216  22.845 -0.4051  1.4005  0.5737
  190SLPC    HY21944   2.773   3.056  22.857  0.6357 -0.1641  1.3999
  190SLPC   O3121945   2.824   3.139  23.038 -0.4602  0.4060  0.1902
  190SLPC   C3121946   2.901   3.220  23.102  0.3000  0.5663  0.0754
  190SLPC   O3221947   2.956   3.315  23.057 -0.0772  0.1148  0.2329
  190SLPC   C3221948   2.908   3.182  23.253 -0.2893 -0.1180 -0.6415
  190SLPC   H2X21949   2.929   3.074  23.263  0.0752  0.0042 -0.0263
  190SLPC   H2Y21950   2.812   3.202  23.304 -0.3285  0.7661 -1.0285
  190SLPC   C2321951   2.670   3.654  23.125 -0.1854  0.1964 -0.3927
  190SLPC   H3R21952   2.736   3.743  23.113 -1.0469  0.9612  0.4117
  190SLPC   H3S21953   2.728   3.594  23.198 -0.9328 -0.4216 -0.2850
  190SLPC   C2421954   2.537   3.687  23.173  0.4187  0.2043 -0.5941
  190SLPC   H4R21955   2.472   3.598  23.185  1.4513 -0.4703  0.1574
  190SLPC   H4S21956   2.482   3.748  23.098 -1.0278 -1.1885 -0.7362
  190SLPC   C2521957   2.546   3.763  23.312  0.6964 -0.4916  0.0107
  190SLPC   H5R21958   2.593   3.861  23.291 -3.3653  1.3352 -1.4313
  190SLPC   H5S21959   2.600   3.692  23.379 -2.3123 -2.0049  0.9809
  190SLPC   C2621960   2.402   3.784  23.362  0.1098  0.1982  0.5787
  190SLPC   H6R21961   2.342   3.690  23.363 -3.2138  2.0649 -1.5668
  190SLPC   H6S21962   2.358   3.854  23.288  2.9282  1.5941  0.1032
  190SLPC   C2721963   2.392   3.861  23.501 -0.5600 -0.1861  0.2393
  190SLPC   H7R21964   2.290   3.904  23.516 -0.4179  0.3051 -0.1533
  190SLPC   H7S21965   2.449   3.955  23.483 -1.4442  0.2306 -0.5141
  190SLPC   C2821966   2.451   3.785  23.623 -0.1946  0.2807  0.0024
  190SLPC   H8R21967   2.544   3.734  23.588 -0.1790  0.8833 -0.8504
  190SLPC   H8S21968   2.390   3.702  23.666  0.5151 -0.6834 -0.7834
  190SLPC   C2921969   2.460   3.880  23.737 -0.6198 -0.4865  0.0896
  190SLPC   H9R21970   2.372   3.926  23.783 -0.4347 -1.6743  1.7222
  190SLPC  C21021971   2.583   3.927  23.772 -0.3266 -0.4853 -0.3222
  190SLPC  H10R21972   2.596   4.012  23.840  1.1759 -1.2733  0.4338
  190SLPC  C21121973   2.711   3.882  23.710 -0.2103 -0.4319  0.0336
  190SLPC  H11R21974   2.784   3.962  23.734 -1.2177 -0.0255  1.9381
  190SLPC  H11S21975   2.721   3.879  23.599 -0.3080  1.3690 -0.0533
  190SLPC  C21221976   2.759   3.758  23.780 -0.2799 -0.9876 -0.8818
  190SLPC  H12R21977   2.678   3.719  23.843 -2.1893  3.4366 -0.2093
  190SLPC  C21321978   2.885   3.724  23.802  0.2648  0.5234  0.3774
  190SLPC  H13R21979   2.904   3.640  23.870  1.6772 -0.6407 -1.3629
  190SLPC  C21421980   3.003   3.797  23.742  0.2335 -0.8025 -0.0718
  190SLPC  H14R21981   3.058   3.858  23.817  2.1914 -0.2236 -1.8788
  190SLPC  H14S21982   2.980   3.856  23.651 -0.6726 -1.0815 -0.0353
  190SLPC  C21521983   3.115   3.702  23.693 -0.2217  0.7252 -0.4570
  190SLPC  H15R21984   3.074   3.621  23.629  0.5698  0.4118 -0.5848
  190SLPC  H15S21985   3.167   3.659  23.782 -0.0670  1.5941 -0.1188
  190SLPC  C21621986   3.228   3.783  23.626 -0.2503 -0.0222 -0.0356
  190SLPC  H16R21987   3.254   3.870  23.690  0.5532  1.6977 -2.5362
  190SLPC  H16S21988   3.180   3.818  23.532  1.0945 -1.0694 -1.1628
  190SLPC  C21721989   3.339   3.690  23.580  0.0353  0.2212 -0.3184
  190SLPC  H17R21990   3.290   3.624  23.506 -2.0091  0.5008  0.7016
  190SLPC  H17S21991   3.380   3.619  23.655  0.1266 -1.3274 -1.7702
  190SLPC  C21821992   3.459   3.755  23.521 -0.0018 -0.5490  0.0059
  190SLPC  H18R21993   3.504   3.835  23.585  1.1829 -0.3085 -1.0696
  190SLPC  H18S21994   3.424   3.801  23.426 -0.4964 -3.2717 -1.2036
  190SLPC  H18T21995   3.541   3.683  23.497 -0.5277 -2.2013  2.8176
  190SLPC   C3321996   3.007   3.275  23.332  0.4084  0.1057 -0.5096
  190SLPC   H3X21997   2.968   3.379  23.324 -1.8288 -0.2767  3.2185
  190SLPC   H3Y21998   3.106   3.280  23.281 -0.2335 -0.6809 -1.8955
  190SLPC   C3421999   3.001   3.232  23.474 -0.4111  0.8745 -0.6338
  190SLPC   H4X22000   3.033   3.127  23.489 -0.9304  0.2960 -3.2128
  190SLPC   H4Y22001   2.897   3.247  23.509 -0.2795 -1.1410  0.8340
  190SLPC   C3522002   3.098   3.312  23.567 -0.4324  0.2901  0.0129
  190SLPC   H5X22003   3.092   3.422  23.551 -2.4356  0.6542  2.6223
  190SLPC   H5Y22004   3.199   3.269  23.550 -0.2639  0.5645  0.3150
  190SLPC   C3622005   3.046   3.291  23.712 -0.4811  0.1503  0.6543
  190SLPC   H6X22006   3.042   3.184  23.742  1.0431  0.1017  0.7707
  190SLPC   H6Y22007   2.947   3.340  23.721 -1.7805 -2.2845  0.3968
  190SLPC   C3722008   3.137   3.351  23.813 -0.0832 -0.1607  0.8237
  190SLPC   H7X22009   3.153   3.458  23.789 -0.8826 -0.1999  0.0758
  190SLPC   H7Y22010   3.240   3.311  23.803  0.6379  1.5166  1.1925
  190SLPC   C3822011   3.089   3.320  23.964 -0.0767 -0.3664 -0.2402
  190SLPC   H8X22012   3.081   3.212  23.985 -0.7870 -0.0423  1.3141
  190SLPC   H8Y22013   2.985   3.359  23.971  1.1659  3.3803 -0.0846
  190SLPC   C3922014   3.177   3.386  24.069 -0.3260  1.0520 -0.0811
  190SLPC   H9X22015   3.214   3.490  24.058  2.1087  0.3062  0.4881
  190SLPC   H9Y22016   3.277   3.336  24.076  0.2740  1.8470 -2.1290
  190SLPC  C31022017   3.126   3.362  24.220 -0.6854 -0.6141  0.6616
  190SLPC  H10X22018   3.215   3.386  24.281  0.2645 -2.6599  0.1657
  190SLPC  H10Y22019   3.094   3.256  24.227 -2.3165 -0.0943  1.7450
  190SLPC  C31122020   3.002   3.447  24.252 -0.0870  0.1404 -0.1726
  190SLPC  H11X22021   2.988   3.433  24.361  0.8969 -1.0501 -0.1734
  190SLPC  H11Y22022   2.912   3.405  24.202 -0.3686  0.5015  0.0327
  190SLPC  C31222023   3.011   3.593  24.231  0.1381 -0.2322 -0.5379
  190SLPC  H12X22024   3.065   3.616  24.137  0.3271  0.6126 -0.2284
  190SLPC  H12Y22025   3.067   3.645  24.312 -2.4992  1.6290  0.2478
  190SLPC  C31322026   2.872   3.657  24.219  0.2029 -0.4219  0.1499
  190SLPC  H13X22027   2.816   3.644  24.314  0.9576  0.5675  0.7370
  190SLPC  H13Y22028   2.814   3.604  24.140  0.0706 -1.8918  1.1899
  190SLPC  C31422029   2.872   3.804  24.177 -0.2585 -0.2497 -0.2598
  190SLPC  H14X22030   2.937   3.836  24.092  0.0406 -1.3505 -0.4744
  190SLPC  H14Y22031   2.904   3.865  24.264 -0.8184 -2.4222  1.5744
  190SLPC  C31522032   2.732   3.861  24.144  0.4260 -0.3897  0.0553
  190SLPC  H15X22033   2.699   3.797  24.058  2.4643 -0.5183 -0.6906
  190SLPC  H15Y22034   2.742   3.959  24.093  0.6619  0.1079  1.0561
  190SLPC  C31622035   2.641   3.871  24.265  0.0377 -0.2486 -0.6429
  190SLPC  H16X22036   2.654   3.972  24.307 -0.8810 -1.0220  1.6624
  190SLPC  H16Y22037   2.678   3.794  24.336  2.5005  0.5224 -1.0108
  190SLPC  C31722038   2.493   3.866  24.237 -0.4511  0.1548  1.0831
  190SLPC  H17X22039   2.427   3.899  24.321  0.2873 -0.1889  1.8164
  190SLPC  H17Y22040   2.457   3.762  24.222  0.6516 -0.2442  1.1478
  190SLPC  C31822041   2.458   3.959  24.118 -0.3960  0.2157  0.5348
  190SLPC  H18X22042   2.505   3.929  24.022  0.1730 -1.2896  1.2631
  190SLPC  H18Y22043   2.482   4.063  24.148 -0.9627  0.4950  0.0420
  190SLPC  H18Z22044   2.349   3.955  24.096  0.0160 -0.9720 -1.5272
  191SLPC     N22045   2.602   0.287  22.302 -0.0228  0.0698 -0.0824
  191SLPC   C1322046   2.586   0.240  22.164  0.5561  0.4225  0.5448
  191SLPC  H13A22047   2.555   0.137  22.154 -0.0157  0.5956  0.4949
  191SLPC  H13B22048   2.512   0.302  22.116 -1.9040 -1.3600  1.8260
  191SLPC  H13C22049   2.680   0.244  22.110  0.4387 -1.3801  0.1367
  191SLPC   C1422050   2.640   0.430  22.279 -0.1077 -0.5327 -0.4863
  191SLPC  H14A22051   2.552   0.487  22.253 -0.3255 -0.1563  0.9749
  191SLPC  H14B22052   2.681   0.477  22.367 -1.0039 -0.3656 -0.1471
  191SLPC  H14C22053   2.714   0.442  22.201 -0.6819  0.4379 -0.9040
  191SLPC   C1522054   2.716   0.208  22.366  0.5628 -0.1187  0.1612
  191SLPC  H15A22055   2.814   0.234  22.327 -0.0471 -0.2546 -1.5105
  191SLPC  H15B22056   2.718   0.237  22.470  0.7154 -0.0141  0.1295
  191SLPC  H15C22057   2.699   0.101  22.365 -2.0871  0.2386 -1.2686
  191SLPC   C1222058   2.477   0.281  22.380  0.3336 -0.0405  0.5684
  191SLPC  H12A22059   2.486   0.331  22.475  0.5429  0.5884  0.2227
  191SLPC  H12B22060   2.459   0.175  22.394  0.0479 -0.1391 -0.4325
  191SLPC   C1122061   2.358   0.339  22.305  0.0172  0.3949  0.2547
  191SLPC  H11A22062   2.334   0.272  22.220 -0.5752  0.6727  0.2044
  191SLPC  H11B22063   2.366   0.439  22.258 -0.6909  0.7386  0.8457
  191SLPC     P22064   2.247   0.448  22.516 -0.4057  0.3934  0.0226
  191SLPC   O1322065   2.385   0.495  22.544  0.0018  0.2839 -0.1329
  191SLPC   O1422066   2.144   0.533  22.456 -0.0518 -0.7295 -0.5025
  191SLPC   O1222067   2.257   0.332  22.404  0.5301  0.4442 -0.4310
  191SLPC   O1122068   2.186   0.357  22.626 -0.4902  0.3282 -0.0691
  191SLPC    C122069   2.239   0.234  22.671 -0.1132 -0.2875  0.1669
  191SLPC    HA22070   2.159   0.157  22.668 -2.0328  1.6246  0.3927
  191SLPC    HB22071   2.324   0.201  22.607 -0.0642 -0.6631  0.4186
  191SLPC    C222072   2.288   0.249  22.813 -0.1528  0.8356  0.4513
  191SLPC    HS22073   2.201   0.260  22.882  0.6099 -0.1681  1.6250
  191SLPC   O2122074   2.379   0.361  22.835  0.2855  0.8455  0.0897
  191SLPC   C2122075   2.326   0.471  22.888 -0.5364 -0.4539  0.1219
  191SLPC   O2222076   2.208   0.480  22.923  0.1556  0.3171 -0.3656
  191SLPC   C2222077   2.430   0.586  22.890  0.7106  0.4797 -0.3651
  191SLPC   H2R22078   2.530   0.551  22.922  1.9107  0.9631 -3.2405
  191SLPC   H2S22079   2.428   0.630  22.788 -2.5264 -0.7079 -0.9273
  191SLPC    C322080   2.348   0.115  22.854 -0.3226 -0.4285 -0.3632
  191SLPC    HX22081   2.410   0.133  22.944  1.3372  0.2004 -1.5819
  191SLPC    HY22082   2.412   0.075  22.772  0.4982  1.1299 -0.5149
  191SLPC   O3122083   2.244   0.016  22.882 -0.0953  0.2426 -0.7577
  191SLPC   C3122084   2.180   0.029  22.996 -1.2684  0.1740 -0.9039
  191SLPC   O3222085   2.217   0.104  23.088 -0.6694 -0.0397 -0.1573
  191SLPC   C3222086   2.053  -0.053  22.975  0.0848 -0.4257  0.5519
  191SLPC   H2X22087   2.080  -0.139  22.911 -0.1826 -0.2382  0.1826
  191SLPC   H2Y22088   1.997   0.015  22.907  0.6826 -0.5999 -0.1247
  191SLPC   C2322089   2.393   0.702  22.993  0.0517  0.7014 -0.1452
  191SLPC   H3R22090   2.286   0.730  22.988 -0.2275 -0.5107 -1.6514
  191SLPC   H3S22091   2.439   0.797  22.959  2.5854 -0.0351  0.9224
  191SLPC   C2422092   2.449   0.665  23.129 -0.0337 -0.3639 -0.1480
  191SLPC   H4R22093   2.538   0.600  23.125 -0.2231 -0.5824 -2.7006
  191SLPC   H4S22094   2.369   0.618  23.190  0.7467  1.4688  2.4247
  191SLPC   C2522095   2.479   0.788  23.215  0.0818 -0.1657  0.4245
  191SLPC   H5R22096   2.399   0.864  23.221 -2.0011 -2.2022 -0.1204
  191SLPC   H5S22097   2.560   0.841  23.159 -1.2117 -0.4869 -1.8996
  191SLPC   C2622098   2.531   0.747  23.359 -0.1257  0.1363  0.4169
  191SLPC   H6R22099   2.612   0.671  23.349  0.3564  0.5973  0.7969
  191SLPC   H6S22100   2.441   0.700  23.405 -1.6579  1.4184 -1.1141
  191SLPC   C2722101   2.563   0.867  23.447  0.3195  0.2677 -0.1874
  191SLPC   H7R22102   2.480   0.940  23.434  1.1765  1.2150 -0.4890
  191SLPC   H7S22103   2.660   0.908  23.411  0.7801  0.7165  1.5059
  191SLPC   C2822104   2.581   0.841  23.594 -0.2254 -0.2272 -0.1548
  191SLPC   H8R22105   2.497   0.777  23.630  0.4067 -1.3066 -0.5407
  191SLPC   H8S22106   2.565   0.936  23.649 -1.4232 -1.2664  1.3656
  191SLPC   C2922107   2.711   0.774  23.616 -0.0766  0.4702  0.0925
  191SLPC   H9R22108   2.721   0.670  23.582  0.1068  0.3053  0.6303
  191SLPC  C21022109   2.803   0.816  23.705  0.2362 -0.4470  0.3359
  191SLPC  H10R22110   2.888   0.747  23.718 -0.7054 -1.3793  1.8559
  191SLPC  C21122111   2.817   0.935  23.795 -0.2448 -0.6686  0.2594
  191SLPC  H11R22112   2.837   1.023  23.730  1.2176 -0.0814  1.4338
  191SLPC  H11S22113   2.917   0.929  23.845 -0.0940 -0.0169  0.0484
  191SLPC  C21222114   2.706   0.965  23.898  0.3450  0.6503  0.3333
  191SLPC  H12R22115   2.614   1.016  23.866  0.3317 -0.0502 -0.8051
  191SLPC  C21322116   2.721   0.934  24.028 -0.5257 -0.5295  0.0194
  191SLPC  H13R22117   2.645   0.965  24.101 -0.0654 -1.5406  0.9550
  191SLPC  C21422118   2.842   0.865  24.084 -0.3079 -0.3253 -0.1860
  191SLPC  H14R22119   2.890   0.788  24.020 -1.2186 -2.2846  1.3662
  191SLPC  H14S22120   2.809   0.803  24.170 -1.1073 -0.0829 -0.3095
  191SLPC  C21522121   2.964   0.953  24.116  0.0824 -0.0123  0.5845
  191SLPC  H15R22122   2.992   1.023  24.034 -0.0606 -3.3165 -2.5542
  191SLPC  H15S22123   3.041   0.875  24.132 -0.3691 -0.7064 -0.5261
  191SLPC  C21622124   2.942   1.029  24.239 -0.0069  0.1393 -0.4150
  191SLPC  H16R22125   2.920   0.949  24.313  0.2649 -2.0127 -2.5020
  191SLPC  H16S22126   2.864   1.107  24.231  0.0873  0.3916  0.9144
  191SLPC  C21722127   3.068   1.114  24.270  0.1791  0.4743 -0.3642
  191SLPC  H17R22128   3.067   1.190  24.189 -2.9211 -0.0774 -0.9600
  191SLPC  H17S22129   3.157   1.046  24.270  0.0576  0.3134 -0.6426
  191SLPC  C21822130   3.057   1.189  24.412 -0.0953 -0.5910 -0.0078
  191SLPC  H18R22131   3.057   1.115  24.494 -0.2536 -1.1949 -0.5470
  191SLPC  H18S22132   2.968   1.256  24.411 -0.6638 -1.3443 -0.4217
  191SLPC  H18T22133   3.145   1.255  24.433 -1.1642  0.2392  2.1676
  191SLPC   C3322134   1.979  -0.093  23.108  0.0452 -0.4312  0.6280
  191SLPC   H3X22135   1.876  -0.054  23.115  0.5964  1.0964  0.7321
  191SLPC   H3Y22136   2.039  -0.053  23.193  2.0189 -1.6224 -0.1229
  191SLPC   C3422137   1.984  -0.243  23.121  0.3999  0.4004 -0.0830
  191SLPC   H4X22138   2.085  -0.280  23.152  1.0732  1.6145 -0.7256
  191SLPC   H4Y22139   1.973  -0.295  23.023  3.1838  1.4180 -1.0466
  191SLPC   C3522140   1.896  -0.303  23.232 -0.3442  0.3470 -0.6714
  191SLPC   H5X22141   1.914  -0.413  23.231 -0.7189  0.2778 -1.6752
  191SLPC   H5Y22142   1.789  -0.303  23.200 -0.0510 -0.3355 -1.7092
  191SLPC   C3622143   1.911  -0.240  23.367 -0.6511  0.1614 -0.0112
  191SLPC   H6X22144   1.890  -0.131  23.356 -0.6456  0.2099  0.4666
  191SLPC   H6Y22145   2.019  -0.246  23.391 -0.1986 -1.2557 -2.0962
  191SLPC   C3722146   1.818  -0.301  23.476 -0.0478  0.1087 -0.2077
  191SLPC   H7X22147   1.846  -0.409  23.480 -0.4060  0.0612  1.6484
  191SLPC   H7Y22148   1.714  -0.283  23.441  0.8134  1.4048 -2.3158
  191SLPC   C3822149   1.846  -0.240  23.618  0.3074  0.0082  0.6775
  191SLPC   H8X22150   1.948  -0.268  23.652  0.6055  1.2576  0.8522
  191SLPC   H8Y22151   1.781  -0.290  23.692 -0.0428 -0.4143  0.0979
  191SLPC   C3922152   1.826  -0.086  23.630 -0.0657  0.1430 -0.7880
  191SLPC   H9X22153   1.745  -0.053  23.561  0.5201  3.9689  0.1290
  191SLPC   H9Y22154   1.917  -0.039  23.587 -0.2412 -0.8049 -2.2817
  191SLPC  C31022155   1.786  -0.028  23.766  0.3126 -0.4349 -0.2282
  191SLPC  H10X22156   1.696  -0.075  23.810  0.3263 -0.6032 -0.3814
  191SLPC  H10Y22157   1.745   0.073  23.743 -1.1996 -0.9090  0.2791
  191SLPC  C31122158   1.895  -0.015  23.886  0.5363  0.1372  0.7329
  191SLPC  H11X22159   1.987   0.037  23.850 -0.9078  0.8820 -2.2137
  191SLPC  H11Y22160   1.928  -0.111  23.931 -1.6941 -0.2565  1.6595
  191SLPC  C31222161   1.821   0.064  23.995  0.3008 -0.5110  0.3861
  191SLPC  H12X22162   1.722   0.020  24.022 -0.0920  0.9817  1.5181
  191SLPC  H12Y22163   1.806   0.170  23.967  1.1405  0.2547  2.6232
  191SLPC  C31322164   1.905   0.078  24.125 -0.4223  0.1621  0.3422
  191SLPC  H13X22165   1.999   0.132  24.100 -0.1417  0.6387  2.3206
  191SLPC  H13Y22166   1.938  -0.014  24.177  1.5432  0.1978 -0.7403
  191SLPC  C31422167   1.843   0.176  24.229 -0.4152  0.1613 -0.7901
  191SLPC  H14X22168   1.734   0.162  24.244 -0.6670  2.3343 -0.2765
  191SLPC  H14Y22169   1.850   0.285  24.211 -1.5771  0.3935 -0.0048
  191SLPC  C31522170   1.901   0.140  24.367 -0.3413 -0.2739 -0.0020
  191SLPC  H15X22171   2.012   0.130  24.365 -0.1380  1.7126 -1.9293
  191SLPC  H15Y22172   1.865   0.039  24.399 -0.7358 -0.0238  0.3553
  191SLPC  C31622173   1.858   0.247  24.472 -0.0747  0.7373 -0.3946
  191SLPC  H16X22174   1.749   0.228  24.472 -0.0556  0.6278 -0.6614
  191SLPC  H16Y22175   1.869   0.348  24.427 -1.1290  0.4993 -1.2022
  191SLPC  C31722176   1.927   0.234  24.616 -0.3415  0.0483  0.0566
  191SLPC  H17X22177   2.038   0.229  24.608 -0.3164 -2.2516  0.9859
  191SLPC  H17Y22178   1.888   0.133  24.643  1.2711 -0.7324 -0.3914
  191SLPC  C31822179   1.879   0.339  24.723  0.2802  0.7453 -0.0622
  191SLPC  H18X22180   1.889   0.290  24.823 -1.8786 -2.8845 -1.4539
  191SLPC  H18Y22181   1.770   0.339  24.705  0.0381 -2.9033  0.5497
  191SLPC  H18Z22182   1.930   0.438  24.719 -0.7082  1.6867  4.4468
  192SLPC     N22183   0.019   1.765  28.647 -0.0895 -0.3998 -0.2318
  192SLPC   C1322184   0.050   1.757  28.788 -0.1094  1.0868 -1.1661
  192SLPC  H13A22185   0.156   1.759  28.810 -0.3125  0.9365 -0.0941
  192SLPC  H13B22186   0.001   1.834  28.846 -1.2105 -0.5585  0.1793
  192SLPC  H13C22187  -0.000   1.669  28.826 -0.9763  0.9610 -2.5338
  192SLPC   C1422188   0.102   1.863  28.570  0.0507 -0.7075  0.2215
  192SLPC  H14A22189   0.091   1.961  28.614 -3.6926 -0.9981  0.3005
  192SLPC  H14B22190   0.201   1.822  28.568 -0.1234 -1.0995 -0.8212
  192SLPC  H14C22191   0.068   1.856  28.468 -0.7687 -0.3488  0.4620
  192SLPC   C1522192  -0.125   1.804  28.625 -0.3735 -1.1865 -0.1836
  192SLPC  H15A22193  -0.150   1.874  28.703 -1.5399 -1.9256  0.1322
  192SLPC  H15B22194  -0.139   1.853  28.529  0.2564  0.6774  0.6243
  192SLPC  H15C22195  -0.196   1.723  28.630 -1.7228 -0.0071  0.5561
  192SLPC   C1222196   0.040   1.638  28.568 -0.3622  0.2465 -0.6959
  192SLPC  H12A22197   0.019   1.654  28.463 -0.6475  0.4398 -0.6108
  192SLPC  H12B22198  -0.041   1.581  28.611  0.7083 -0.3301  0.6297
  192SLPC   C1122199   0.181   1.575  28.588  0.4318 -0.8228 -0.1316
  192SLPC  H11A22200   0.267   1.643  28.571  0.6210 -0.8946  0.5228
  192SLPC  H11B22201   0.198   1.494  28.513 -1.2424 -1.6827  0.3689
  192SLPC     P22202   0.103   1.401  28.785 -0.4944 -0.0446  0.0750
  192SLPC   O1322203   0.105   1.413  28.932  0.7218 -0.6804  0.2346
  192SLPC   O1422204  -0.028   1.394  28.727 -1.1123  0.3269 -0.1263
  192SLPC   O1222205   0.194   1.514  28.722  0.7390  0.1542  0.2380
  192SLPC   O1122206   0.179   1.268  28.728 -0.1138 -0.3864  0.5166
  192SLPC    C122207   0.306   1.232  28.790 -0.0798 -0.4155 -0.3684
  192SLPC    HA22208   0.349   1.323  28.838 -2.1426  0.4715 -0.1043
  192SLPC    HB22209   0.270   1.158  28.865 -0.3333  1.4166  1.3957
  192SLPC    C222210   0.424   1.185  28.702 -0.5316  0.1237  0.0341
  192SLPC    HS22211   0.434   1.074  28.695  2.2357  0.3730 -0.8645
  192SLPC   O2122212   0.545   1.242  28.751 -0.0457 -0.8366  0.4063
  192SLPC   C2122213   0.578   1.209  28.875 -0.2137 -0.0121  0.1252
  192SLPC   O2222214   0.540   1.115  28.936  0.5081  0.1839 -0.0067
  192SLPC   C2222215   0.672   1.317  28.924 -0.3472 -0.4091 -0.3692
  192SLPC   H2R22216   0.761   1.320  28.858 -0.2859  0.0929 -0.2668
  192SLPC   H2S22217   0.629   1.419  28.911 -0.2196 -0.5739 -2.4779
  192SLPC    C322218   0.398   1.237  28.558 -0.0319  0.3729 -0.5070
  192SLPC    HX22219   0.370   1.344  28.567 -2.2760 -0.2324  0.1915
  192SLPC    HY22220   0.316   1.176  28.515  1.0854 -1.7376  0.1910
  192SLPC   O3122221   0.515   1.222  28.469 -0.0269  0.1131  0.2203
  192SLPC   C3122222   0.476   1.244  28.342  0.2110 -0.0237 -0.1459
  192SLPC   O3222223   0.369   1.285  28.308  0.6379  0.2440  0.0096
  192SLPC   C3222224   0.585   1.202  28.246  0.6114  0.1722 -0.2641
  192SLPC   H2X22225   0.529   1.137  28.176  2.3994 -1.1638 -0.5256
  192SLPC   H2Y22226   0.659   1.139  28.301  0.9599 -0.8790 -1.8653
  192SLPC   C2322227   0.704   1.302  29.069 -0.3281  0.4125  0.2476
  192SLPC   H3R22228   0.773   1.384  29.099 -0.0882 -0.7018  3.1310
  192SLPC   H3S22229   0.759   1.209  29.095  1.8088  1.9967  1.7210
  192SLPC   C2422230   0.586   1.321  29.162  0.1626 -0.2851  0.0954
  192SLPC   H4R22231   0.511   1.242  29.142  0.8701 -1.2809  1.2127
  192SLPC   H4S22232   0.557   1.427  29.150 -2.6232 -0.9504  0.4276
  192SLPC   C2522233   0.620   1.309  29.318  1.4920 -0.1188  0.6170
  192SLPC   H5R22234   0.626   1.200  29.334 -0.7538 -0.4611 -0.4556
  192SLPC   H5S22235   0.530   1.340  29.376  2.3335  1.0742  1.3287
  192SLPC   C2622236   0.756   1.362  29.365 -0.1871  0.1877 -0.5421
  192SLPC   H6R22237   0.841   1.307  29.319 -0.4145  0.6234 -1.5122
  192SLPC   H6S22238   0.766   1.357  29.475 -1.2125 -1.8193 -0.4946
  192SLPC   C2722239   0.785   1.511  29.344 -0.0995  0.2998 -0.2257
  192SLPC   H7R22240   0.707   1.571  29.394 -1.3472 -0.1625 -1.5277
  192SLPC   H7S22241   0.777   1.536  29.236  0.7121 -1.2180 -0.6805
  192SLPC   C2822242   0.923   1.551  29.408 -0.5133  0.1043 -0.6162
  192SLPC   H8R22243   1.005   1.518  29.341  0.4063 -1.4581  1.1783
  192SLPC   H8S22244   0.933   1.494  29.503  0.8335 -0.8260 -1.2789
  192SLPC   C2922245   0.936   1.706  29.423  0.0892 -0.0991  0.1768
  192SLPC   H9R22246   0.844   1.755  29.459  0.0649  0.5021 -0.6785
  192SLPC  C21022247   1.049   1.771  29.409 -0.3238 -0.1060  0.9701
  192SLPC  H10R22248   1.053   1.881  29.414  0.1276 -0.1226  1.0327
  192SLPC  C21122249   1.181   1.715  29.375 -0.0411  0.4116  0.0562
  192SLPC  H11R22250   1.171   1.672  29.273 -0.5593 -1.3686  0.8152
  192SLPC  H11S22251   1.197   1.622  29.434 -0.7765  0.3834  0.2309
  192SLPC  C21222252   1.293   1.814  29.384  0.1105 -0.4643 -0.0380
  192SLPC  H12R22253   1.286   1.903  29.449  2.4547 -0.0090 -0.3279
  192SLPC  C21322254   1.415   1.811  29.318  0.7451  0.6388  0.2676
  192SLPC  H13R22255   1.490   1.888  29.340  2.1135 -0.8755  1.0500
  192SLPC  C21422256   1.462   1.709  29.211 -0.0180 -0.4505 -0.3785
  192SLPC  H14R22257   1.432   1.741  29.109  0.4969  0.3482 -0.2915
  192SLPC  H14S22258   1.437   1.603  29.231  0.8911 -0.4168  1.0612
  192SLPC  C21522259   1.618   1.713  29.205  0.4424  0.1123  0.0494
  192SLPC  H15R22260   1.658   1.804  29.156  0.9738 -0.6687 -1.0129
  192SLPC  H15S22261   1.652   1.629  29.140 -1.5680 -0.7511  0.0291
  192SLPC  C21622262   1.697   1.705  29.339  0.5507 -0.1032 -0.4641
  192SLPC  H16R22263   1.650   1.623  29.399 -2.5635  0.2694 -2.1944
  192SLPC  H16S22264   1.680   1.801  29.392  2.0499  1.1647 -2.1518
  192SLPC  C21722265   1.847   1.662  29.322 -0.6174 -0.2146 -0.7559
  192SLPC  H17R22266   1.876   1.652  29.429 -0.6063 -3.4290 -0.9474
  192SLPC  H17S22267   1.856   1.566  29.268 -1.3997  0.3482 -1.9050
  192SLPC  C21822268   1.927   1.773  29.253  0.6914  0.1586 -0.1932
  192SLPC  H18R22269   1.897   1.763  29.146 -0.2546  0.5727  0.0286
  192SLPC  H18S22270   2.038   1.764  29.258  0.4712 -2.9255  1.3182
  192SLPC  H18T22271   1.902   1.872  29.298 -0.9119 -0.3286  0.0103
  192SLPC   C3322272   0.640   1.330  28.174 -0.4995  0.1619  0.0722
  192SLPC   H3X22273   0.687   1.392  28.253  2.5005 -0.7239 -0.8902
  192SLPC   H3Y22274   0.556   1.385  28.127 -2.1926  0.5584  3.3235
  192SLPC   C3422275   0.735   1.292  28.059  0.2462 -0.1648 -0.2684
  192SLPC   H4X22276   0.699   1.226  27.978 -0.7337  0.9771 -0.7847
  192SLPC   H4Y22277   0.818   1.244  28.117 -1.4314 -0.4768  2.0313
  192SLPC   C3522278   0.783   1.413  27.980 -0.1206 -0.1851 -0.2597
  192SLPC   H5X22279   0.778   1.499  28.049 -1.3701 -0.1220 -0.4164
  192SLPC   H5Y22280   0.703   1.436  27.907  0.1252 -1.2373 -0.8882
  192SLPC   C3622281   0.923   1.411  27.910 -0.6384  0.4833  0.5765
  192SLPC   H6X22282   0.997   1.357  27.973 -0.3803  1.3553  1.0290
  192SLPC   H6Y22283   0.948   1.516  27.888 -1.3283  0.3381 -1.1053
  192SLPC   C3722284   0.915   1.335  27.766  0.0808 -0.8256  0.1402
  192SLPC   H7X22285   0.838   1.389  27.707 -0.4719 -1.0493  0.6410
  192SLPC   H7Y22286   0.867   1.237  27.785 -0.1614 -1.1695 -2.0754
  192SLPC   C3822287   1.050   1.326  27.698  0.3834 -0.7765  0.1435
  192SLPC   H8X22288   1.120   1.251  27.741  1.7713  0.3119 -0.1607
  192SLPC   H8Y22289   1.110   1.419  27.699 -0.4437 -0.2186  1.5947
  192SLPC   C3922290   1.031   1.283  27.551 -0.1168 -1.5049  0.0879
  192SLPC   H9X22291   1.125   1.303  27.496 -0.7792  1.6761 -0.1069
  192SLPC   H9Y22292   0.960   1.353  27.503  1.4664  0.1177  0.0023
  192SLPC  C31022293   0.987   1.137  27.536  0.8058  0.8582  0.3062
  192SLPC  H10X22294   0.924   1.102  27.620  0.9972 -0.0672  0.0856
  192SLPC  H10Y22295   1.081   1.077  27.535  0.1468 -0.2132  0.5064
  192SLPC  C31122296   0.890   1.104  27.411  0.8096  0.1285  0.0426
  192SLPC  H11X22297   0.955   1.113  27.322  1.2599  1.7374  0.5013
  192SLPC  H11Y22298   0.812   1.183  27.398  2.1679  1.6994  1.0482
  192SLPC  C31222299   0.814   0.966  27.419  0.8978 -0.1098  0.1079
  192SLPC  H12X22300   0.713   0.987  27.378  0.2439 -1.9979  0.6555
  192SLPC  H12Y22301   0.802   0.938  27.525  0.6273  0.4532  0.2299
  192SLPC  C31322302   0.882   0.851  27.338  0.0212 -0.8263  0.2348
  192SLPC  H13X22303   0.902   0.885  27.235 -0.2744 -1.8989 -0.1924
  192SLPC  H13Y22304   0.816   0.762  27.328  1.1757 -1.6290 -0.4520
  192SLPC  C31422305   1.009   0.786  27.392  0.8961 -0.4974  0.6082
  192SLPC  H14X22306   1.048   0.831  27.486  2.3626  2.2213 -1.1964
  192SLPC  H14Y22307   1.088   0.811  27.318 -1.2992  1.1583 -1.3077
  192SLPC  C31522308   0.995   0.635  27.405  0.1108 -0.6832 -0.1504
  192SLPC  H15X22309   0.990   0.570  27.314  2.1398 -0.1636 -0.6873
  192SLPC  H15Y22310   0.898   0.624  27.459 -0.7814  3.5273 -0.5654
  192SLPC  C31622311   1.120   0.579  27.485  0.8117  0.5877 -0.3702
  192SLPC  H16X22312   1.101   0.598  27.593  1.5547 -0.3689 -0.0633
  192SLPC  H16Y22313   1.207   0.632  27.441 -0.3327  0.9732 -2.2509
  192SLPC  C31722314   1.122   0.422  27.475  0.3155  0.4782 -0.1654
  192SLPC  H17X22315   1.111   0.403  27.366  0.0059  0.2407 -0.0952
  192SLPC  H17Y22316   1.037   0.371  27.526 -2.2953  5.5663  1.2450
  192SLPC  C31822317   1.260   0.364  27.520  0.4899  0.4735  0.1364
  192SLPC  H18X22318   1.348   0.403  27.463  1.5667 -0.3445  1.1791
  192SLPC  H18Y22319   1.272   0.257  27.493 -0.2440  0.2747  0.5700
  192SLPC  H18Z22320   1.287   0.368  27.628  0.5088 -1.6420  0.2514
  193SOD    SOD22321   2.961   1.392  50.480 -0.2379 -0.6882  0.9914
  194SOD    SOD22322   2.556   1.722  27.626 -0.2431 -0.4669  0.1060
  195SOD    SOD22323   0.670   2.281  47.958  0.1839 -0.3636  0.0671
  196SOD    SOD22324   3.188   2.248  13.725  0.3489 -0.3846 -0.4193
  197SOD    SOD22325   2.619   0.293  58.142  0.0601 -0.5320  0.3822
  198SOD    SOD22326   2.258   3.451  60.061  0.0853  0.3658 -0.8992
  199SOD    SOD22327   1.305   0.372  37.522  0.1198 -0.0376 -0.2038
  200SOD    SOD22328   1.646   0.098   1.625  0.4491 -0.2758  0.1534
  201SOD    SOD22329   1.525   3.432  56.919 -0.1747  0.1177 -0.4798
  202SOD    SOD22330   0.158   0.496  66.360 -0.3327 -0.3874  0.0561
  203SOD    SOD22331   0.783   0.013   0.389 -0.3545 -0.4037 -0.1455
  204SOD    SOD22332   1.161   2.737  43.547 -0.0804 -0.1649  0.0572
  205SOD    SOD22333   1.014   0.963  65.575  0.6135  0.0110  0.2407
  206SOD    SOD22334   2.172   1.916  63.743  0.0140  0.1320 -0.2522
  207SOD    SOD22335   1.699   2.530  36.040 -0.0942 -0.3705  0.0503
  208SOD    SOD22336   1.010   3.393  36.482 -0.5180  0.0149 -0.4968
  209SOD    SOD22337   3.017   1.106  12.919 -0.0501  0.0160 -0.1520
  210SOD    SOD22338   1.364   0.936  45.347 -0.0623 -0.4978 -0.3817
  211SOD    SOD22339   2.309   1.256  53.869  0.1648  0.4361 -0.3363
  212SOD    SOD22340   3.258   2.427  29.846  0.0133  0.4627  0.1500
  213SOD    SOD22341   0.210   0.020  54.666  0.3211 -0.6319 -0.1511
  214SOD    SOD22342   0.680   3.394  34.685 -1.0494 -0.1280 -0.2250
  215SOD    SOD22343   1.111   2.671  35.538  0.4678 -0.1469 -0.1293
  216SOD    SOD22344   0.932   1.009  19.900  0.2666  0.3132 -0.4686
  217SOD    SOD22345   2.572   2.627  59.528 -0.4542 -0.1419  0.2255
  218SOD    SOD22346   1.186   0.309  35.889  0.3646 -0.2846  0.4865
  219SOD    SOD22347   0.727   2.312  15.215 -0.0955 -0.2365 -0.1132
  220SOD    SOD22348   2.021   1.579  18.267  0.1784 -0.5225 -0.2877
  221SOD    SOD22349   3.374   1.767  66.988  0.3637 -0.3392 -0.0171
  222SOD    SOD22350   2.420   0.976  25.937 -0.5773 -0.6478  0.1313
  223SOD    SOD22351   1.206   3.449  59.548 -0.1610  0.1183 -0.0273
  224SOD    SOD22352   3.087   2.146  19.844 -0.1518  0.3799  0.0143
  225SOD    SOD22353   2.161   2.273   2.988  0.4178 -0.1750  0.3186
  226SOD    SOD22354   0.950   0.825   4.493  0.0087  0.0649  0.1492
  227SOD    SOD22355   1.620   0.154  48.126 -0.1436  0.3796 -0.0581
  228SOD    SOD22356   3.414   0.507  53.429 -0.0528 -0.0948  0.1278
  229SOD    SOD22357   1.607   0.488  11.558 -0.1163  0.2057  0.5476
  230SOD    SOD22358   2.396   1.725  43.821 -0.5010  0.2759 -0.0151
  231SOD    SOD22359   0.626   3.010  67.120 -0.0498 -0.1991  0.0171
  232SOD    SOD22360   3.272   1.765  30.208  0.2575  0.6168 -0.4950
  233SOD    SOD22361   0.769   0.031  38.189 -0.0595  0.2879  0.1113
  234SOD    SOD22362   2.849   2.128  26.777 -0.3333 -0.0133 -0.3431
  235SOD    SOD22363   2.654   0.933  66.989  0.4595 -0.2676  0.3918
  236SOD    SOD22364   1.820   3.098  54.474  0.2211 -0.5682 -0.6818
  237SOD    SOD22365   1.313   2.591  56.907 -0.2394  0.1154 -0.4531
  238SOD    SOD22366   3.163   0.674  15.461 -0.2592  0.3313 -0.4189
  239SOD    SOD22367   3.270   1.362  65.052 -0.1751  0.5214 -0.1768
  240SOD    SOD22368   2.172   1.940   7.183 -0.0701  0.4462 -0.1517
  241SOD    SOD22369   1.316   0.886  37.254 -0.1938 -0.7837  0.2146
  242SOD    SOD22370   1.427   3.133   7.916  0.6130  0.2466 -0.0566
  243SOD    SOD22371   1.420   1.473   4.237  0.2219  0.2044 -0.1813
  244SOD    SOD22372   2.771   2.907  30.362  0.5143 -0.2334  0.0339
  245SOD    SOD22373   2.311   0.853  13.308 -0.1511  0.2964  0.3136
  246SOD    SOD22374   2.714   1.386  28.113 -0.0195  0.5771 -0.2037
  247SOD    SOD22375   0.938   2.726  17.224 -0.2306 -0.1153  0.1582
  248SOD    SOD22376   0.729   0.720  51.369 -0.2145 -0.3123 -0.1844
  249SOD    SOD22377   3.247   2.720   3.927  0.2184 -0.2708 -0.0783
  250SOD    SOD22378   2.669   0.017   6.438  0.3871 -0.3591  0.3997
  251SOD    SOD22379   1.982   0.182  26.932 -0.1816 -0.1811  0.6102
  252SOD    SOD22380   2.026   0.783  25.938  0.1079 -0.1536 -0.0588
  253SOD    SOD22381   2.692   0.330  48.698 -0.1780  0.2205 -0.2471
  254SOD    SOD22382   0.222   0.452  51.106  0.4316 -0.0762  0.0331
  255SOD    SOD22383   0.409   0.908   7.071 -0.0157 -0.0500  0.0520
  256SOD    SOD22384   1.804   3.214  64.964 -0.3271 -0.5425 -0.1382
  257SOD    SOD22385   0.852   2.588  36.105 -0.0535 -0.2461  0.3755
  258SOD    SOD22386   1.584   1.015  36.534 -0.6931 -0.0352  0.0536
  259SOD    SOD22387   1.429   1.468  45.561  0.0506  0.3656 -0.3618
  260SOD    SOD22388   2.014   1.874  52.533  0.4132 -0.1863  0.1370
  261SOD    SOD22389   1.420   3.223  21.727 -0.1660  0.4189  0.4298
  262SOD    SOD22390   1.685   0.394  16.223 -0.3940 -0.1013 -0.4082
  263SOD    SOD22391   2.214   1.191   7.756  0.2093  0.0860  0.1796
  264SOD    SOD22392   3.220   0.150  19.594 -0.1309 -0.8790  0.3868
  265SOD    SOD22393   0.795   2.664  57.452 -0.1948 -0.0022 -0.2944
  266CLA    CLA22394   1.503   1.916  66.303 -0.4502 -0.4397 -0.2731
  267CLA    CLA22395   1.157   2.410  62.205 -0.0567  0.5253 -0.3830
  268CLA    CLA22396   0.996   0.993  57.457  0.0550  0.4437  0.0889
  269CLA    CLA22397   1.100   3.244  14.640  0.3498 -0.1771  0.2708
  270CLA    CLA22398   0.951   0.370   7.644  0.1097  0.2761  0.3961
  271CLA    CLA22399   2.178   0.446  62.388  0.1472  0.0709 -0.1462
  272CLA    CLA22400   3.450   0.650  19.521  0.3475  0.0410  0.0782
  273CLA    CLA22401   1.432   0.115   4.790 -0.4304 -0.0886  0.5077
  274CLA    CLA22402   2.348   3.193  17.961 -0.0415  0.5152 -0.3099
  275CLA    CLA22403   3.339   1.036  51.805 -0.0578  0.1582 -0.1603
  276CLA    CLA22404   1.817   1.927   5.836  0.1155  0.1595  0.2548
  277CLA    CLA22405   2.739   2.909   1.216  0.4842  0.1636  0.2971
  278CLA    CLA22406   3.249   1.442  55.991 -0.1962  0.1095  0.5526
  279CLA    CLA22407   2.211   0.737  11.969  0.0842  0.2551 -0.2865
  280CLA    CLA22408   2.097   0.271  18.852  0.4387 -0.1247 -0.0875
  281CLA    CLA22409   1.855   0.608  57.183 -0.0906 -0.2068 -0.1808
  282CLA    CLA22410   3.041   0.220   5.660  0.2910  0.5057 -0.2338
  283CLA    CLA22411   0.779   0.535   1.198  0.2926  0.2921 -0.2769
  284CLA    CLA22412   2.534   3.159  48.146 -0.1288 -0.8310 -0.2877
  285CLA    CLA22413   3.308   0.844  10.309 -0.4236 -0.2237 -0.0760
  286CLA    CLA22414   0.830   0.845  45.666  0.1135  0.0435  0.0112
  287CLA    CLA22415   1.658   0.175  48.715 -0.1010 -0.1397  0.1729
  288CLA    CLA22416   2.963   0.442  66.735 -0.2798 -0.0982  0.0786
  289CLA    CLA22417   0.123   1.150  48.722 -0.1527  0.2709  0.3678
  290CLA    CLA22418   1.585   2.329  12.511 -0.4664  0.0988 -0.0237
  291CLA    CLA22419   0.601   1.724  64.758 -0.0287  0.1878 -0.0749
  292CLA    CLA22420   0.890   1.343  54.773  0.1820 -0.4216  0.0494
  293CLA    CLA22421   2.918   1.333   7.666  0.0768  0.0676  0.2856
  294CLA    CLA22422   3.426   1.930  14.866  0.2002 -0.0480 -0.0724
  295CLA    CLA22423   2.595   1.503  47.623 -0.0929  0.4868  0.3113
  296CLA    CLA22424   3.340   2.776  45.762  0.3474 -0.0055  0.5806
  297CLA    CLA22425   1.990   0.102  59.356 -0.0559 -0.0271 -0.1329
  298CLA    CLA22426   2.952   2.169  58.555  0.0489  0.0532 -0.2968
  299CLA    CLA22427   0.915   1.665  65.210 -0.1868 -0.0561  0.1095
  300CLA    CLA22428   0.757   1.481   3.901 -0.0727 -0.1822 -0.0578
  301CLA    CLA22429   1.238   3.290   0.483 -0.0464  0.1617 -0.0885
  302CLA    CLA22430   2.878   2.330  54.481  0.0282  0.0715 -0.3781
  303CLA    CLA22431   1.404   0.131   3.774 -0.2883  0.4098  0.0245
  304CLA    CLA22432   1.794   2.065   1.563 -0.6003 -0.0776 -0.1466
  305CLA    CLA22433   2.376   2.556  49.726 -0.4210  0.3167 -0.0772
  306CLA    CLA22434   1.612   2.728  21.836  0.2453  0.1573 -0.2136
  307CLA    CLA22435   1.454   2.347  17.093 -0.0377 -0.2778  0.4235
  308CLA    CLA22436   0.434   1.980  18.127  0.3289  0.1699  0.4342
  309CLA    CLA22437   0.784   1.900   1.064  0.5400  0.1310 -0.2231
  310CLA    CLA22438   1.623   2.791   7.370  0.0987  0.2185  0.1650
  311CLA    CLA22439   1.790   1.407  44.877 -0.1148 -0.0302 -0.1561
  312CLA    CLA22440   2.942   0.573  53.455  0.1195 -0.1497 -0.5105
  313CLA    CLA22441   2.810   0.813  56.673  0.2964  0.1206 -0.4437
  314CLA    CLA22442   0.589   0.513  50.841 -0.2327  0.0503 -0.1263
  315CLA    CLA22443   2.446   1.829  15.846  0.5492 -0.4364  0.1856
  316CLA    CLA22444   2.434   2.374  44.683  0.2207 -0.5546 -0.1103
  317CLA    CLA22445   2.006   0.002  63.606 -0.2403  0.2205 -0.0404
  318CLA    CLA22446   1.348   1.231  52.465  0.2758 -0.1553 -0.1810
  319TIP3   OH222447   2.571   0.296  47.387 -0.5809  0.2780 -0.4164
  319TIP3    H122448   2.549   0.301  47.294  0.4310 -3.1079 -0.9825
  319TIP3    H222449   2.643   0.357  47.398 -2.6642  3.0380 -1.0598
  320TIP3   OH222450   2.973   2.883  52.586 -0.9839  0.0870  0.0085
  320TIP3    H122451   2.923   2.827  52.527 -1.9486  0.8693  0.0555
  320TIP3    H222452   2.964   2.842  52.672 -0.5342 -0.4337 -0.1929
  321TIP3   OH222453   2.119   0.492   0.856  0.1743 -0.4211 -0.4856
  321TIP3    H122454   2.153   0.567   0.807 -0.6124 -0.6003 -1.3435
  321TIP3    H222455   2.152   0.416   0.809  0.0258 -0.5972 -0.3032
  322TIP3   OH222456   2.520   0.940   6.273  0.2730 -0.0711  0.0132
  322TIP3    H122457   2.601   0.976   6.237 -0.9017  0.9128 -1.8585
  322TIP3    H222458   2.452   0.998   6.239 -1.5000 -2.5311 -0.9438
  323TIP3   OH222459   0.622   1.325  20.826 -0.2230 -0.1233 -0.0450
  323TIP3    H122460   0.700   1.381  20.826 -0.8382  0.7621 -0.8862
  323TIP3    H222461   0.620   1.287  20.738 -0.0222 -1.2085  0.3968
  324TIP3   OH222462   1.914   3.026  43.797 -0.0284  0.7860 -0.1653
  324TIP3    H122463   1.914   3.116  43.829  0.1566  0.4537  0.8084
  324TIP3    H222464   1.962   2.977  43.865 -0.0989 -0.0347 -0.7020
  325TIP3   OH222465   0.405   3.432  65.260  0.3169 -0.2713  0.5115
  325TIP3    H122466   0.410   3.527  65.244 -0.2796 -0.4593 -0.9763
  325TIP3    H222467   0.448   3.393  65.184  0.1841 -1.2099  0.9071
  326TIP3   OH222468   0.274   1.217  49.718  0.6890  0.0082 -0.0674
  326TIP3    H122469   0.312   1.260  49.642 -0.5186  0.3859 -0.4755
  326TIP3    H222470   0.232   1.288  49.768  1.2799 -0.2624  0.8439
  327TIP3   OH222471   2.876   0.473   2.243 -0.0679  0.0720  0.0709
  327TIP3    H122472   2.881   0.476   2.147 -1.7425 -0.0342 -0.0616
  327TIP3    H222473   2.810   0.405   2.261  0.4185 -0.0967  1.3135
  328TIP3   OH222474   0.820   1.495   8.210 -0.2243  0.7885 -0.2673
  328TIP3    H122475   0.837   1.551   8.134  0.2391  0.4630 -0.4095
  328TIP3    H222476   0.820   1.406   8.175 -0.4009  0.6623  0.0476
  329TIP3   OH222477   0.710   0.854  17.021 -0.6400  0.0726 -0.3400
  329TIP3    H122478   0.802   0.838  17.004 -0.0275  1.0587  1.7038
  329TIP3    H222479   0.676   0.892  16.939  1.4308  2.2135 -0.2994
  330TIP3   OH222480   0.356   0.591  63.287  0.2464 -0.1311 -0.5300
  330TIP3    H122481   0.275   0.575  63.239  0.1935  1.3381 -0.9827
  330TIP3    H222482   0.329   0.598  63.378 -0.1201  0.2423 -0.6670
  331TIP3   OH222483   2.919   1.504  15.522 -0.8550 -0.1657 -0.3788
  331TIP3    H122484   2.986   1.461  15.469  0.1338 -0.7124  1.2477
  331TIP3    H222485   2.968   1.569  15.573 -1.8459  0.6627 -0.4544
  332TIP3   OH222486   1.912   3.317   2.945 -0.2141 -0.1828 -0.3614
  332TIP3    H122487   1.964   3.352   3.018 -1.1618 -0.6210  0.5358
  332TIP3    H222488   1.884   3.230   2.974 -1.6545  0.1346 -0.7116
  333TIP3   OH222489   1.133   0.355  63.218 -0.1614 -0.3109 -0.2061
  333TIP3    H122490   1.196   0.427  63.221  0.5579 -0.9474  0.5507
  333TIP3    H222491   1.085   0.363  63.301 -0.6007 -0.2518 -0.4636
  334TIP3   OH222492   2.538   0.430  63.205  0.1199  0.9323 -0.4504
  334TIP3    H122493   2.561   0.337  63.208  1.8330  1.3512  0.0145
  334TIP3    H222494   2.467   0.434  63.141  1.2239 -0.4559 -1.8375
  335TIP3   OH222495   3.235   0.040  63.831  0.3906  0.0913  0.7478
  335TIP3    H122496   3.163   0.066  63.889  0.4963  0.3594  0.7593
  335TIP3    H222497   3.202  -0.036  63.784 -0.1332  0.5841  0.3042
  336TIP3   OH222498   2.973   1.310  21.899  0.1218  0.1580 -0.0212
  336TIP3    H122499   3.015   1.391  21.869  1.3017 -0.4143  0.0393
  336TIP3    H222500   3.012   1.294  21.985 -1.7215  0.6791  0.9661
  337TIP3   OH222501   3.207   1.130  46.242  0.2210  0.0453  0.7925
  337TIP3    H122502   3.224   1.092  46.328  0.5566  1.7441  1.5241
  337TIP3    H222503   3.294   1.141  46.203  0.1734  0.4940  0.8036
  338TIP3   OH222504   0.188   1.601  58.214  0.2060 -0.4939 -0.1963
  338TIP3    H122505   0.176   1.631  58.123 -1.8814 -0.8280 -0.0864
  338TIP3    H222506   0.211   1.681  58.262 -0.0998 -0.0387 -0.7802
  339TIP3   OH222507   1.191   0.801  45.293  0.4366  0.4779  0.0394
  339TIP3    H122508   1.158   0.808  45.204  0.1574  0.8838  0.1723
  339TIP3    H222509   1.132   0.739  45.336 -0.0507  1.0582  0.2235
  340TIP3   OH222510   3.447   3.047  22.120 -0.5319  0.5595  0.3710
  340TIP3    H122511   3.527   3.008  22.085  0.2741  2.5560 -0.1846
  340TIP3    H222512   3.394   3.066  22.043 -2.3336 -2.1451  0.8072
  341TIP3   OH222513   0.578   2.158   3.976  0.1903  0.3661 -0.2605
  341TIP3    H122514   0.644   2.112   3.925  0.1791 -0.9012  0.8225
  341TIP3    H222515   0.579   2.248   3.941  1.8689  0.1635 -0.8263
  342TIP3   OH222516   1.431   1.974  12.499 -0.5000 -0.3876  0.4080
  342TIP3    H122517   1.384   1.890  12.494 -0.0466 -0.5828 -1.8104
  342TIP3    H222518   1.434   2.004  12.408  0.9858  1.1268  0.9209
  343TIP3   OH222519   0.944   0.585  46.804  0.6968  0.1877 -0.1062
  343TIP3    H122520   0.959   0.671  46.766  1.4037  0.3531  0.5078
  343TIP3    H222521   0.920   0.529  46.730  1.8887  0.5247 -0.7678
  344TIP3   OH222522   2.348   1.553  66.122 -0.0546 -0.6414  0.5057
  344TIP3    H122523   2.412   1.624  66.121  1.1328 -1.6236 -2.3134
  344TIP3    H222524   2.294   1.568  66.045 -1.4759 -1.4071  1.3042
  345TIP3   OH222525   2.248   0.989  58.522  0.2719 -0.2191  0.6079
  345TIP3    H122526   2.211   0.901  58.517 -0.2517  0.0607 -1.3071
  345TIP3    H222527   2.321   0.981  58.584  0.1111 -1.9431  0.6324
  346TIP3   OH222528   0.975   0.137  38.102 -0.5333  0.3540  0.5574
  346TIP3    H122529   0.925   0.211  38.135 -0.1699  0.4388  0.9209
  346TIP3    H222530   1.002   0.163  38.014  0.1701  0.9352  0.9355
  347TIP3   OH222531   1.652   1.049  58.163  0.3994  0.2213 -0.0941
  347TIP3    H122532   1.729   1.104  58.178  0.7664  0.2739 -1.9234
  347TIP3    H222533   1.632   1.060  58.070 -0.7326 -1.1955 -0.0647
  348TIP3   OH222534   1.629   0.713   2.367  0.1335  0.4115 -0.0663
  348TIP3    H122535   1.641   0.618   2.366  0.4607  0.4416  0.4232
  348TIP3    H222536   1.711   0.747   2.404 -0.0956  0.8647  0.0363
  349TIP3   OH222537   2.611   2.288  12.159 -0.1784 -0.6499  0.5863
  349TIP3    H122538   2.571   2.285  12.246 -1.5587 -3.3540 -0.0456
  349TIP3    H222539   2.539   2.268  12.099  1.1457 -0.7158 -1.0356
  350TIP3   OH222540   2.040   3.161  46.768 -0.0576  0.2591 -0.1342
  350TIP3    H122541   2.021   3.142  46.859 -1.6809  0.8939 -0.3084
  350TIP3    H222542   2.048   3.256  46.764  1.7761  0.1385 -0.3679
  351TIP3   OH222543   0.035   0.929  17.325 -0.0557 -0.9729 -0.2130
  351TIP3    H122544  -0.002   0.905  17.410 -0.5226  0.2764 -0.0329
  351TIP3    H222545   0.109   0.986  17.347 -1.3313  0.9283 -0.6315
  352TIP3   OH222546   1.494   2.435  21.984 -0.1454  1.0855 -0.3453
  352TIP3    H122547   1.483   2.439  21.889 -0.7662  2.4336 -0.2473
  352TIP3    H222548   1.587   2.416  21.997 -0.6003 -2.3719 -1.1943
  353TIP3   OH222549   0.142   1.066   1.831  0.4115  0.0915 -0.1451
  353TIP3    H122550   0.147   1.130   1.760  1.4857  1.5769  1.2218
  353TIP3    H222551   0.227   1.022   1.829  0.3739  0.0044  0.1031
  354TIP3   OH222552   0.727   1.305  21.919  0.3997  0.3576  0.3922
  354TIP3    H122553   0.803   1.327  21.972 -0.2216 -0.3436  1.6204
  354TIP3    H222554   0.660   1.279  21.983 -0.9933  1.3100 -0.6253
  355TIP3   OH222555   3.127   2.990  17.701 -0.4921 -0.0820  0.5796
  355TIP3    H122556   3.180   2.999  17.622 -0.2435  2.3237  0.9338
  355TIP3    H222557   3.187   3.011  17.773 -0.9061 -1.4915  1.3854
  356TIP3   OH222558   1.344   0.042  11.272  0.2181  0.2322 -0.5570
  356TIP3    H122559   1.358  -0.042  11.230 -0.6147  0.3068 -0.9884
  356TIP3    H222560   1.351   0.106  11.201  2.5585  0.7089  0.0260
  357TIP3   OH222561   2.780   1.627  14.362 -0.3695 -0.0335  0.3976
  357TIP3    H122562   2.868   1.604  14.392 -0.4242  0.2445  0.7867
  357TIP3    H222563   2.794   1.664  14.275 -0.0273  0.5601  0.6971
  358TIP3   OH222564   0.270   1.361  53.154  0.1546 -0.4658 -0.0259
  358TIP3    H122565   0.339   1.309  53.114 -1.4114 -1.5695 -1.4656
  358TIP3    H222566   0.266   1.332  53.245  1.2455 -0.7167 -0.0513
  359TIP3   OH222567   1.749   0.367  20.973  0.1139 -0.1312  0.8184
  359TIP3    H122568   1.814   0.423  21.015  0.2946 -0.5384  1.0881
  359TIP3    H222569   1.799   0.292  20.939  0.1972  0.8400 -1.3824
  360TIP3   OH222570   0.533   3.033  46.926  0.1177  0.0474 -0.2869
  360TIP3    H122571   0.512   2.940  46.918 -0.9151  0.2258  0.1509
  360TIP3    H222572   0.529   3.050  47.021  1.4530  0.2865 -0.2634
  361TIP3   OH222573   2.284   3.053  13.392 -0.1502  0.5512  0.3226
  361TIP3    H122574   2.298   3.116  13.320  1.1724 -0.2647 -0.1715
  361TIP3    H222575   2.251   2.975  13.349 -1.2468  0.6962  0.8698
  362TIP3   OH222576   2.692   2.121  57.506  0.7545  0.0219 -0.1112
  362TIP3    H122577   2.784   2.112  57.479  0.8442 -1.8860  0.6745
  362TIP3    H222578   2.692   2.102  57.600 -0.5587 -1.1836 -0.3083
  363TIP3   OH222579   0.323   0.217   9.441 -0.2344  0.6525  0.1465
  363TIP3    H122580   0.363   0.281   9.383  1.9944  0.1252  1.0071
  363TIP3    H222581   0.294   0.268   9.517 -2.6323  1.2526 -1.0739
  364TIP3   OH222582   3.256   0.368  18.030 -0.3429 -0.1322 -0.0767
  364TIP3    H122583   3.169   0.368  18.070 -0.0668  2.6926  0.7389
  364TIP3    H222584   3.246   0.419  17.949  0.6494  0.8630  0.3932
  365TIP3   OH222585   3.261   1.978  47.370  0.2604  0.2676  0.1169
  365TIP3    H122586   3.275   2.004  47.461 -0.7128  1.2579  0.0047
  365TIP3    H222587   3.177   2.018  47.346  1.1006  1.0787 -1.6190
  366TIP3   OH222588   1.056   1.458  57.507 -0.4132 -0.2533  0.0767
  366TIP3    H122589   0.998   1.533  57.521 -1.6826 -1.4681  1.7976
  366TIP3    H222590   1.056   1.444  57.412 -1.9842  0.5223 -0.0565
  367TIP3   OH222591   1.516   1.846  56.202 -0.3308  0.0028  0.2080
  367TIP3    H122592   1.549   1.821  56.288  0.6903  1.1187  0.1636
  367TIP3    H222593   1.589   1.830  56.142 -0.7671 -0.0108 -0.3337
  368TIP3   OH222594   1.846   0.096  55.272 -0.3981 -0.1014  0.1590
  368TIP3    H122595   1.786   0.024  55.290  0.2045 -0.3850  1.1111
  368TIP3    H222596   1.917   0.084  55.335 -0.1606  1.1861  0.1616
  369TIP3   OH222597   0.291   2.738  11.979  0.2827  0.2990  0.0665
  369TIP3    H122598   0.296   2.713  12.071  0.1940  1.0092  0.2698
  369TIP3    H222599   0.375   2.713  11.942  0.1271 -0.4604  0.2203
  370TIP3   OH222600   2.334   0.643  59.999  0.6003  0.2497 -0.1536
  370TIP3    H122601   2.358   0.730  59.967 -1.2936  1.2747  1.0584
  370TIP3    H222602   2.278   0.659  60.075 -0.2155 -2.0129 -0.1908
  371TIP3   OH222603   0.191   3.344  29.559  0.6522 -0.0045  0.1004
  371TIP3    H122604   0.177   3.439  29.554  0.0395 -0.0566  0.6165
  371TIP3    H222605   0.238   3.331  29.641 -1.7271 -0.3674  1.5115
  372TIP3   OH222606   0.943   3.068  42.545  0.1834 -0.2089 -0.2216
  372TIP3    H122607   1.027   3.058  42.591  1.1525  0.0704 -1.8400
  372TIP3    H222608   0.911   3.153  42.574  2.1461  1.2586 -2.0436
  373TIP3   OH222609   3.225   1.036  18.809 -0.3814  0.2001  0.1837
  373TIP3    H122610   3.309   1.056  18.851  0.5661  0.1006 -1.5955
  373TIP3    H222611   3.224   0.941  18.800  0.4451  0.3419 -1.9456
  374TIP3   OH222612   0.717   1.920  10.414  0.0280  0.1517 -0.4039
  374TIP3    H122613   0.686   1.920  10.323 -0.7324  0.8528 -0.1549
  374TIP3    H222614   0.645   1.882  10.464 -0.2531  1.3152  0.1143
  375TIP3   OH222615   1.590   3.429  65.804 -0.3303 -0.5010 -0.4184
  375TIP3    H122616   1.686   3.437  65.805 -0.4513  1.6236  1.0742
  375TIP3    H222617   1.559   3.513  65.837 -2.6343 -2.0726  1.7780
  376TIP3   OH222618   0.981   1.009  17.323 -0.1297  0.1878  0.2798
  376TIP3    H122619   0.969   1.088  17.270  3.3338 -0.4871 -1.7958
  376TIP3    H222620   1.066   1.020  17.365  1.4975 -3.1364 -1.6958
  377TIP3   OH222621   0.137   1.220   3.962  0.2763  0.1057 -0.3874
  377TIP3    H122622   0.130   1.196   4.054  0.2285  0.9093 -0.1678
  377TIP3    H222623   0.210   1.168   3.929  0.3255 -0.1520  0.1212
  378TIP3   OH222624   2.951   3.078  53.343  0.0034 -0.2511 -1.0191
  378TIP3    H122625   2.874   3.052  53.293  1.2184 -2.9099 -1.6629
  378TIP3    H222626   3.024   3.069  53.282  1.3655 -2.2894  0.7491
  379TIP3   OH222627   1.537   1.439  61.586 -0.0219 -0.7650  0.6511
  379TIP3    H122628   1.534   1.378  61.659 -2.1713 -2.0009 -0.3713
  379TIP3    H222629   1.454   1.426  61.540  0.3237  1.4947 -0.7895
  380TIP3   OH222630   2.565   1.981   3.310 -0.2752  0.3503  0.9898
  380TIP3    H122631   2.618   1.947   3.238 -0.2204 -0.8194  1.5571
  380TIP3    H222632   2.478   1.992   3.273  0.2305  1.9122  0.1572
  381TIP3   OH222633   2.572   0.584  44.088 -0.0423  0.3024 -0.2018
  381TIP3    H122634   2.539   0.527  44.018 -1.3110  0.5297  0.1772
  381TIP3    H222635   2.499   0.588  44.151  1.5415 -1.0880  1.8712
  382TIP3   OH222636   2.060   3.282  56.928  0.6803  0.2756  0.2346
  382TIP3    H122637   2.036   3.356  56.984  0.6309 -0.4268  1.1615
  382TIP3    H222638   1.978   3.235  56.913  0.9914 -0.6109  1.1793
  383TIP3   OH222639   2.403   2.288  62.375  0.0664 -0.3948  0.1425
  383TIP3    H122640   2.318   2.249  62.394  0.1551 -0.4102  0.5191
  383TIP3    H222641   2.420   2.265  62.283 -1.2412  1.3038 -0.5836
  384TIP3   OH222642   2.535   0.497  56.779 -0.2771 -0.0355 -0.0280
  384TIP3    H122643   2.552   0.413  56.737 -0.4863 -0.3467  0.4948
  384TIP3    H222644   2.512   0.474  56.870 -0.5554  0.5648  0.0615
  385TIP3   OH222645   2.036   2.541   4.001 -0.7072 -0.3040  0.0011
  385TIP3    H122646   2.080   2.457   3.987 -1.2197 -0.6990  0.7053
  385TIP3    H222647   2.097   2.590   4.056 -0.9293 -0.6685  0.5779
  386TIP3   OH222648   1.942   0.545  42.846  0.0588 -0.0504  0.1781
  386TIP3    H122649   2.021   0.534  42.898  0.3922 -1.7282 -0.6283
  386TIP3    H222650   1.912   0.634  42.867  1.8079  0.4020  0.9459
  387TIP3   OH222651   2.549   2.982  28.969  0.0471  0.1418 -0.1120
  387TIP3    H122652   2.489   3.001  29.041  1.7444  1.5001  1.0171
  387TIP3    H222653   2.568   2.889  28.978 -0.1414  0.1897  0.9223
  388TIP3   OH222654   0.562   1.094  59.414 -0.0768 -0.4658  0.9157
  388TIP3    H122655   0.620   1.055  59.479 -0.1704 -1.8191  0.2354
  388TIP3    H222656   0.485   1.037  59.413 -0.0849 -0.4763 -0.3486
  389TIP3   OH222657   2.868   2.708  58.621  0.3629  0.1858 -0.0497
  389TIP3    H122658   2.819   2.782  58.658  0.8687  0.6531 -0.2962
  389TIP3    H222659   2.811   2.633  58.634  0.1477  0.4949  0.8716
  390TIP3   OH222660   2.638   0.433  67.062 -0.1099 -0.6716  0.3247
  390TIP3    H122661   2.563   0.380  67.086 -1.4143 -0.0009 -1.9544
  390TIP3    H222662   2.688   0.379  67.001  1.8070 -1.4419  2.4558
  391TIP3   OH222663   1.989   2.160   5.934  0.2387  0.1291 -0.1026
  391TIP3    H122664   1.931   2.225   5.973  0.8404  0.4253  0.3272
  391TIP3    H222665   1.934   2.084   5.920  0.1225 -0.2187  1.9504
  392TIP3   OH222666   3.229   2.859   6.834  0.0436 -0.2424 -0.7828
  392TIP3    H122667   3.203   2.892   6.920 -0.6401 -2.5654 -0.0007
  392TIP3    H222668   3.322   2.840   6.841  0.0890  0.0062 -0.7184
  393TIP3   OH222669   0.917   2.078  67.275 -0.1344  0.5447  0.2618
  393TIP3    H122670   0.907   1.995  67.321 -0.9856  0.2456 -0.4452
  393TIP3    H222671   0.982   2.126  67.327  3.0816 -1.8860 -1.1365
  394TIP3   OH222672   1.013   0.421  66.682 -0.1893 -0.3563  0.4567
  394TIP3    H122673   1.054   0.449  66.764 -3.4552 -0.6235  2.3806
  394TIP3    H222674   1.050   0.335  66.665  0.9487 -0.0731  1.3732
  395TIP3   OH222675   1.488   2.310  46.853 -0.1092 -0.2354  0.1925
  395TIP3    H122676   1.561   2.357  46.813  0.0239 -0.9192 -0.3956
  395TIP3    H222677   1.437   2.378  46.896  0.0217  0.4664 -0.7158
  396TIP3   OH222678   1.868   2.764  20.898  0.3030  0.3811  0.4504
  396TIP3    H122679   1.814   2.722  20.832  1.0949 -0.5270  0.3501
  396TIP3    H222680   1.869   2.856  20.874 -0.3382  0.2335 -0.1478
  397TIP3   OH222681   0.352   0.929  51.092 -0.0705 -0.1587  0.4465
  397TIP3    H122682   0.384   1.016  51.112 -1.7758  0.2464  1.6333
  397TIP3    H222683   0.418   0.892  51.034  0.5974  1.9871 -0.2610
  398TIP3   OH222684   1.487   0.784  64.362  0.4736  0.2467 -0.0787
  398TIP3    H122685   1.545   0.857  64.382  0.1330  0.1742  1.2040
  398TIP3    H222686   1.543   0.707  64.370  0.2094  0.1742  1.1900
  399TIP3   OH222687   1.527   2.518  35.613  0.5784  0.2224  0.1663
  399TIP3    H122688   1.454   2.547  35.668 -0.3700 -1.5078 -0.0839
  399TIP3    H222689   1.499   2.540  35.523 -0.3921 -1.7793 -0.0769
  400TIP3   OH222690   1.043   1.350  43.074  0.1262 -0.0931 -0.2640
  400TIP3    H122691   1.128   1.389  43.054 -0.5911  1.5479 -0.2595
  400TIP3    H222692   0.986   1.379  43.003 -1.4602  2.4267  1.8275
  401TIP3   OH222693   0.506   1.360  46.127  0.0020 -0.0286 -0.2640
  401TIP3    H122694   0.430   1.335  46.180 -1.5221 -0.2914 -2.4004
  401TIP3    H222695   0.538   1.441  46.166 -1.9241  0.5537  0.2362
  402TIP3   OH222696   1.191   3.154   6.893  0.4686 -0.0375 -0.0964
  402TIP3    H122697   1.163   3.223   6.832  0.0473 -0.0423  0.0873
  402TIP3    H222698   1.200   3.076   6.839  1.3239  0.2485 -0.3767
  403TIP3   OH222699   1.333   0.981  63.360  0.3620  0.0682  0.7982
  403TIP3    H122700   1.312   1.047  63.427  0.8722  0.3252  0.7089
  403TIP3    H222701   1.249   0.962  63.318  0.3724  1.4862  0.0753
  404TIP3   OH222702   2.659   1.625  49.789 -0.6420 -0.1751  0.2080
  404TIP3    H122703   2.680   1.626  49.695 -0.9994 -0.7984  0.1166
  404TIP3    H222704   2.688   1.539  49.819 -0.7938 -0.0880  0.6078
  405TIP3   OH222705   1.982   0.874  18.033 -0.0048  0.4964 -0.1259
  405TIP3    H122706   2.056   0.828  17.993  0.1733  0.1550  0.5885
  405TIP3    H222707   2.018   0.912  18.113 -0.6351  0.2164  0.2985
  406TIP3   OH222708   0.131   1.017  21.073  0.5078 -0.6024  0.2546
  406TIP3    H122709   0.055   1.038  21.020  0.4481 -0.7402  0.2856
  406TIP3    H222710   0.112   1.056  21.158 -0.5144 -2.4811  0.9463
  407TIP3   OH222711   0.294   1.763  64.794 -0.4123 -0.0319 -0.2575
  407TIP3    H122712   0.387   1.743  64.785 -0.7323 -2.5519  1.2064
  407TIP3    H222713   0.256   1.733  64.711 -0.2003 -1.0489 -0.0005
  408TIP3   OH222714   2.922   0.158  63.135 -0.1135 -0.4410  0.2285
  408TIP3    H122715   2.828   0.157  63.117  0.3377 -2.5961 -2.9859
  408TIP3    H222716   2.960   0.106  63.064  3.5888  0.7198  1.1484
  409TIP3   OH222717   1.149   2.977  55.848 -0.2026  0.2936  0.0538
  409TIP3    H122718   1.189   2.904  55.896  2.6076  1.6491 -0.0612
  409TIP3    H222719   1.147   3.048  55.912  0.4603  1.1454 -0.8531
  410TIP3   OH222720   0.366   0.808   2.014 -0.1197  0.8618  0.1991
  410TIP3    H122721   0.297   0.827   2.078  0.0220  0.2504  0.5365
  410TIP3    H222722   0.356   0.715   1.995  2.4929 -0.0223  2.5432
  411TIP3   OH222723   2.909   0.842   4.086 -0.3344  0.2417  0.3262
  411TIP3    H122724   2.941   0.908   4.148  0.1123  2.6943 -2.2713
  411TIP3    H222725   2.817   0.830   4.109  0.0864  0.2081  2.1257
  412TIP3   OH222726   1.109   1.595   8.774  0.0956  0.2853 -0.2697
  412TIP3    H122727   1.054   1.533   8.822  0.7809 -0.8534 -0.9269
  412TIP3    H222728   1.061   1.611   8.692  0.2151  0.1273 -0.3716
  413TIP3   OH222729   1.323   3.421  61.925 -0.1874  0.7593  0.1603
  413TIP3    H122730   1.353   3.447  61.838  1.2209  0.6956  0.5964
  413TIP3    H222731   1.230   3.403  61.914  0.7428 -4.2536 -2.5730
  414TIP3   OH222732   1.023   1.930  19.525  0.3592 -0.2406  0.1384
  414TIP3    H122733   0.937   1.948  19.488  0.5628  1.4829  0.3831
  414TIP3    H222734   1.084   1.947  19.453  0.5625 -0.1251  0.3373
  415TIP3   OH222735   0.168   2.821  54.014 -0.2017  0.1463  0.2748
  415TIP3    H122736   0.111   2.745  54.006 -0.2586  0.1187  0.8986
  415TIP3    H222737   0.118   2.883  54.068  0.0423  0.4282  0.1781
  416TIP3   OH222738   0.813   1.470  52.909 -0.0028 -0.1120 -0.0743
  416TIP3    H122739   0.908   1.472  52.894 -0.1772  1.8334 -1.2616
  416TIP3    H222740   0.775   1.480  52.822 -1.3377 -1.3957  0.3251
  417TIP3   OH222741   0.134   3.424  52.508 -0.7612 -0.2166  0.6944
  417TIP3    H122742   0.117   3.454  52.597 -1.1630 -2.1558  1.3093
  417TIP3    H222743   0.059   3.368  52.487 -0.7295  0.2946 -0.9242
  418TIP3   OH222744   2.176   3.081  59.364  0.2760 -0.3269 -0.2707
  418TIP3    H122745   2.139   3.026  59.296  2.5411 -0.6130 -1.3861
  418TIP3    H222746   2.109   3.147  59.382 -1.0935 -1.3447 -1.4497
  419TIP3   OH222747   0.118   2.130  19.941  0.3341  0.8768 -0.3025
  419TIP3    H122748   0.185   2.129  20.009  2.9900 -4.0079 -2.5079
  419TIP3    H222749   0.156   2.184  19.872  1.3171 -0.4571 -0.8491
  420TIP3   OH222750   1.792   2.015  43.585 -0.8711 -0.2722  0.2781
  420TIP3    H122751   1.701   2.042  43.584 -0.7902  0.1940  2.0631
  420TIP3    H222752   1.838   2.086  43.631  0.4416 -0.3579 -0.8308
  421TIP3   OH222753   3.091   3.190  54.007  0.9444 -0.8640  1.1639
  421TIP3    H122754   3.117   3.249  53.936  1.9477 -1.5239  0.9553
  421TIP3    H222755   3.068   3.248  54.079 -1.3658 -0.1292 -0.0677
  422TIP3   OH222756   0.151   1.758  16.574  0.0889 -0.0280  0.3121
  422TIP3    H122757   0.058   1.737  16.571  0.3805 -1.3878 -1.0800
  422TIP3    H222758   0.188   1.693  16.634  0.0693  0.9611  1.4259
  423TIP3   OH222759   0.952   1.604  35.830 -0.4154 -0.0478 -0.6129
  423TIP3    H122760   1.039   1.574  35.857  0.3270  0.8700 -1.8839
  423TIP3    H222761   0.918   1.652  35.906  0.4425  0.1062 -0.3148
  424TIP3   OH222762   0.029   2.571  67.213 -0.4139  0.0113  0.0819
  424TIP3    H122763   0.112   2.614  67.229  1.2714 -2.5934 -0.9755
  424TIP3    H222764  -0.021   2.633  67.160  0.1660  2.2517  1.9955
  425TIP3   OH222765   0.740   1.791  45.841 -0.4563 -0.4939  0.7943
  425TIP3    H122766   0.747   1.886  45.843  0.0310 -0.4491 -1.2566
  425TIP3    H222767   0.671   1.773  45.777 -1.9586 -1.5151  2.6109
  426TIP3   OH222768   2.023   3.403  60.835 -0.5821 -0.3890 -0.5131
  426TIP3    H122769   2.046   3.442  60.751  0.0618  0.3687  0.0005
  426TIP3    H222770   1.931   3.378  60.826 -0.3535 -0.8839 -1.6469
  427TIP3   OH222771   1.823   0.946   3.318 -0.1083  0.6413  0.2122
  427TIP3    H122772   1.770   0.867   3.306 -1.6881  1.8771 -1.7011
  427TIP3    H222773   1.830   0.956   3.413  0.0487 -1.6840  0.5168
  428TIP3   OH222774   2.796   1.828  50.094  0.0056 -0.1202  0.1070
  428TIP3    H122775   2.768   1.787  50.176 -0.9000 -3.9333 -1.9088
  428TIP3    H222776   2.883   1.791  50.077  0.9842  2.0054  0.1039
  429TIP3   OH222777   2.798   1.617  19.893 -0.3929  0.5210 -0.2179
  429TIP3    H122778   2.794   1.708  19.923  0.6758  0.3394  0.5397
  429TIP3    H222779   2.838   1.623  19.806 -0.0434  0.7460 -0.0440
  430TIP3   OH222780   2.885   0.928  18.432 -0.9116 -0.0324  0.3001
  430TIP3    H122781   2.852   0.986  18.364  2.1205 -0.3685 -1.6107
  430TIP3    H222782   2.938   0.984  18.489 -0.0232 -0.4543 -0.0913
  431TIP3   OH222783   3.203   0.649  30.826  0.4598 -0.3732  0.0909
  431TIP3    H122784   3.298   0.651  30.825  0.4535  0.1484  0.2203
  431TIP3    H222785   3.181   0.591  30.900  0.6695 -1.6250 -0.7926
  432TIP3   OH222786   3.419   2.834  48.556  0.0647  0.0229 -0.0961
  432TIP3    H122787   3.497   2.799  48.600 -0.0377  0.4642  0.4549
  432TIP3    H222788   3.360   2.760  48.549 -1.0296  0.4557  3.0099
  433TIP3   OH222789   0.248   0.246   7.467 -0.1566  0.4642 -0.0660
  433TIP3    H122790   0.257   0.335   7.432 -2.7805  0.6807 -0.4218
  433TIP3    H222791   0.182   0.255   7.536  0.4785 -1.0195  0.7774
  434TIP3   OH222792   3.242   1.930  64.187  0.2822  0.4485 -0.0030
  434TIP3    H122793   3.265   1.869  64.257  2.6083 -1.1091 -1.9653
  434TIP3    H222794   3.146   1.926  64.183  0.2998 -3.3758 -0.1816
  435TIP3   OH222795   3.415   0.849   3.172 -0.0284 -0.0249 -0.3921
  435TIP3    H122796   3.462   0.927   3.140  0.8161 -0.2730  0.2088
  435TIP3    H222797   3.397   0.799   3.092  0.9797 -0.0478 -0.6289
  436TIP3   OH222798   1.138   2.840   7.803  0.2527 -0.7116 -0.1040
  436TIP3    H122799   1.183   2.757   7.788  1.8992  0.2230 -0.5922
  436TIP3    H222800   1.128   2.846   7.898 -1.7526 -2.3807 -0.1543
  437TIP3   OH222801   2.326   1.113  54.228  0.4316 -0.4577  0.2001
  437TIP3    H122802   2.302   1.193  54.181  1.4079 -0.6120 -0.6032
  437TIP3    H222803   2.328   1.139  54.320  0.8026  0.4651 -0.0636
  438TIP3   OH222804   2.479   3.046  44.159  0.1259 -0.6345 -0.9527
  438TIP3    H122805   2.410   3.005  44.212  0.1346  0.6309  0.1025
  438TIP3    H222806   2.528   2.973  44.122  0.4810 -1.6298  1.2823
  439TIP3   OH222807   3.409   1.008  42.615  1.0282  0.2182  0.0341
  439TIP3    H122808   3.405   0.913  42.627 -1.2471  0.2477 -0.1777
  439TIP3    H222809   3.445   1.019  42.527  0.1858 -0.4926 -0.4186
  440TIP3   OH222810   0.321   2.564  53.741 -0.3707 -0.3174  0.2908
  440TIP3    H122811   0.254   2.590  53.679 -0.3019  1.8307  1.0547
  440TIP3    H222812   0.338   2.642  53.794 -0.0642 -1.8740  2.6906
  441TIP3   OH222813   1.628   1.965  53.846 -0.4791  0.0690 -0.0181
  441TIP3    H122814   1.588   1.919  53.773 -0.2438 -0.5194  0.2147
  441TIP3    H222815   1.718   1.983  53.818 -0.5697  0.3987 -0.1082
  442TIP3   OH222816   1.580   2.523  51.308  0.0275  0.1662 -0.2242
  442TIP3    H122817   1.604   2.432  51.324 -0.2627 -0.5572 -3.2306
  442TIP3    H222818   1.655   2.561  51.262 -0.5443  0.9169 -0.5792
  443TIP3   OH222819   1.725   0.399  65.002  0.4502 -0.2841  0.1676
  443TIP3    H122820   1.679   0.453  65.066 -0.3149  0.9749 -1.3753
  443TIP3    H222821   1.814   0.434  65.000  0.8513 -1.1553  1.4058
  444TIP3   OH222822   0.900   2.060  18.033 -0.7367  0.0759  0.3209
  444TIP3    H122823   0.917   2.040  18.125 -0.1643  0.8055  0.3851
  444TIP3    H222824   0.981   2.101  18.002 -0.9371 -0.1225 -0.5019
  445TIP3   OH222825   0.348   3.085  64.535  0.3291 -0.0464  0.3575
  445TIP3    H122826   0.432   3.052  64.504  0.1801  0.0631 -0.1738
  445TIP3    H222827   0.286   3.016  64.514  0.3511 -0.3444  1.2005
  446TIP3   OH222828   1.081   0.151  48.478  0.0790  0.0538 -0.2930
  446TIP3    H122829   1.007   0.209  48.462  0.2259  0.7908  1.4813
  446TIP3    H222830   1.046   0.083  48.536  0.3099 -0.7497 -1.0719
  447TIP3   OH222831   2.291   2.761  56.472  0.2230  0.0376 -0.1483
  447TIP3    H122832   2.345   2.840  56.475  0.8126 -0.2310 -2.0871
  447TIP3    H222833   2.305   2.718  56.556 -0.8049  2.3981  1.3309
  448TIP3   OH222834   0.522   3.308  65.838  0.3838 -0.0903  0.1961
  448TIP3    H122835   0.487   3.396  65.852  1.7102  0.5477 -0.4120
  448TIP3    H222836   0.508   3.263  65.922  1.6869  1.3957  1.2527
  449TIP3   OH222837   1.696   2.422   0.333  0.7256  0.0745 -0.1376
  449TIP3    H122838   1.669   2.479   0.405  0.0852  0.4402 -0.6520
  449TIP3    H222839   1.734   2.482   0.268  0.3766 -0.1234 -0.5296
  450TIP3   OH222840   2.047   1.551  48.396  0.0447  0.4345  0.5675
  450TIP3    H122841   1.981   1.577  48.332  1.5126 -0.8647 -1.5749
  450TIP3    H222842   2.107   1.626  48.400  0.2984  0.2658 -0.0656
  451TIP3   OH222843   1.274   1.800  19.951  0.1534 -0.8092 -0.2440
  451TIP3    H122844   1.201   1.795  19.889 -0.9144  1.1392  0.7503
  451TIP3    H222845   1.317   1.715  19.945 -1.7328 -1.7385 -1.4278
  452TIP3   OH222846   0.896   2.198  19.375 -0.2681  0.4131  1.1479
  452TIP3    H122847   0.818   2.230  19.423 -0.6829 -1.7018  1.9986
  452TIP3    H222848   0.967   2.204  19.439 -0.5044 -0.9535  1.5822
  453TIP3   OH222849   0.423   2.462  16.686 -0.0025 -0.0314 -0.0685
  453TIP3    H122850   0.501   2.482  16.738 -0.9436  2.5874  0.4453
  453TIP3    H222851   0.384   2.386  16.729  2.1398 -1.3481 -0.2753
  454TIP3   OH222852   2.111   2.917  16.450  0.5049  0.7677  0.9731
  454TIP3    H122853   2.030   2.904  16.400 -0.1854  0.3807  2.1476
  454TIP3    H222854   2.166   2.971  16.393  0.4981 -1.1271 -0.9861
  455TIP3   OH222855   3.001   1.229  51.204 -0.6127 -0.0426  0.1294
  455TIP3    H122856   3.065   1.253  51.136  0.8185 -0.7182  1.1792
  455TIP3    H222857   2.919   1.267  51.174  0.3801  1.2870 -1.0536
  456TIP3   OH222858   2.531   1.764  55.015  0.1824 -0.3705  0.1162
  456TIP3    H122859   2.490   1.679  55.001  2.0347 -1.7173  2.2869
  456TIP3    H222860   2.624   1.749  54.999  0.4212  1.5697 -0.6005
  457TIP3   OH222861   3.077   2.639  60.462 -0.3658  0.0465  0.0847
  457TIP3    H122862   3.114   2.568  60.515 -0.3758 -1.0361 -1.2961
  457TIP3    H222863   3.138   2.711  60.474  0.6975 -0.8148  0.0516
  458TIP3   OH222864   0.778   0.640  20.820  0.6296 -0.0149  0.0912
  458TIP3    H122865   0.712   0.574  20.842 -0.0138  0.3138 -0.7655
  458TIP3    H222866   0.760   0.713  20.879 -0.1233  0.2774 -0.4821
  459TIP3   OH222867   2.881   2.886  11.176  0.3574 -0.4658 -0.1991
  459TIP3    H122868   2.911   2.972  11.149  2.1319 -0.6500  1.0095
  459TIP3    H222869   2.818   2.860  11.109 -0.6523  1.9866 -0.2731
  460TIP3   OH222870   1.528   0.866  57.824 -0.1753 -0.0618  0.2865
  460TIP3    H122871   1.496   0.883  57.736 -1.3080  1.4280  0.9441
  460TIP3    H222872   1.596   0.933  57.838  0.0930 -0.3741  0.4986
  461TIP3   OH222873   1.709   0.520  20.711  0.6698  0.9613  0.5025
  461TIP3    H122874   1.689   0.504  20.803  1.9924 -2.5428  0.3156
  461TIP3    H222875   1.804   0.526  20.707  0.9869 -2.6795 -0.9482
  462TIP3   OH222876   0.356   0.679  61.054  0.0820  0.3517  0.6018
  462TIP3    H122877   0.313   0.646  60.975  2.5137  0.5615 -0.9149
  462TIP3    H222878   0.367   0.773  61.038  1.0844  0.2984  0.8991
  463TIP3   OH222879   1.719   2.765  59.052 -0.1557 -0.0427  0.1682
  463TIP3    H122880   1.720   2.829  58.981 -1.8543 -1.0194 -0.8150
  463TIP3    H222881   1.795   2.709  59.035 -0.2697  0.0268 -0.6057
  464TIP3   OH222882   2.671   0.759   4.229  0.5908 -0.1393  0.4289
  464TIP3    H122883   2.647   0.826   4.293 -1.1583 -0.6384  0.3538
  464TIP3    H222884   2.593   0.749   4.174  1.0824 -1.6581 -0.0622
  465TIP3   OH222885   0.504   2.164  52.889 -0.0944 -0.1103 -0.2372
  465TIP3    H122886   0.485   2.103  52.960 -1.9133  1.2061  0.4720
  465TIP3    H222887   0.596   2.189  52.903  0.3489 -1.8107  0.0795
  466TIP3   OH222888   0.833   2.859   4.017 -0.1430 -0.0828  0.4746
  466TIP3    H122889   0.773   2.922   4.057 -1.2045 -1.1554  0.6208
  466TIP3    H222890   0.804   2.853   3.926 -0.0907 -0.4045  0.4796
  467TIP3   OH222891   2.514   1.822  27.826 -0.5165 -0.0994  0.7775
  467TIP3    H122892   2.458   1.852  27.898  0.4024 -1.0570  1.9324
  467TIP3    H222893   2.602   1.850  27.851 -0.2387 -0.0869 -0.1947
  468TIP3   OH222894   2.317   3.355   2.401 -0.7172  0.2000  0.0202
  468TIP3    H122895   2.273   3.397   2.327 -1.6121  0.1832  0.5304
  468TIP3    H222896   2.398   3.321   2.364 -0.8577  0.7295 -0.8172
  469TIP3   OH222897   1.699   2.437  64.584  0.4193  0.0426 -0.3971
  469TIP3    H122898   1.671   2.472  64.668  0.1892  0.2566 -0.5627
  469TIP3    H222899   1.696   2.342  64.596 -2.1370 -0.0221 -0.9546
  470TIP3   OH222900   2.676   0.397  12.626  0.3009  0.8142 -0.2408
  470TIP3    H122901   2.676   0.425  12.718  2.8976 -1.5003  0.6007
  470TIP3    H222902   2.583   0.388  12.604 -0.3985  0.8668  2.3487
  471TIP3   OH222903   3.112   0.656  60.359  0.1013  0.7353 -1.0039
  471TIP3    H122904   3.043   0.617  60.412  0.2990  0.6687 -0.7960
  471TIP3    H222905   3.183   0.673  60.420 -0.3866  2.4504 -0.8805
  472TIP3   OH222906   1.117   1.664  57.092  0.6048  0.2639 -0.5115
  472TIP3    H122907   1.094   1.754  57.114  0.9830  0.4848 -1.0064
  472TIP3    H222908   1.211   1.658  57.109  0.1107 -0.9082  2.4172
  473TIP3   OH222909   3.128   2.693  17.681 -0.4978  0.4192  0.0121
  473TIP3    H122910   3.175   2.640  17.745 -2.1652 -2.3371 -0.8807
  473TIP3    H222911   3.150   2.783  17.704  1.6836 -0.5651  2.2716
  474TIP3   OH222912   3.067   2.138  21.013  0.2867  0.1218  0.2876
  474TIP3    H122913   3.008   2.076  20.969 -2.6981  1.8069  1.6086
  474TIP3    H222914   3.063   2.217  20.958  1.1159  0.3563  0.5542
  475TIP3   OH222915   2.465   0.363  48.657  0.1188 -0.1876 -0.4456
  475TIP3    H122916   2.397   0.426  48.680 -0.4881 -0.5536 -1.1859
  475TIP3    H222917   2.418   0.293  48.612  0.8870 -0.8146 -0.2847
  476TIP3   OH222918   2.590   1.452   3.072  0.0682  0.2430 -0.5089
  476TIP3    H122919   2.637   1.464   2.989 -0.1665 -0.2485 -0.7194
  476TIP3    H222920   2.552   1.538   3.091 -1.4820 -0.0757 -1.9066
  477TIP3   OH222921   2.698   2.550  22.690 -0.2940  0.5029 -0.0658
  477TIP3    H122922   2.674   2.458  22.702  1.2167  0.1061  0.1318
  477TIP3    H222923   2.617   2.598  22.702 -1.0023 -0.7696  0.3836
  478TIP3   OH222924   3.002   0.234  64.885  0.3342 -0.5156  0.6304
  478TIP3    H122925   2.934   0.260  64.823 -0.2776 -1.4671  0.8866
  478TIP3    H222926   3.070   0.195  64.830  0.3946 -0.1275  0.4236
  479TIP3   OH222927   1.172   0.893  51.556 -0.9486 -0.2419 -0.4096
  479TIP3    H122928   1.209   0.975  51.589 -2.7343  0.9335 -1.1692
  479TIP3    H222929   1.106   0.868  51.621  0.6715 -2.0245  0.6616
  480TIP3   OH222930   0.670   2.927  56.109 -0.1881  0.2407 -0.2594
  480TIP3    H122931   0.689   2.834  56.113 -2.0407 -0.1533  0.6984
  480TIP3    H222932   0.574   2.932  56.111 -0.1462  2.1398 -1.0116
  481TIP3   OH222933   0.386   1.945  15.287  0.1925 -0.0712  0.0749
  481TIP3    H122934   0.301   1.915  15.257 -0.1440  2.2697 -1.6204
  481TIP3    H222935   0.434   1.966  15.206  1.9827 -0.2688  1.0214
  482TIP3   OH222936   2.158   2.755  58.000  0.0130 -0.7662  0.4751
  482TIP3    H122937   2.236   2.724  58.047  0.8228 -0.6101 -0.7344
  482TIP3    H222938   2.161   2.710  57.916 -0.7211 -0.0765  0.0690
  483TIP3   OH222939   0.187   1.509  50.293 -0.1439  0.3737 -0.0666
  483TIP3    H122940   0.169   1.515  50.199  2.8780 -1.7674 -0.9346
  483TIP3    H222941   0.268   1.559  50.305 -0.4100  0.4874  1.3795
  484TIP3   OH222942   1.708   0.607  52.038  0.2293 -0.0664 -0.1651
  484TIP3    H122943   1.630   0.631  52.088  0.8049  0.8771  0.3007
  484TIP3    H222944   1.753   0.690  52.022  0.1463 -0.3669 -2.1309
  485TIP3   OH222945   0.513   2.136  46.692 -0.1573  0.5402  0.4018
  485TIP3    H122946   0.434   2.190  46.683  0.7494  1.7755 -0.4145
  485TIP3    H222947   0.572   2.188  46.747  0.7756  0.4406 -0.4708
  486TIP3   OH222948   2.513   3.120   8.720 -0.1664 -0.0193 -0.0701
  486TIP3    H122949   2.491   3.036   8.760  0.2746 -0.3154 -0.4405
  486TIP3    H222950   2.604   3.135   8.746  0.9146 -1.3027 -2.7663
  487TIP3   OH222951   1.521   2.553   9.211 -0.5397  0.3200 -0.0919
  487TIP3    H122952   1.430   2.533   9.188 -0.7111 -0.2815  1.0231
  487TIP3    H222953   1.528   2.529   9.303  0.7539  0.3824 -0.1576
  488TIP3   OH222954   1.467   0.030  53.921  0.1987  0.6128 -0.5922
  488TIP3    H122955   1.408   0.030  53.998 -0.1374 -0.0525 -0.8435
  488TIP3    H222956   1.548   0.070  53.953 -0.6546  2.3228 -0.4505
  489TIP3   OH222957   0.986   2.113  54.436 -0.1455  0.4408  0.5082
  489TIP3    H122958   0.961   2.201  54.464  1.3211  1.9259 -2.4096
  489TIP3    H222959   0.934   2.097  54.357 -1.0524 -1.7412  1.4881
  490TIP3   OH222960   2.187   0.525  42.964 -0.1321 -0.2319  0.3703
  490TIP3    H122961   2.232   0.441  42.966  0.6394  0.1923  1.7635
  490TIP3    H222962   2.237   0.577  42.900  0.3027 -0.3557  0.6017
  491TIP3   OH222963   2.868   2.093   8.417  0.4282  0.3078 -0.1524
  491TIP3    H122964   2.946   2.089   8.362 -0.2138 -0.3722 -1.0453
  491TIP3    H222965   2.851   2.002   8.442  0.5110  0.5638  0.9078
  492TIP3   OH222966   1.594   2.671  57.242 -0.1876  0.5051 -0.1442
  492TIP3    H122967   1.676   2.692  57.198  0.2547 -1.3405 -0.3083
  492TIP3    H222968   1.550   2.755  57.253  1.5074  1.4824 -0.4688
  493TIP3   OH222969   0.602   1.398  46.748  0.3867  0.0235 -0.6002
  493TIP3    H122970   0.529   1.340  46.726 -0.6481  1.2602 -0.5414
  493TIP3    H222971   0.562   1.465  46.804  2.2940 -1.3535  2.6995
  494TIP3   OH222972   1.071   2.602  50.919  0.3166  0.0801  1.1482
  494TIP3    H122973   1.101   2.661  50.989  0.0326  0.4930  0.9306
  494TIP3    H222974   1.145   2.544  50.903  1.4543  1.8036 -0.1703
  495TIP3   OH222975   2.439   3.322  62.249  0.4459 -0.5888 -0.1092
  495TIP3    H122976   2.365   3.266  62.275 -0.0610 -0.1636 -0.6113
  495TIP3    H222977   2.513   3.290  62.301  0.0596 -1.4400 -0.0719
  496TIP3   OH222978   2.199   0.852   0.205 -0.0479 -0.3127 -0.1030
  496TIP3    H122979   2.246   0.828   0.125  0.2201 -1.1465  0.2925
  496TIP3    H222980   2.108   0.864   0.176  0.4604  1.8441 -0.9659
  497TIP3   OH222981   1.834   3.239  62.723 -0.1413  0.2863 -0.0436
  497TIP3    H122982   1.869   3.328  62.713 -0.7646  0.2853 -3.7117
  497TIP3    H222983   1.801   3.217  62.636  0.7637 -3.9159  0.4707
  498TIP3   OH222984   0.427   3.230  60.348  0.2648  0.7594 -0.2210
  498TIP3    H122985   0.489   3.303  60.352  2.0301 -0.5936 -1.3844
  498TIP3    H222986   0.472   3.157  60.390  0.0627 -0.6297 -2.2652
  499TIP3   OH222987   0.330   2.202  56.097 -0.0655 -0.1169  0.8224
  499TIP3    H122988   0.283   2.180  56.016  0.8250 -1.2839  0.6007
  499TIP3    H222989   0.352   2.295  56.087  0.4224 -0.3510 -0.4861
  500TIP3   OH222990   1.214   3.336  11.715  0.2370 -0.3053  0.0806
  500TIP3    H122991   1.177   3.393  11.782 -0.9190  1.5239 -2.0023
  500TIP3    H222992   1.158   3.258  11.716  0.1195 -0.2145  1.0753
  501TIP3   OH222993   1.412   3.385   6.494 -0.2779 -0.3514  0.1314
  501TIP3    H122994   1.405   3.340   6.578 -0.2583 -0.2402  0.1936
  501TIP3    H222995   1.406   3.316   6.429 -0.3188 -0.4358  0.2242
  502TIP3   OH222996   1.964   2.495  60.526  0.2829  0.3790 -0.1915
  502TIP3    H122997   2.044   2.485  60.473  0.9873  0.8927  0.7528
  502TIP3    H222998   1.963   2.419  60.583  1.3923  1.5096  1.4346
  503TIP3   OH222999   3.322   0.540  59.777 -0.4658 -0.1218  0.4891
  503TIP3    H123000   3.242   0.490  59.797 -0.6072  0.1277  0.5610
  503TIP3    H223001   3.308   0.571  59.687  0.5552 -1.9795 -0.3626
  504TIP3   OH223002   1.684   2.717  52.470 -0.4312  0.3545  0.0073
  504TIP3    H123003   1.770   2.759  52.479 -0.5112  0.2402  1.4675
  504TIP3    H223004   1.681   2.654  52.541 -1.7346  0.3563 -0.0321
  505TIP3   OH223005   3.426   0.002   2.604 -0.3505 -0.4610 -0.4578
  505TIP3    H123006   3.487  -0.058   2.563  2.5649  2.2147 -0.4917
  505TIP3    H223007   3.430  -0.020   2.697 -0.2526 -1.0511 -0.5985
  506TIP3   OH223008   0.858   0.316  35.765  0.6570  0.7857  0.7433
  506TIP3    H123009   0.914   0.365  35.825 -0.2333  1.9858  0.6286
  506TIP3    H223010   0.823   0.382  35.705 -0.0343 -0.0905  0.1451
  507TIP3   OH223011   1.713   2.400  48.973  0.1671  0.2446  0.7649
  507TIP3    H123012   1.739   2.413  49.064 -0.1564  2.3323  0.6093
  507TIP3    H223013   1.736   2.309  48.954  1.3411  0.1228  2.5500
  508TIP3   OH223014   0.130   0.584  15.315 -0.0284  0.1320 -0.1026
  508TIP3    H123015   0.183   0.515  15.276  0.0625  0.5097 -0.6633
  508TIP3    H223016   0.079   0.619  15.242  1.0922  1.7264 -0.1733
  509TIP3   OH223017   1.416   0.230  46.076 -0.2225 -0.2985  0.0028
  509TIP3    H123018   1.456   0.242  45.990 -1.2693 -1.0010 -0.5989
  509TIP3    H223019   1.490   0.226  46.137  0.5494 -0.3709 -0.9258
  510TIP3   OH223020   0.038   0.710  61.969 -0.0173  0.0206 -0.2758
  510TIP3    H123021   0.041   0.805  61.960  0.4136 -0.0249 -0.6270
  510TIP3    H223022   0.100   0.678  61.904 -0.2821 -0.5104 -0.2717
  511TIP3   OH223023   1.658   2.376  45.747 -0.6344  1.0855  0.2714
  511TIP3    H123024   1.657   2.464  45.784  1.2154  1.1984  0.1270
  511TIP3    H223025   1.565   2.353  45.739 -1.1459  2.7441  0.9179
  512TIP3   OH223026   0.856   0.374  11.991 -1.0171 -0.5574 -0.0560
  512TIP3    H123027   0.810   0.314  11.933  0.7391 -1.6413 -0.3835
  512TIP3    H223028   0.843   0.460  11.951 -1.2336 -1.0795 -1.1421
  513TIP3   OH223029   0.679   0.745  56.871  0.4986 -0.0431  0.8658
  513TIP3    H123030   0.689   0.788  56.956  0.2190  1.4070  0.1985
  513TIP3    H223031   0.630   0.808  56.818  1.9548 -0.2748 -0.8385
  514TIP3   OH223032   0.778   2.483  67.275  0.3113  0.1941  0.2489
  514TIP3    H123033   0.708   2.497  67.212  1.5188 -0.3064 -1.2702
  514TIP3    H223034   0.758   2.398  67.314 -0.4343  0.4976  0.5513
  515TIP3   OH223035   3.080   1.239  10.285 -0.2285  0.1134 -0.1209
  515TIP3    H123036   3.143   1.218  10.354  2.0266  2.3122 -1.3335
  515TIP3    H223037   3.043   1.323  10.310  0.5962  0.9230 -1.4968
  516TIP3   OH223038   1.583   2.544  52.916 -0.4540 -0.3745  0.0346
  516TIP3    H123039   1.647   2.526  52.985 -0.4384 -1.4545 -0.2451
  516TIP3    H223040   1.558   2.635  52.930  1.8277  0.3783 -0.4156
  517TIP3   OH223041   3.367   3.211  60.283  0.2085  0.7168  0.5730
  517TIP3    H123042   3.350   3.167  60.200  0.8845  0.4169  0.5883
  517TIP3    H223043   3.462   3.212  60.292  0.1383 -1.2997  2.4155
  518TIP3   OH223044   1.121   0.304  13.651  0.6656 -0.0049 -0.1385
  518TIP3    H123045   1.159   0.329  13.567  1.8982 -0.1926  0.3453
  518TIP3    H223046   1.083   0.386  13.685 -0.4415 -0.0637 -1.1482
  519TIP3   OH223047   1.955   3.315  12.747 -0.1103 -0.1102 -0.0215
  519TIP3    H123048   1.882   3.364  12.710 -0.0575  1.1590  1.4699
  519TIP3    H223049   1.963   3.238  12.690 -2.2076  0.0083 -0.5583
  520TIP3   OH223050   3.348   2.464  16.328 -0.6183 -0.1612 -0.1752
  520TIP3    H123051   3.393   2.394  16.281 -1.9077 -0.4961 -0.9609
  520TIP3    H223052   3.295   2.419  16.394 -1.4630  0.0445 -0.6905
  521TIP3   OH223053   2.188   0.621   4.201  0.2509 -0.0267  0.2099
  521TIP3    H123054   2.157   0.532   4.215  1.1751 -0.3815  0.0893
  521TIP3    H223055   2.133   0.655   4.131  0.6647 -0.9312 -0.5859
  522TIP3   OH223056   2.859   0.170  64.203  0.3191  0.0969  0.1097
  522TIP3    H123057   2.934   0.139  64.153 -0.2097  1.2755 -1.5261
  522TIP3    H223058   2.840   0.256  64.165 -1.1119  0.3402  1.2976
  523TIP3   OH223059   2.254   3.171  48.884 -0.7418  0.5302 -0.1628
  523TIP3    H123060   2.324   3.107  48.877 -1.1312 -0.0534  1.0292
  523TIP3    H223061   2.292   3.253  48.853  0.1155 -0.0280 -0.5934
  524TIP3   OH223062   2.015   3.349   6.776  0.5292 -0.0836  0.0391
  524TIP3    H123063   1.923   3.338   6.801  0.0912  0.2566 -1.3164
  524TIP3    H223064   2.026   3.294   6.698  1.1018  0.9044 -0.6038
  525TIP3   OH223065   1.733   3.001  14.291  0.1300  0.3138 -0.5772
  525TIP3    H123066   1.770   3.027  14.375 -2.0272  0.6232  0.3619
  525TIP3    H223067   1.800   2.947  14.250  0.5535 -1.4327  2.1919
  526TIP3   OH223068   1.989   2.297  55.785 -0.0127  0.8098  0.0298
  526TIP3    H123069   1.897   2.318  55.798 -0.8542 -2.0488 -0.6157
  526TIP3    H223070   2.004   2.309  55.691  0.0195  0.4491 -0.0152
  527TIP3   OH223071   3.054   2.082  66.177 -0.1911 -0.3843  0.3386
  527TIP3    H123072   2.974   2.031  66.185  0.1952 -1.4516 -1.8212
  527TIP3    H223073   3.123   2.017  66.166  1.1178  0.4900  2.6436
  528TIP3   OH223074   3.335   1.788  54.206 -0.3494 -0.5394  0.6013
  528TIP3    H123075   3.381   1.718  54.159  0.7615  0.6853 -0.1976
  528TIP3    H223076   3.281   1.742  54.271 -0.5184 -2.1881 -0.6448
  529TIP3   OH223077   2.833   2.853  12.924 -0.6680 -0.0161  0.0525
  529TIP3    H123078   2.840   2.879  12.832 -1.5298  1.3442  0.3625
  529TIP3    H223079   2.924   2.840  12.951 -0.4454 -1.6024 -1.2911
  530TIP3   OH223080   0.246   2.265  66.239 -0.0881  0.8682  0.7242
  530TIP3    H123081   0.159   2.251  66.203  0.1496  1.2064 -0.0031
  530TIP3    H223082   0.267   2.356  66.217  0.8113  0.5192  0.0833
  531TIP3   OH223083   1.089   0.641   2.890  0.1066 -0.7287  0.1040
  531TIP3    H123084   1.173   0.657   2.933  0.0825 -0.7699  0.1670
  531TIP3    H223085   1.026   0.692   2.942  0.5651  2.1781 -1.9639
  532TIP3   OH223086   1.547   1.478   2.469  0.0687  0.4724 -0.1982
  532TIP3    H123087   1.519   1.408   2.410  0.3762 -0.1948  0.4300
  532TIP3    H223088   1.570   1.433   2.550  0.5433  1.2745  0.1234
  533TIP3   OH223089   1.967   3.179   2.455  0.4562  0.5962  0.4590
  533TIP3    H123090   1.938   3.268   2.436 -0.9120 -0.2567 -1.7554
  533TIP3    H223091   2.059   3.178   2.428  0.3963  1.2341  0.2163
  534TIP3   OH223092   0.514   1.398  11.302 -0.3603  0.6001  0.1869
  534TIP3    H123093   0.584   1.432  11.245 -0.0063 -0.4213 -0.0070
  534TIP3    H223094   0.494   1.311  11.267 -1.6308  0.8091  0.3383
  535TIP3   OH223095   3.218   1.741  29.792  0.1610  0.3259 -0.5421
  535TIP3    H123096   3.147   1.696  29.838  0.3969  1.2582  0.7788
  535TIP3    H223097   3.279   1.767  29.861  2.4943 -1.5486 -1.7244
  536TIP3   OH223098   2.712   1.676  56.054 -0.0488  0.2857  0.4809
  536TIP3    H123099   2.770   1.600  56.063 -1.0994 -0.8922 -1.7383
  536TIP3    H223100   2.768   1.751  56.076  2.2319 -0.8163 -1.0559
  537TIP3   OH223101   1.711   1.747   2.039  0.1913  0.6379 -0.2080
  537TIP3    H123102   1.619   1.743   2.064  0.2257  0.8658 -0.0408
  537TIP3    H223103   1.725   1.670   1.983  0.5370 -0.8443  1.8238
  538TIP3   OH223104   2.505   3.307  44.802 -0.2086 -0.5937  0.2926
  538TIP3    H123105   2.487   3.272  44.715 -0.7959 -0.9084  0.5356
  538TIP3    H223106   2.564   3.243  44.841  1.0127  0.1370 -0.2887
  539TIP3   OH223107   3.331   2.282   0.201  0.8937 -0.0465  0.1570
  539TIP3    H123108   3.311   2.246   0.287  0.3501 -0.5032 -0.1487
  539TIP3    H223109   3.335   2.205   0.144  1.6413  0.2147 -0.1571
  540TIP3   OH223110   3.341   1.121  11.802 -0.6179 -0.1135 -0.7456
  540TIP3    H123111   3.249   1.094  11.793 -0.2774 -1.7277  0.1772
  540TIP3    H223112   3.365   1.094  11.890  0.6514  0.6335 -0.8392
  541TIP3   OH223113   0.647   2.083  54.453 -0.4990  0.1435  0.7774
  541TIP3    H123114   0.706   2.011  54.473 -1.6398 -0.8334  0.7567
  541TIP3    H223115   0.597   2.053  54.377 -1.9734  0.3411  1.6190
  542TIP3   OH223116   3.082   0.009  16.660 -0.3605 -0.2123 -0.2152
  542TIP3    H123117   3.104  -0.008  16.751 -1.8135  1.5661  0.5245
  542TIP3    H223118   3.033   0.091  16.662  0.1391  0.2240 -2.6813
  543TIP3   OH223119   3.219   0.764   2.575 -0.0536 -0.2590 -0.3697
  543TIP3    H123120   3.177   0.838   2.531 -0.8717 -0.0376  0.7443
  543TIP3    H223121   3.302   0.798   2.606  0.9478 -0.6482 -2.4302
  544TIP3   OH223122   2.486   3.293  12.173  0.3844  0.6189 -0.2851
  544TIP3    H123123   2.467   3.280  12.266 -0.3326 -1.2348 -0.6476
  544TIP3    H223124   2.577   3.323  12.170 -0.2376  2.8646  1.1072
  545TIP3   OH223125   0.266   1.496  48.505  0.1643  0.0966 -0.0488
  545TIP3    H123126   0.188   1.459  48.465  0.7645 -0.4051 -0.7911
  545TIP3    H223127   0.333   1.492  48.436  1.2471 -0.8413  1.0040
  546TIP3   OH223128   0.473   0.503  17.577  0.0509  0.1865 -0.7245
  546TIP3    H123129   0.542   0.554  17.618 -0.8873  1.2026 -0.3631
  546TIP3    H223130   0.451   0.552  17.498 -0.4289  0.0100 -0.7057
  547TIP3   OH223131   2.015   2.895  48.534  0.3748  0.3055  0.4100
  547TIP3    H123132   1.967   2.857  48.460 -1.9988  0.3920  1.8225
  547TIP3    H223133   2.073   2.825  48.563 -2.4223 -1.6495  1.6600
  548TIP3   OH223134   0.802   0.827  56.525  0.2173 -0.7540 -0.6118
  548TIP3    H123135   0.868   0.858  56.587  0.4940 -2.7355  0.1688
  548TIP3    H223136   0.720   0.868  56.554  0.6791 -0.1840 -0.0933
  549TIP3   OH223137   3.260   2.615   7.023  0.3266 -0.2921  0.2135
  549TIP3    H123138   3.244   2.702   7.059 -1.0842  0.0299 -1.0627
  549TIP3    H223139   3.292   2.563   7.097  0.0388  0.9970  1.2764
  550TIP3   OH223140   2.070   3.069  15.377  0.3206 -0.1155  0.1782
  550TIP3    H123141   2.065   3.040  15.285 -0.5667  0.1564  0.1344
  550TIP3    H223142   2.160   3.049  15.403  0.7036  0.1763 -0.8747
  551TIP3   OH223143   0.720   2.302  34.736 -0.5395 -0.2586 -0.4742
  551TIP3    H123144   0.704   2.287  34.643  2.3198  1.5710 -1.3723
  551TIP3    H223145   0.814   2.287  34.748  0.1380  3.9062  1.0714
  552TIP3   OH223146   3.360   1.167  60.439 -0.2057  0.6917  0.1503
  552TIP3    H123147   3.272   1.135  60.459 -0.2192 -0.2193 -1.2746
  552TIP3    H223148   3.413   1.139  60.514 -0.6327 -0.9678 -0.1369
  553TIP3   OH223149   2.307   2.889  54.536  0.5327  0.4143  0.2105
  553TIP3    H123150   2.295   2.855  54.447  0.1111 -1.3318  0.8920
  553TIP3    H223151   2.386   2.942  54.531  0.2217  0.7777 -1.3157
  554TIP3   OH223152   2.239   1.514  13.331 -0.1935 -0.0995 -0.4622
  554TIP3    H123153   2.166   1.574  13.318 -0.1933 -0.5952 -3.2571
  554TIP3    H223154   2.317   1.566  13.310  0.2073  0.0454  1.2089
  555TIP3   OH223155   0.636   2.303  48.715  0.2362  0.0156 -0.3992
  555TIP3    H123156   0.566   2.323  48.652 -0.8804  0.4866  0.9384
  555TIP3    H223157   0.641   2.208  48.716 -0.4312 -0.0242 -0.4594
  556TIP3   OH223158   2.920   0.321  53.693  0.5744 -0.1895 -0.0285
  556TIP3    H123159   2.903   0.369  53.774  1.1846 -0.8456  0.5061
  556TIP3    H223160   2.938   0.389  53.628  1.0553  0.3180  0.6244
  557TIP3   OH223161   1.190   0.872  13.545 -0.3986  0.3607 -0.0886
  557TIP3    H123162   1.176   0.947  13.603  0.3335 -0.6053  1.4303
  557TIP3    H223163   1.271   0.832  13.577 -0.4629 -0.7487 -1.2243
  558TIP3   OH223164   0.333   2.081  54.619 -0.1770  0.7639 -0.2996
  558TIP3    H123165   0.359   2.092  54.528  0.4070  1.9612 -0.0073
  558TIP3    H223166   0.252   2.131  54.628 -3.5998 -3.8832 -1.4915
  559TIP3   OH223167   0.728   1.266  66.054  0.2607 -0.3252 -0.0270
  559TIP3    H123168   0.799   1.316  66.094  0.2812  0.9414 -1.5394
  559TIP3    H223169   0.756   1.253  65.963  0.1168 -2.8884  0.2134
  560TIP3   OH223170   2.828   3.188  57.994  0.0032 -0.6336  0.7076
  560TIP3    H123171   2.901   3.201  57.932 -0.5249  1.8857  0.4810
  560TIP3    H223172   2.870   3.162  58.076  1.2386  0.9161  0.6183
  561TIP3   OH223173   1.587   0.110  49.992  0.6941  0.0608 -0.6324
  561TIP3    H123174   1.650   0.086  49.924  0.2019  1.6801 -1.7208
  561TIP3    H223175   1.509   0.140  49.944 -0.1415  0.0462  0.6568
  562TIP3   OH223176   3.381   2.470  28.586  0.1654  0.2598  0.5478
  562TIP3    H123177   3.304   2.514  28.550 -1.8827 -0.9264  3.1665
  562TIP3    H223178   3.415   2.532  28.651 -1.2608 -0.8832  2.4838
  563TIP3   OH223179   1.398   2.830  17.789  0.9222 -0.1545 -0.3193
  563TIP3    H123180   1.486   2.792  17.797  1.1717  0.6356  0.9298
  563TIP3    H223181   1.354   2.775  17.724  1.4437 -2.2827  1.0027
  564TIP3   OH223182   2.957   0.928  54.730  0.0958  0.6474 -0.3551
  564TIP3    H123183   2.870   0.905  54.696  0.2895  1.1154 -1.2106
  564TIP3    H223184   3.010   0.850  54.712 -0.0464  0.5221 -0.2318
  565TIP3   OH223185   3.321   0.708   8.385  0.6039 -0.1033 -0.0183
  565TIP3    H123186   3.362   0.698   8.471  1.5677  1.3550 -0.2828
  565TIP3    H223187   3.370   0.648   8.328  1.2405  0.3566  0.0408
  566TIP3   OH223188   0.065   3.150   4.129  0.0192 -0.0265 -0.2334
  566TIP3    H123189   0.026   3.237   4.138  0.9743  0.2351  1.7572
  566TIP3    H223190  -0.007   3.090   4.149 -0.3020  0.3289 -0.3027
  567TIP3   OH223191   2.884   3.164  52.451  0.6060  0.0826 -0.3422
  567TIP3    H123192   2.825   3.121  52.389  0.3642 -0.8125  0.4942
  567TIP3    H223193   2.953   3.100  52.466  1.0905  0.6084 -0.2830
  568TIP3   OH223194   2.732   3.376   8.415  0.1522 -0.2209  0.3308
  568TIP3    H123195   2.666   3.445   8.415 -0.8006 -1.1207  0.3893
  568TIP3    H223196   2.714   3.326   8.335  2.1983  0.8379 -0.9124
  569TIP3   OH223197   0.223   1.722  47.403  0.4048  0.6540 -0.4269
  569TIP3    H123198   0.202   1.634  47.371  1.2204  0.6751 -1.0527
  569TIP3    H223199   0.306   1.712  47.448  1.4562  1.4059 -2.0871
  570TIP3   OH223200   1.538   3.342   9.822  0.0969  0.3688 -0.9015
  570TIP3    H123201   1.521   3.251   9.797 -0.5454  0.0088  0.6979
  570TIP3    H223202   1.452   3.384   9.819  0.2353  0.6715 -0.7055
  571TIP3   OH223203   2.534   1.184  62.147  0.6784 -0.3916 -0.0626
  571TIP3    H123204   2.470   1.171  62.076 -1.5017 -0.9131  1.8840
  571TIP3    H223205   2.496   1.137  62.221  1.9399  1.6648  1.9891
  572TIP3   OH223206   0.929   1.192  63.593  0.5074 -0.2744 -0.3325
  572TIP3    H123207   0.946   1.147  63.676 -1.2986 -0.8157 -0.2276
  572TIP3    H223208   0.944   1.285  63.614 -1.1701 -0.2500  1.0011
  573TIP3   OH223209   1.653   2.848  62.372  0.1467 -0.0185  0.1497
  573TIP3    H123210   1.598   2.905  62.318 -0.5339 -1.2371 -0.4948
  573TIP3    H223211   1.742   2.864  62.340 -0.0900  0.3288 -0.3520
  574TIP3   OH223212   0.871   3.148  19.069 -0.2781 -0.2470 -0.0195
  574TIP3    H123213   0.907   3.202  19.139 -1.2058 -0.4174  0.6014
  574TIP3    H223214   0.847   3.066  19.113 -1.3322 -0.1680 -0.4279
  575TIP3   OH223215   3.065   3.113  65.318  0.3795  0.1224  0.4401
  575TIP3    H123216   3.098   3.172  65.249 -1.2186  0.8887  0.2917
  575TIP3    H223217   3.131   3.044  65.323  1.2867  0.8430 -0.8179
  576TIP3   OH223218   1.633   3.244  58.699 -0.5145  0.0135  0.0837
  576TIP3    H123219   1.633   3.215  58.791 -1.3126  0.1915  0.1481
  576TIP3    H223220   1.657   3.166  58.649  0.1713 -0.0230  0.4600
  577TIP3   OH223221   1.260   0.648  19.522  0.5589 -0.5351  0.4907
  577TIP3    H123222   1.352   0.663  19.501  0.3898  0.6094  0.4999
  577TIP3    H223223   1.212   0.700  19.457 -0.1223 -2.0731 -0.2887
  578TIP3   OH223224   2.760   0.410  22.740  0.4091 -0.3459  1.0905
  578TIP3    H123225   2.697   0.344  22.710  0.3500 -0.4397  1.4187
  578TIP3    H223226   2.845   0.375  22.714  0.2516  0.3860 -0.5141
  579TIP3   OH223227   0.280   0.792  49.814  0.2215  0.2644  0.7800
  579TIP3    H123228   0.284   0.709  49.766  0.1530  0.2999  0.7139
  579TIP3    H223229   0.370   0.821  49.818  0.0887  0.9045 -0.4598
  580TIP3   OH223230   2.602   1.415  60.245  0.6585  0.5238 -0.4980
  580TIP3    H123231   2.640   1.398  60.330  0.1643 -0.3901 -0.4541
  580TIP3    H223232   2.677   1.416  60.185  0.7762 -1.1662 -0.4028
  581TIP3   OH223233   0.248   1.640  12.613 -0.0713  0.9910  0.9591
  581TIP3    H123234   0.180   1.639  12.546  3.2395  1.2576 -2.7718
  581TIP3    H223235   0.260   1.733  12.633  0.1932  1.0809  0.4157
  582TIP3   OH223236   1.819   3.135  16.287 -0.1937 -0.2291 -0.0230
  582TIP3    H123237   1.832   3.044  16.260  0.4990  0.2682 -1.4520
  582TIP3    H223238   1.770   3.175  16.216 -0.3297  0.5772  0.5100
  583TIP3   OH223239   0.446   2.936  42.637 -0.1263  0.3476 -0.2256
  583TIP3    H123240   0.517   2.937  42.702 -0.0377  0.4254 -0.3223
  583TIP3    H223241   0.490   2.945  42.553 -0.2930  0.9117 -0.2533
  584TIP3   OH223242   1.306   2.239  12.341  0.1123 -0.0905 -0.4936
  584TIP3    H123243   1.385   2.290  12.357  0.0891  0.3960 -1.8477
  584TIP3    H223244   1.337   2.159  12.300  0.2105 -1.5269  2.1227
  585TIP3   OH223245   1.814   0.237   1.787  0.1573  0.5055 -0.2419
  585TIP3    H123246   1.871   0.267   1.859  2.2633 -0.2136 -1.4979
  585TIP3    H223247   1.746   0.304   1.781  0.3892  1.0138  1.8650
  586TIP3   OH223248   3.199   1.191  46.623 -0.1063 -0.4727 -0.5643
  586TIP3    H123249   3.231   1.126  46.561  1.2101 -0.2681 -0.1356
  586TIP3    H223250   3.201   1.146  46.708  1.2766  0.2482 -0.1930
  587TIP3   OH223251   1.074   2.866  55.341 -0.1586  0.0387  0.3385
  587TIP3    H123252   1.145   2.886  55.402  0.1442  1.9798 -0.5771
  587TIP3    H223253   1.002   2.836  55.397  0.8536 -0.4593  1.4130
  588TIP3   OH223254   0.148   1.302  20.275 -0.0476  0.2977 -0.0449
  588TIP3    H123255   0.081   1.303  20.206 -0.4484  1.0548  0.3467
  588TIP3    H223256   0.126   1.225  20.328  0.6306 -0.6581 -1.0997
  589TIP3   OH223257   0.422   2.241   9.318 -0.2551 -0.0255  0.1541
  589TIP3    H123258   0.352   2.292   9.359 -1.4293  0.8217 -2.7113
  589TIP3    H223259   0.480   2.307   9.279  0.5384 -0.8005 -0.0187
  590TIP3   OH223260   0.196   3.138  10.348  0.0291 -0.3816  0.3586
  590TIP3    H123261   0.243   3.104  10.272  0.6812  1.6787 -0.2271
  590TIP3    H223262   0.117   3.177  10.312 -1.2007 -2.0411  1.1262
  591TIP3   OH223263   2.117   1.432  57.169  0.2423  0.0220 -0.2336
  591TIP3    H123264   2.027   1.440  57.139 -0.3505  0.2230  1.5138
  591TIP3    H223265   2.167   1.488  57.110 -0.6692 -0.5365 -1.5818
  592TIP3   OH223266   2.031   2.619  28.039  0.0840 -0.3053  0.2988
  592TIP3    H123267   2.047   2.597  28.130  0.6940  0.7514  0.4611
  592TIP3    H223268   2.010   2.713  28.040  1.1172 -0.0450 -0.7495
  593TIP3   OH223269   1.284   1.350  57.474 -0.2523  0.4873  0.0386
  593TIP3    H123270   1.308   1.296  57.548 -0.2840  0.7238  0.2225
  593TIP3    H223271   1.207   1.399  57.503 -0.7976 -0.0668 -0.4558
  594TIP3   OH223272   2.575   1.386  15.725  0.2216 -0.3250  0.1566
  594TIP3    H123273   2.666   1.369  15.751  0.4416 -1.6910 -1.3048
  594TIP3    H223274   2.583   1.426  15.638 -0.5532  1.2401  0.7717
  595TIP3   OH223275   0.386   2.528  19.447 -0.0172  0.1486  0.0515
  595TIP3    H123276   0.478   2.549  19.431  0.0721  0.3984  0.8526
  595TIP3    H223277   0.374   2.542  19.541 -0.9937  0.5668 -0.1199
  596TIP3   OH223278   1.351   2.851  44.059  0.0612  0.1296  0.0326
  596TIP3    H123279   1.360   2.769  44.010 -1.2080 -0.4047  0.6503
  596TIP3    H223280   1.399   2.836  44.140  0.4165  0.2572 -0.1525
  597TIP3   OH223281   2.969   3.190   9.307  0.5408 -0.2630  0.1457
  597TIP3    H123282   2.953   3.097   9.325  1.5041 -0.2964  0.9050
  597TIP3    H223283   2.950   3.234   9.389 -0.3139  0.2863 -0.3273
  598TIP3   OH223284   1.434   0.410  56.659  0.1725  0.1330 -0.7012
  598TIP3    H123285   1.428   0.498  56.622 -1.0884  0.5646  0.4717
  598TIP3    H223286   1.352   0.367  56.633 -0.3421  0.1554  0.8027
  599TIP3   OH223287   0.928   2.457  20.375 -0.1261 -0.4493  0.8312
  599TIP3    H123288   0.952   2.371  20.340  1.4558  0.4080 -0.3403
  599TIP3    H223289   0.836   2.469  20.352  0.1312 -1.0876 -0.6362
  600TIP3   OH223290   2.909   0.659  50.010 -0.5248 -0.1122 -1.1565
  600TIP3    H123291   2.867   0.676  49.926 -1.2201 -0.2599 -0.8454
  600TIP3    H223292   2.892   0.566  50.028 -0.5294 -0.0413 -0.7785
  601TIP3   OH223293   0.252   0.575  45.088  0.0281 -0.6601 -1.0304
  601TIP3    H123294   0.173   0.554  45.138  0.8035  0.2116  0.6281
  601TIP3    H223295   0.324   0.561  45.150  1.0011  0.8840 -1.7558
  602TIP3   OH223296   1.871   2.836  45.123 -0.2145  0.3663 -0.1880
  602TIP3    H123297   1.875   2.778  45.199 -1.7517  1.0042  0.4241
  602TIP3    H223298   1.817   2.790  45.059  1.8245 -0.5751 -1.3167
  603TIP3   OH223299   1.207   1.724  17.195  0.6675 -0.5186  0.2310
  603TIP3    H123300   1.187   1.818  17.194 -2.1328 -1.0474  0.5009
  603TIP3    H223301   1.253   1.711  17.278  1.4731  0.6513  0.0040
  604TIP3   OH223302   0.171   0.321  66.504 -0.0418  0.2786 -0.7682
  604TIP3    H123303   0.100   0.270  66.542  0.2861 -0.0221 -0.5483
  604TIP3    H223304   0.250   0.284  66.543  0.5659 -1.8165 -3.6535
  605TIP3   OH223305   1.017   3.140  45.671 -0.3841 -0.3091 -0.6934
  605TIP3    H123306   1.011   3.178  45.758 -0.2090 -0.6315 -0.5385
  605TIP3    H223307   1.106   3.158  45.642 -0.0464 -1.2842 -0.2932
  606TIP3   OH223308   3.090   3.248   0.849 -0.0740  0.0195 -0.0176
  606TIP3    H123309   3.123   3.314   0.910  1.3082 -1.4113  0.8567
  606TIP3    H223310   3.147   3.172   0.863 -0.6672 -0.8511 -2.0660
  607TIP3   OH223311   1.298   3.430  21.643 -0.3001  0.6693  0.0473
  607TIP3    H123312   1.313   3.436  21.737 -0.5137  0.3358  0.1062
  607TIP3    H223313   1.242   3.505  21.622 -1.6124 -0.1445  0.4813
  608TIP3   OH223314   0.906   1.588   1.961 -0.2237 -0.1620  0.5097
  608TIP3    H123315   0.870   1.524   1.900 -0.0921 -0.0264  0.2898
  608TIP3    H223316   0.990   1.613   1.923 -0.1901  0.0010  0.6908
  609TIP3   OH223317   3.078   2.747   8.047 -0.0924 -0.6132  0.1049
  609TIP3    H123318   3.037   2.720   8.129  0.1513  0.2342  0.5104
  609TIP3    H223319   3.157   2.794   8.073  2.0649 -3.5352 -0.6577
  610TIP3   OH223320   0.714   1.666  53.930 -0.0311 -0.2580 -1.2052
  610TIP3    H123321   0.784   1.605  53.953 -0.2406 -1.0958 -2.6193
  610TIP3    H223322   0.751   1.721  53.862 -0.1436  0.5971 -0.5857
  611TIP3   OH223323   3.239   1.084  67.315 -0.0837 -0.3544  0.0574
  611TIP3    H123324   3.317   1.120  67.273 -0.0100 -0.1525  0.3601
  611TIP3    H223325   3.234   1.129  67.399  1.0868 -2.3464  1.2853
  612TIP3   OH223326   1.767   1.368  51.756  0.9378  0.0005 -0.4655
  612TIP3    H123327   1.836   1.422  51.719  0.2270  0.4619 -1.1425
  612TIP3    H223328   1.713   1.428  51.807 -0.0497  0.0413 -1.4949
  613TIP3   OH223329   1.785   2.929  51.774  0.2165  0.4116  0.5621
  613TIP3    H123330   1.712   2.911  51.834  0.3048  0.2873  0.6328
  613TIP3    H223331   1.856   2.873  51.804 -0.1022 -0.5351 -0.3814
  614TIP3   OH223332   2.783   1.782  17.968 -0.4170  0.2252 -0.3633
  614TIP3    H123333   2.821   1.802  17.882  0.3388  2.3877  0.4032
  614TIP3    H223334   2.848   1.724  18.009  0.2093  0.8132 -0.5038
  615TIP3   OH223335   2.101   2.315  18.537  0.2837  0.1590 -0.4707
  615TIP3    H123336   2.043   2.359  18.475  1.4781  2.5696 -0.0084
  615TIP3    H223337   2.168   2.275  18.482 -1.4675 -2.3078 -0.9799
  616TIP3   OH223338   0.600   0.523  45.863  0.0632 -0.3568  0.5021
  616TIP3    H123339   0.629   0.438  45.897 -0.3459 -0.6513  0.1225
  616TIP3    H223340   0.596   0.579  45.941  0.4862 -0.6375  0.7301
  617TIP3   OH223341   0.370   0.144  64.662 -0.6806 -0.2807  0.4570
  617TIP3    H123342   0.304   0.188  64.609 -0.0234  1.5950  1.1019
  617TIP3    H223343   0.331   0.059  64.684 -1.4637 -0.6083 -1.9156
  618TIP3   OH223344   1.983   2.669  26.204 -0.1842 -0.2475 -0.0061
  618TIP3    H123345   2.067   2.625  26.215 -1.2652 -2.4570 -0.0871
  618TIP3    H223346   1.979   2.731  26.278  1.5760  0.0805 -0.1448
  619TIP3   OH223347   0.953   2.974  49.548 -0.0402 -0.4859 -0.2368
  619TIP3    H123348   0.982   2.917  49.477 -1.3051 -0.0268 -1.1474
  619TIP3    H223349   0.860   2.956  49.558  0.1363 -0.6021  1.3860
  620TIP3   OH223350   0.190   0.264  45.551 -0.2377  0.2109  0.0648
  620TIP3    H123351   0.129   0.214  45.606  0.4773  0.7686  1.4344
  620TIP3    H223352   0.268   0.274  45.606  0.8814 -0.0115 -1.4396
  621TIP3   OH223353   1.945   2.013   1.048  0.0913  0.1010 -0.1392
  621TIP3    H123354   1.879   2.080   1.063 -1.9183 -1.5269 -1.1353
  621TIP3    H223355   1.964   1.979   1.135  1.2457  1.9790  0.3971
  622TIP3   OH223356   0.852   2.856  49.857  0.6680 -0.3029  0.2282
  622TIP3    H123357   0.861   2.844  49.763  1.8876  0.6524  0.1974
  622TIP3    H223358   0.860   2.768  49.893 -0.4880 -0.7697 -0.5757
  623TIP3   OH223359   1.054   1.496  21.043  0.1895  0.3977  0.1478
  623TIP3    H123360   1.122   1.545  20.997  0.4784 -0.6179 -0.5344
  623TIP3    H223361   1.020   1.558  21.108  1.4140  1.0764  0.1707
  624TIP3   OH223362   1.372   2.375   6.382 -0.5761 -0.2643  0.6954
  624TIP3    H123363   1.279   2.358   6.368 -0.3897  0.0700 -1.1179
  624TIP3    H223364   1.409   2.288   6.400 -1.1244 -0.4775  0.8274
  625TIP3   OH223365   0.720   1.197  13.393  0.1185  0.2523 -0.1669
  625TIP3    H123366   0.760   1.154  13.468  1.0823 -2.0719 -1.8714
  625TIP3    H223367   0.775   1.172  13.319 -2.2245  0.2657 -2.0503
  626TIP3   OH223368   2.500   0.190   8.149  0.1067 -0.6887  0.3713
  626TIP3    H123369   2.503   0.095   8.142  0.2827 -0.7143  0.7762
  626TIP3    H223370   2.419   0.215   8.103  1.3437 -0.8119 -2.0003
  627TIP3   OH223371   3.221   0.027  21.459  0.0471  0.3690  0.4337
  627TIP3    H123372   3.179   0.025  21.545 -2.7226 -0.8364 -0.8186
  627TIP3    H223373   3.167   0.085  21.407  1.2774  0.5368 -0.7110
  628TIP3   OH223374   1.975   1.884  65.133 -0.3650 -0.6623  0.0319
  628TIP3    H123375   1.990   1.812  65.195 -1.2154 -0.4332  0.5247
  628TIP3    H223376   1.934   1.953  65.186 -0.2001 -0.0821 -0.5867
  629TIP3   OH223377   0.715   2.606  62.150 -0.1387 -0.3186 -0.6749
  629TIP3    H123378   0.710   2.513  62.130  1.0266 -0.4432 -0.4706
  629TIP3    H223379   0.803   2.632  62.123  1.0535 -0.1885  2.7446
  630TIP3   OH223380   1.977   2.028  64.894 -0.5384 -0.0826 -0.2024
  630TIP3    H123381   1.926   2.107  64.913  0.5512  0.6463 -0.2301
  630TIP3    H223382   1.986   1.984  64.978 -0.7433  0.0554 -0.1075
  631TIP3   OH223383   2.827   2.359  66.983 -0.3293  0.1871 -0.3721
  631TIP3    H123384   2.787   2.317  66.906  0.5085 -1.4813  0.0617
  631TIP3    H223385   2.844   2.449  66.955 -1.0775 -0.0731 -1.7524
  632TIP3   OH223386   2.272   2.210  62.917  0.3206 -0.3704 -0.1173
  632TIP3    H123387   2.273   2.264  62.996  0.0446  2.6130 -1.9706
  632TIP3    H223388   2.183   2.174  62.913  0.2167 -0.2173  0.7208
  633TIP3   OH223389   2.729   0.823  15.005 -0.1293  0.1106  0.0257
  633TIP3    H123390   2.800   0.862  14.955  0.8695  0.3414  1.5503
  633TIP3    H223391   2.650   0.859  14.966  0.6069  0.4609 -1.2106
  634TIP3   OH223392   1.283   0.385   2.262 -0.5513  0.3236  0.0825
  634TIP3    H123393   1.343   0.441   2.213  0.2299  0.2384  0.9006
  634TIP3    H223394   1.333   0.305   2.278 -0.9689  0.1510  0.5655
  635TIP3   OH223395   0.373   1.145  12.638 -0.1871 -0.3133  0.0401
  635TIP3    H123396   0.292   1.105  12.606 -0.8200 -0.2784  1.5405
  635TIP3    H223397   0.421   1.072  12.677  0.1812 -0.1955 -0.1868
  636TIP3   OH223398   1.771   1.131  60.743  0.0697 -0.6820 -0.3156
  636TIP3    H123399   1.799   1.222  60.728  1.8345 -1.2857 -0.9085
  636TIP3    H223400   1.684   1.126  60.702 -0.3627  0.8909  0.3201
  637TIP3   OH223401   3.264   0.491  55.575  0.5598  0.0513  0.2025
  637TIP3    H123402   3.327   0.562  55.567  0.2120  0.5472  1.5642
  637TIP3    H223403   3.316   0.411  55.565  0.7979  0.4685 -2.3245
  638TIP3   OH223404   0.579   3.017  14.132 -0.0249 -0.2915 -0.0107
  638TIP3    H123405   0.491   3.001  14.098  0.1290  1.3218 -1.3258
  638TIP3    H223406   0.633   3.029  14.053  1.4099 -1.3468  0.7604
  639TIP3   OH223407   2.354   2.566   4.188 -0.3056 -0.0926  0.7270
  639TIP3    H123408   2.410   2.607   4.122 -0.2905 -0.2886  0.6200
  639TIP3    H223409   2.363   2.472   4.174 -1.4122 -0.1155  0.0692
  640TIP3   OH223410   0.088   1.352  58.859 -0.2005 -0.1972  0.6396
  640TIP3    H123411   0.120   1.431  58.815  2.4774 -0.6208  1.6526
  640TIP3    H223412   0.011   1.382  58.908 -0.4044  1.3034 -0.5133
  641TIP3   OH223413   2.353   2.087  51.135  0.1974  0.0351 -0.0871
  641TIP3    H123414   2.277   2.128  51.094  1.6897  0.2417 -2.9059
  641TIP3    H223415   2.428   2.136  51.100  1.7546 -1.8147  0.5181
  642TIP3   OH223416   2.512   1.681   7.453 -0.3956  0.0410 -0.0297
  642TIP3    H123417   2.602   1.712   7.437 -0.6236 -0.0907 -1.8433
  642TIP3    H223418   2.517   1.586   7.442 -0.2431 -0.3295  2.7401
  643TIP3   OH223419   2.126   2.718  53.234  0.7079 -0.4042  0.3740
  643TIP3    H123420   2.110   2.643  53.177 -1.3205  0.5519 -0.4096
  643TIP3    H223421   2.160   2.679  53.315  0.4156 -2.1071 -0.2707
  644TIP3   OH223422   1.189   0.069  63.298  0.1163 -0.3140  0.0453
  644TIP3    H123423   1.275   0.109  63.290  0.3672 -0.1413  2.6653
  644TIP3    H223424   1.143   0.124  63.362 -1.2583 -1.4622  0.1018
  645TIP3   OH223425   0.234   1.778  52.179  0.3255  0.0249  0.2869
  645TIP3    H123426   0.222   1.815  52.266 -1.5933 -0.5530  0.2989
  645TIP3    H223427   0.171   1.825  52.124 -0.7150 -1.7806 -0.1127
  646TIP3   OH223428   0.421   3.237  47.773  0.3129 -0.1206 -0.2720
  646TIP3    H123429   0.375   3.230  47.857  0.2364  4.5716  0.3087
  646TIP3    H223430   0.352   3.252  47.709  0.6509  0.8985 -0.4033
  647TIP3   OH223431   2.817   2.138  16.734  0.0786  0.2550  0.4507
  647TIP3    H123432   2.790   2.085  16.659  0.2446  0.6031  0.1394
  647TIP3    H223433   2.750   2.123  16.800  0.2904 -0.5918  0.4844
  648TIP3   OH223434   3.438   1.094  52.336 -0.3914 -0.3698 -0.5582
  648TIP3    H123435   3.360   1.043  52.315 -1.1839 -0.6533  2.5247
  648TIP3    H223436   3.405   1.176  52.372  0.7500 -0.0357 -0.2208
  649TIP3   OH223437   0.920   0.902  51.751  0.0658  0.2629  0.0881
  649TIP3    H123438   0.847   0.963  51.746 -0.1503 -0.0545 -0.9033
  649TIP3    H223439   0.955   0.913  51.839 -0.2347  1.5090  0.0687
  650TIP3   OH223440   2.243   2.706  59.005 -0.1082  0.3426  0.0447
  650TIP3    H123441   2.313   2.671  58.950 -0.9206 -1.0976 -0.1191
  650TIP3    H223442   2.257   2.801  59.004  0.4804  0.2694 -1.8151
  651TIP3   OH223443   2.515   2.001  12.092  0.1825 -0.1993 -0.0320
  651TIP3    H123444   2.518   1.967  12.182 -0.1306  0.7841  0.3578
  651TIP3    H223445   2.439   2.059  12.091  2.0616  2.4099  0.0152
  652TIP3   OH223446   1.813   2.490   8.078  0.2430 -0.8779 -0.1906
  652TIP3    H123447   1.879   2.556   8.100  0.3913 -0.9171 -0.5015
  652TIP3    H223448   1.769   2.526   8.001 -0.3631 -0.6746  0.2418
  653TIP3   OH223449   1.999   1.945  15.292 -0.3701 -0.2117  0.1476
  653TIP3    H123450   2.035   1.995  15.365 -1.3125  0.1434  0.3819
  653TIP3    H223451   2.033   1.988  15.214 -0.8415  0.5682  0.3546
  654TIP3   OH223452   0.608   2.719   8.290 -1.0686  0.5022 -0.0368
  654TIP3    H123453   0.627   2.771   8.213  0.5572  1.2160  0.8197
  654TIP3    H223454   0.693   2.688   8.321 -1.8579 -1.6176  0.2370
  655TIP3   OH223455   2.249   0.821  25.946  0.3709  0.0573 -0.0179
  655TIP3    H123456   2.266   0.763  26.021  0.0576 -0.7187 -0.5429
  655TIP3    H223457   2.293   0.778  25.872 -0.5727  0.0492 -0.5797
  656TIP3   OH223458   1.507   2.457  12.197  0.4489  0.9579 -0.0056
  656TIP3    H123459   1.507   2.392  12.127 -0.3079  0.8954  0.0422
  656TIP3    H223460   1.548   2.413  12.271  0.0600  0.5746 -0.0132
  657TIP3   OH223461   2.670   1.018  10.726  0.3217  0.3794 -0.2646
  657TIP3    H123462   2.605   1.076  10.685  1.7728  0.3424 -2.7957
  657TIP3    H223463   2.677   0.944  10.666  2.6127  0.3392 -0.0254
  658TIP3   OH223464   0.674   2.633  41.986  0.2483  0.5619 -0.7615
  658TIP3    H123465   0.692   2.696  41.917  0.3379 -0.5509 -1.7783
  658TIP3    H223466   0.756   2.628  42.036  0.8279 -0.0610 -1.7572
  659TIP3   OH223467   0.676   2.665  56.140 -0.1330  0.2608  0.0922
  659TIP3    H123468   0.656   2.671  56.046  1.1545  2.0821 -0.1188
  659TIP3    H223469   0.636   2.583  56.167 -1.3103  0.1112 -1.8581
  660TIP3   OH223470   2.711   2.068   6.611 -0.4327  0.6617  0.4441
  660TIP3    H123471   2.666   2.002   6.560  0.7126  0.1640  0.0347
  660TIP3    H223472   2.706   2.037   6.701 -0.0499  0.0872  0.2729
  661TIP3   OH223473   1.031   2.653  48.208 -0.1518  0.2234  0.0230
  661TIP3    H123474   1.066   2.577  48.255 -2.1492 -1.3657 -0.9247
  661TIP3    H223475   1.108   2.693  48.167  0.9215 -1.5258  0.2261
  662TIP3   OH223476   0.817   2.114  15.165 -0.1665 -0.2907  0.0523
  662TIP3    H123477   0.765   2.041  15.134 -1.7890  0.4520  0.8769
  662TIP3    H223478   0.878   2.076  15.228  0.3572 -1.1811 -0.9582
  663TIP3   OH223479   1.814   0.085  52.117 -0.0404 -0.2385  0.2962
  663TIP3    H123480   1.729   0.125  52.098  0.0356 -0.6400 -1.0064
  663TIP3    H223481   1.844   0.051  52.033  0.9290 -1.0454  0.9375
  664TIP3   OH223482   0.885   0.311   5.369  0.5255 -0.0186  0.5345
  664TIP3    H123483   0.896   0.403   5.391  0.1591  0.1754 -0.0883
  664TIP3    H223484   0.938   0.298   5.291 -0.0647 -0.1390  0.1466
  665TIP3   OH223485   0.888   2.424  64.409  0.4349  0.0066 -0.5386
  665TIP3    H123486   0.932   2.490  64.356  1.7094 -0.9464 -0.6952
  665TIP3    H223487   0.897   2.455  64.499  0.1489  0.5360 -0.6863
  666TIP3   OH223488   2.136   0.111  56.682 -0.3495  0.7352  0.1611
  666TIP3    H123489   2.045   0.126  56.709 -0.3540  0.8326  0.0899
  666TIP3    H223490   2.130   0.048  56.611 -0.4501  1.7223 -0.7177
  667TIP3   OH223491   1.339   0.726  10.941  0.5475 -0.1385  0.1140
  667TIP3    H123492   1.385   0.696  10.862 -0.0471  0.4552 -0.4659
  667TIP3    H223493   1.407   0.728  11.008  1.1363 -0.3212 -0.4620
  668TIP3   OH223494   2.778   3.390  46.262 -0.3367  0.0024  0.1100
  668TIP3    H123495   2.721   3.313  46.254 -0.2012 -0.4067  2.3651
  668TIP3    H223496   2.797   3.415  46.172 -1.9222 -1.4543 -0.6988
  669TIP3   OH223497   2.618   2.864  20.805  0.5250 -0.3146 -0.2893
  669TIP3    H123498   2.573   2.786  20.771  1.5806 -0.1632 -2.1715
  669TIP3    H223499   2.583   2.875  20.893 -0.8099 -1.9996 -0.5496
  670TIP3   OH223500   1.077   0.118  52.735  0.2744 -0.0374 -0.0848
  670TIP3    H123501   1.050   0.096  52.825 -0.0151  1.2039  0.1541
  670TIP3    H223502   1.017   0.068  52.679  1.1345 -1.6507  0.3810
  671TIP3   OH223503   0.188   1.041  54.089 -0.2197  0.1812  0.9082
  671TIP3    H123504   0.200   1.095  54.011  0.3871  1.8871  2.1051
  671TIP3    H223505   0.119   0.979  54.065 -2.3902  2.7525  0.0030
  672TIP3   OH223506   2.521   0.580  50.164  0.2231  0.2595 -0.1675
  672TIP3    H123507   2.470   0.545  50.237  1.7393 -1.9508 -0.0845
  672TIP3    H223508   2.596   0.522  50.156  1.6862  2.1900 -1.5987
  673TIP3   OH223509   1.452   2.618  14.511 -0.4798 -0.2503  0.2464
  673TIP3    H123510   1.388   2.689  14.513  0.6110  0.7598  1.0125
  673TIP3    H223511   1.448   2.580  14.599  0.3430  0.1825  0.4803
  674TIP3   OH223512   2.054   3.137  60.351 -0.1199 -0.1200 -0.0138
  674TIP3    H123513   2.089   3.217  60.390 -0.9531  0.3704 -0.2714
  674TIP3    H223514   2.002   3.167  60.277 -0.9495 -0.8622  0.2629
  675TIP3   OH223515   2.024   0.914  63.226 -0.2259 -0.4091 -0.0093
  675TIP3    H123516   1.983   0.927  63.311 -0.9786 -0.8818 -0.2931
  675TIP3    H223517   2.013   0.821  63.207  2.7431 -1.0017  0.7804
  676TIP3   OH223518   2.849   1.840  27.909 -0.1813  0.1648  0.1555
  676TIP3    H123519   2.916   1.812  27.971  0.5100 -1.2653 -1.1753
  676TIP3    H223520   2.858   1.935  27.905  1.7548  0.0166  0.0448
  677TIP3   OH223521   1.518   3.334   8.626 -0.2167  0.3610  0.5576
  677TIP3    H123522   1.460   3.409   8.644 -1.0812  0.2745 -1.6177
  677TIP3    H223523   1.606   3.373   8.621 -0.4896  1.0168  0.7089
  678TIP3   OH223524   3.346   3.009  58.533 -0.2170  0.9772  0.3739
  678TIP3    H123525   3.406   2.984  58.463  0.0912  1.6317  0.3946
  678TIP3    H223526   3.272   2.949  58.524 -0.0689  0.8949 -0.3590
  679TIP3   OH223527   2.162   0.447  18.617 -0.5068 -0.0625  0.2461
  679TIP3    H123528   2.161   0.410  18.705 -2.3882  0.9677  0.6980
  679TIP3    H223529   2.078   0.423  18.579  0.4875 -0.9935 -1.5457
  680TIP3   OH223530   0.025   2.140  10.410 -0.3970  0.0551 -0.0005
  680TIP3    H123531   0.065   2.218  10.448 -0.5561  0.9581 -1.6023
  680TIP3    H223532   0.099   2.082  10.392 -0.3813 -0.7573  2.3597
  681TIP3   OH223533   2.705   1.723  52.171 -0.4291 -0.1866  0.0243
  681TIP3    H123534   2.769   1.658  52.142  0.6136 -0.0938  1.9605
  681TIP3    H223535   2.757   1.800  52.195 -1.2996  0.1031  1.0884
  682TIP3   OH223536   3.019   0.348  50.743  0.1298 -0.0016  0.2773
  682TIP3    H123537   3.075   0.293  50.688 -0.2215  0.1203 -0.2076
  682TIP3    H223538   2.999   0.294  50.819  0.7432 -0.1175  0.3593
  683TIP3   OH223539   0.567   2.597   3.672  0.0544  0.0491 -0.0859
  683TIP3    H123540   0.524   2.681   3.659 -1.2109  0.2104  3.8974
  683TIP3    H223541   0.525   2.538   3.610 -0.1732  1.9359 -1.8175
  684TIP3   OH223542   1.471   1.621  13.209 -0.0008 -0.1935 -0.1185
  684TIP3    H123543   1.387   1.622  13.254 -0.4190 -0.0440 -0.8751
  684TIP3    H223544   1.448   1.625  13.116  0.8334 -0.5016 -0.3469
  685TIP3   OH223545   1.000   3.165   8.036  0.1025 -0.5157  0.5307
  685TIP3    H123546   1.018   3.071   8.033 -0.8173 -0.6709 -1.4068
  685TIP3    H223547   0.932   3.179   7.970  2.4665  1.9974 -1.5867
  686TIP3   OH223548   2.832   1.434  54.513 -0.1097  0.2992 -1.1255
  686TIP3    H123549   2.848   1.428  54.419  1.7687 -0.2257 -0.8019
  686TIP3    H223550   2.889   1.368  54.552 -2.5563 -1.1902  0.2619
  687TIP3   OH223551   2.971   1.716  22.468  0.0012 -0.0969 -0.0326
  687TIP3    H123552   2.908   1.645  22.483 -0.1220 -0.0627 -0.3703
  687TIP3    H223553   3.055   1.671  22.462  0.0363 -0.1205  0.6242
  688TIP3   OH223554   2.928   2.981  27.881 -0.4367  0.3596  0.2609
  688TIP3    H123555   2.869   2.907  27.867 -0.1863  0.2533 -0.2590
  688TIP3    H223556   2.927   3.029  27.798  1.1665 -0.3374 -0.1863
  689TIP3   OH223557   0.669   0.943  46.538 -0.5143  0.5531  0.1804
  689TIP3    H123558   0.760   0.948  46.510 -0.2328 -0.0165  0.9423
  689TIP3    H223559   0.621   1.000  46.478  0.3758  1.0127 -0.1026
  690TIP3   OH223560   3.175   1.242   7.186 -0.1172 -0.3344 -0.4941
  690TIP3    H123561   3.194   1.187   7.261  0.8751  0.2033 -0.3396
  690TIP3    H223562   3.149   1.326   7.223 -1.8786 -0.7433 -0.7221
  691TIP3   OH223563   3.322   2.129  62.272 -0.4278 -0.0592 -0.2310
  691TIP3    H123564   3.405   2.102  62.311  0.2294  0.6057 -1.1206
  691TIP3    H223565   3.302   2.213  62.313 -1.5162 -0.9468  1.1638
  692TIP3   OH223566   3.225   0.761  44.403  0.1296 -0.6775 -0.0156
  692TIP3    H123567   3.160   0.703  44.442 -0.9973  1.5044  1.6138
  692TIP3    H223568   3.205   0.760  44.309 -0.0082 -2.6548  0.0024
  693TIP3   OH223569   0.255   2.016  64.919  0.0306  0.1281 -0.7243
  693TIP3    H123570   0.262   1.957  64.844 -1.6062 -0.2799 -0.5979
  693TIP3    H223571   0.172   1.992  64.960  1.0563  0.0921  1.4516
  694TIP3   OH223572   1.671   3.105   6.762  0.1428  0.5023  0.3109
  694TIP3    H123573   1.704   3.015   6.769  1.3082  1.0118  1.9002
  694TIP3    H223574   1.689   3.130   6.672 -0.2283 -0.8719 -0.1648
  695TIP3   OH223575   1.265   3.322   4.214 -0.0949 -0.9104 -0.8964
  695TIP3    H123576   1.287   3.266   4.140 -0.6639 -0.1479 -1.6627
  695TIP3    H223577   1.277   3.411   4.181 -0.7566 -0.5517 -0.2028
  696TIP3   OH223578   2.794   2.648   4.049  0.0591 -0.3573 -0.0388
  696TIP3    H123579   2.702   2.630   4.030 -0.2503  0.7529  0.3154
  696TIP3    H223580   2.815   2.591   4.123 -0.0287 -1.3834 -0.7796
  697TIP3   OH223581   0.655   1.661  51.609 -0.6154  0.3026 -0.2338
  697TIP3    H123582   0.602   1.607  51.551 -1.9321  0.0204  1.1426
  697TIP3    H223583   0.607   1.743  51.616  0.1090  0.7472 -0.4087
  698TIP3   OH223584   0.574   2.643  59.067 -0.0531  0.2332  0.4281
  698TIP3    H123585   0.646   2.580  59.074  1.1021  1.6617  2.4467
  698TIP3    H223586   0.618   2.725  59.045 -1.5114  0.4588 -1.9834
  699TIP3   OH223587   2.698   0.077  19.813  0.0660  0.4528 -0.1317
  699TIP3    H123588   2.658   0.164  19.814  0.6370  0.7185  0.1059
  699TIP3    H223589   2.732   0.066  19.902  1.1652  0.5401 -0.5269
  700TIP3   OH223590   3.393   0.838   7.794  0.1678  0.2813  0.2884
  700TIP3    H123591   3.409   0.757   7.747  0.4539  1.2797 -1.4254
  700TIP3    H223592   3.297   0.845   7.797  0.1293 -0.4539  1.0868
  701TIP3   OH223593   3.324   0.690   9.059  0.3479  0.1842 -0.2358
  701TIP3    H123594   3.345   0.762   8.999  1.6081  0.6380  0.7089
  701TIP3    H223595   3.393   0.625   9.043  0.1974 -0.0617  0.1184
  702TIP3   OH223596   2.563   0.925  20.535 -0.5662  0.5372  0.2825
  702TIP3    H123597   2.520   0.979  20.470 -0.3796  0.7983  0.3743
  702TIP3    H223598   2.599   0.987  20.598 -0.0168  0.3275  0.1838
  703TIP3   OH223599   2.639   0.884  62.209 -0.2079 -0.5044 -0.0643
  703TIP3    H123600   2.596   0.963  62.241 -0.0972 -0.5416  0.1817
  703TIP3    H223601   2.720   0.879  62.260  0.0014 -0.5290 -0.3953
  704TIP3   OH223602   3.231   1.849  45.171 -0.2875  0.8829  0.0509
  704TIP3    H123603   3.255   1.766  45.128  0.9048 -0.7125  3.4598
  704TIP3    H223604   3.315   1.889  45.193 -0.8625  2.7902 -0.9815
  705TIP3   OH223605   3.413   2.864  53.715  0.1551 -0.1598 -0.1308
  705TIP3    H123606   3.477   2.794  53.726  1.5826  1.1717  0.5654
  705TIP3    H223607   3.420   2.889  53.623 -0.8965 -1.3797 -0.5676
  706TIP3   OH223608   3.098   1.337  26.861 -0.1564  0.3693  0.2563
  706TIP3    H123609   3.056   1.333  26.775 -1.1292 -0.0244  0.7298
  706TIP3    H223610   3.067   1.259  26.906  0.6254  0.3901  0.8442
  707TIP3   OH223611   3.233   2.628  49.002 -0.0442 -0.1212 -0.1236
  707TIP3    H123612   3.215   2.698  48.940  0.7954  0.7742  0.6037
  707TIP3    H223613   3.198   2.660  49.085  0.7144 -0.3822  0.3067
  708TIP3   OH223614   2.533   0.483  46.461 -0.5951 -0.0238 -0.0618
  708TIP3    H123615   2.444   0.504  46.434 -0.3017  1.6138  0.1618
  708TIP3    H223616   2.523   0.435  46.543 -1.2941 -0.5465 -0.4451
  709TIP3   OH223617   3.089   3.272  21.083 -0.0415  0.4425  0.0557
  709TIP3    H123618   3.148   3.347  21.072 -1.3773  1.3745 -1.0143
  709TIP3    H223619   3.003   3.305  21.059 -1.1126 -0.7939  1.9554
  710TIP3   OH223620   2.363   0.698  21.264  0.5188  0.7365  0.3638
  710TIP3    H123621   2.281   0.719  21.217  1.2153  0.6939 -0.9288
  710TIP3    H223622   2.386   0.778  21.310  0.5634  1.2547 -0.5381
  711TIP3   OH223623   3.325   0.206   8.859  0.1357 -0.1652  0.1912
  711TIP3    H123624   3.320   0.184   8.952 -0.8885  1.4926  0.5588
  711TIP3    H223625   3.235   0.201   8.828  0.0684  1.8065 -0.0634
  712TIP3   OH223626   0.777   0.673  20.077  0.7886  0.5769 -0.1602
  712TIP3    H123627   0.767   0.700  20.169 -1.5492  0.6193 -0.3748
  712TIP3    H223628   0.729   0.739  20.027 -1.3302 -1.4815 -1.0444
  713TIP3   OH223629   2.937   1.819  62.836  0.1335  0.0741  0.3000
  713TIP3    H123630   3.027   1.852  62.834  0.5995 -1.1594  0.0113
  713TIP3    H223631   2.888   1.886  62.884  1.0930  1.0151  0.0009
  714TIP3   OH223632   0.706   0.745  56.227 -0.0308  0.1450  0.5666
  714TIP3    H123633   0.665   0.761  56.313 -1.2240 -2.0380  0.4860
  714TIP3    H223634   0.632   0.727  56.169  0.8231  0.7550 -0.7658
  715TIP3   OH223635   0.081   1.365  11.135 -0.2351 -0.0390 -0.0872
  715TIP3    H123636  -0.012   1.346  11.123 -0.3927 -0.4128  1.4503
  715TIP3    H223637   0.086   1.461  11.135 -0.5323 -0.0167 -0.6855
  716TIP3   OH223638   0.165   0.173   4.524  0.5405 -0.1796 -0.0797
  716TIP3    H123639   0.215   0.246   4.487  1.7784 -1.2689 -0.6506
  716TIP3    H223640   0.086   0.169   4.471  0.1193  1.1784  0.4169
  717TIP3   OH223641   2.409   1.460  64.581  0.1974  0.1193 -0.8169
  717TIP3    H123642   2.328   1.411  64.568  1.5696 -2.1800 -1.3306
  717TIP3    H223643   2.390   1.548  64.548 -1.7614 -0.6284 -1.8390
  718TIP3   OH223644   2.349   0.113  27.265  0.3852  0.2294 -0.7969
  718TIP3    H123645   2.435   0.074  27.247  0.4156  0.1439 -0.4598
  718TIP3    H223646   2.369   0.201  27.297  0.4446 -0.4554  1.1762
  719TIP3   OH223647   2.680   2.099  28.360 -0.0171 -0.3700 -0.4770
  719TIP3    H123648   2.775   2.109  28.349  0.2952 -1.8914  0.5681
  719TIP3    H223649   2.643   2.160  28.296  1.6394  1.2655  0.0130
  720TIP3   OH223650   2.006   2.982  58.958  0.1467  0.1577 -0.4009
  720TIP3    H123651   2.014   3.067  59.001 -1.6377  0.0964  0.1380
  720TIP3    H223652   2.022   3.000  58.866 -0.2219  1.0863 -0.2927
  721TIP3   OH223653   3.247   2.162  29.144 -0.3909  0.5608  0.1438
  721TIP3    H123654   3.191   2.240  29.138 -0.3104  0.6076  0.0093
  721TIP3    H223655   3.227   2.125  29.230 -2.5017 -0.8245 -0.8582
  722TIP3   OH223656   2.882   2.964  58.254 -0.0888  0.0329 -0.3189
  722TIP3    H123657   2.817   2.922  58.198 -0.8649 -0.7329  1.1030
  722TIP3    H223658   2.911   2.895  58.313  0.8511  0.7662  0.0972
  723TIP3   OH223659   1.779   1.082  47.398 -0.5028  0.3885 -0.1670
  723TIP3    H123660   1.735   1.007  47.437  1.7071  0.2423  2.2428
  723TIP3    H223661   1.725   1.157  47.423  0.1124  0.1343  2.0727
  724TIP3   OH223662   0.508   2.214  43.624  0.8208 -0.1255  0.7347
  724TIP3    H123663   0.432   2.158  43.606 -0.2968  1.2427  1.0395
  724TIP3    H223664   0.543   2.235  43.538 -0.2274  0.6506  0.4789
  725TIP3   OH223665   0.278   1.470  12.833 -0.3474  0.3801  0.1145
  725TIP3    H123666   0.259   1.548  12.782 -0.1910 -0.3177 -1.0555
  725TIP3    H223667   0.372   1.455  12.819  0.0930  1.1480  2.0251
  726TIP3   OH223668   2.930   0.109  52.549  0.2101 -0.8012 -0.1878
  726TIP3    H123669   2.969   0.168  52.613 -0.7300 -0.4999  0.1262
  726TIP3    H223670   2.992   0.108  52.476  0.2349  0.6032 -0.2122
  727TIP3   OH223671   0.755   1.149  34.894 -0.1657 -0.2996  0.7649
  727TIP3    H123672   0.784   1.079  34.836 -1.4704  2.0800 -3.0751
  727TIP3    H223673   0.710   1.103  34.966  2.7255 -3.4500  0.8290
  728TIP3   OH223674   2.055   0.164  17.696  0.3236 -0.0098  0.3458
  728TIP3    H123675   2.060   0.242  17.640 -0.5831  0.6483  1.1425
  728TIP3    H223676   2.121   0.179  17.763  0.5536 -0.2077  0.1633
  729TIP3   OH223677   2.594   0.058  54.196  0.0679  0.4711 -0.0371
  729TIP3    H123678   2.611   0.114  54.271 -1.0082 -1.4358  1.7471
  729TIP3    H223679   2.677   0.056  54.148  0.6525  2.0789  0.8235
  730TIP3   OH223680   2.916   3.339  61.867 -0.2517  0.2913  0.3943
  730TIP3    H123681   2.873   3.334  61.953 -1.8514  0.2220 -0.3887
  730TIP3    H223682   2.869   3.408  61.821 -2.3044 -2.4572 -1.9740
  731TIP3   OH223683   0.892   2.468  21.042 -0.6814 -0.2469 -0.3752
  731TIP3    H123684   0.827   2.404  21.072  0.3857 -1.2554 -0.1427
  731TIP3    H223685   0.924   2.432  20.959  1.2364 -1.0273  0.6280
  732TIP3   OH223686   0.306   1.769   8.907  0.1104 -0.6656 -0.1172
  732TIP3    H123687   0.351   1.848   8.937  0.7537 -1.0444 -0.0545
  732TIP3    H223688   0.311   1.774   8.811 -1.5289  0.3087 -0.1752
  733TIP3   OH223689   0.692   0.741  51.140  0.0641 -0.4543 -0.4001
  733TIP3    H123690   0.637   0.677  51.094 -0.2263 -1.1853  0.9322
  733TIP3    H223691   0.750   0.775  51.072  0.2639 -2.1660 -1.1369
  734TIP3   OH223692   2.822   2.007   2.637  0.4537 -0.6510 -0.5833
  734TIP3    H123693   2.871   2.003   2.554  0.6452  2.1066 -0.7244
  734TIP3    H223694   2.873   2.066   2.692 -0.9506 -0.4441  0.5692
  735TIP3   OH223695   1.897   1.359  19.491  0.1775 -0.2439 -0.5508
  735TIP3    H123696   1.990   1.378  19.504 -0.1849  1.4463 -0.0937
  735TIP3    H223697   1.889   1.265  19.504  1.6249 -0.2206  0.8231
  736TIP3   OH223698   1.345   2.158  43.685 -0.1375  0.0617 -0.7957
  736TIP3    H123699   1.277   2.171  43.750 -0.9554 -1.0826 -1.3868
  736TIP3    H223700   1.305   2.099  43.620  1.1262  0.0462 -1.5901
  737TIP3   OH223701   0.567   2.433   8.245 -0.2670  0.9660  0.0741
  737TIP3    H123702   0.540   2.525   8.246  2.7051  1.9852 -1.2727
  737TIP3    H223703   0.634   2.429   8.177  0.3281 -2.0238  0.7198
  738TIP3   OH223704   2.005   3.011   1.404  0.7337 -0.0895 -0.0525
  738TIP3    H123705   2.037   3.101   1.403  1.5651 -0.3460  1.1280
  738TIP3    H223706   2.083   2.957   1.390  0.5107 -0.6632  0.7985
  739TIP3   OH223707   0.375   2.955   5.379  0.3815  0.4558  0.3905
  739TIP3    H123708   0.440   3.001   5.327 -0.7717  2.0933  0.3241
  739TIP3    H223709   0.413   2.950   5.467  1.3002 -0.1750 -0.0209
  740TIP3   OH223710   2.377   2.511  14.183 -0.1119  0.1935 -1.1159
  740TIP3    H123711   2.403   2.434  14.234 -2.1451 -0.0150 -0.2740
  740TIP3    H223712   2.336   2.474  14.105  1.1182  0.4866 -1.9176
  741TIP3   OH223713   3.266   2.278  21.811  0.0582  0.0993 -0.3251
  741TIP3    H123714   3.343   2.236  21.773  1.9231  1.3961  1.7934
  741TIP3    H223715   3.232   2.214  21.873  0.0472 -0.0905 -0.5258
  742TIP3   OH223716   0.585   0.810  42.389  0.3572 -0.1912  0.5596
  742TIP3    H123717   0.628   0.857  42.318  0.0670 -2.5676 -1.3430
  742TIP3    H223718   0.492   0.834  42.381  0.3278 -0.4401  0.1180
  743TIP3   OH223719   2.229   1.952  11.981  0.8613 -0.2194 -0.4624
  743TIP3    H123720   2.283   1.873  11.974 -1.3911 -1.7462 -2.0010
  743TIP3    H223721   2.263   2.011  11.914  0.3236 -1.3787 -1.7908
  744TIP3   OH223722   2.830   1.315  17.350  1.3931 -0.2070  0.0282
  744TIP3    H123723   2.800   1.285  17.435  2.1370  2.9240  1.5239
  744TIP3    H223724   2.754   1.304  17.292  1.5585 -4.5816  0.3264
  745TIP3   OH223725   0.497   0.384  61.912  0.3813  0.3801 -0.0913
  745TIP3    H123726   0.561   0.397  61.982  0.8627  0.1959 -0.4828
  745TIP3    H223727   0.508   0.292  61.887 -0.4601  0.1839  0.2388
  746TIP3   OH223728   2.860   0.636  58.069 -0.2291  0.0140  0.1924
  746TIP3    H123729   2.887   0.623  58.160 -1.1244 -1.8685  0.2297
  746TIP3    H223730   2.875   0.729  58.053  2.6504 -0.1411  1.3562
  747TIP3   OH223731   2.713   3.265  62.917 -0.6155  0.3165 -0.3196
  747TIP3    H123732   2.704   3.343  62.861  0.3019 -0.0126 -0.9452
  747TIP3    H223733   2.724   3.300  63.005  2.2830  1.0570 -0.8641
  748TIP3   OH223734   1.950   0.632  10.590 -0.0467  0.4158 -0.3527
  748TIP3    H123735   1.895   0.706  10.564 -0.9160  0.3050  1.0580
  748TIP3    H223736   2.015   0.669  10.649 -1.3774 -0.1238  1.5275
  749TIP3   OH223737   3.272   0.152  56.131  0.0589 -0.3775 -0.2150
  749TIP3    H123738   3.230   0.216  56.073 -0.7905 -2.4361 -2.0270
  749TIP3    H223739   3.200   0.118  56.185  0.7381  1.0793  1.7372
  750TIP3   OH223740   1.488   2.090  64.514 -0.0471  0.3721  0.2063
  750TIP3    H123741   1.406   2.131  64.542  0.1511  1.6843 -1.0250
  750TIP3    H223742   1.474   2.069  64.422  0.3165 -1.2262  0.4849
  751TIP3   OH223743   1.111   0.458   6.714  0.3525  0.2499 -0.7873
  751TIP3    H123744   1.106   0.498   6.801  1.8025 -0.3327 -0.4118
  751TIP3    H223745   1.161   0.521   6.662 -1.6804  1.2567 -1.6320
  752TIP3   OH223746   0.901   0.767  54.624  0.4418  0.0434 -0.2172
  752TIP3    H123747   0.867   0.693  54.674  1.7935 -0.9562 -0.7037
  752TIP3    H223748   0.987   0.784  54.662  0.6823  0.5301 -0.9627
  753TIP3   OH223749   3.337   0.763  62.768 -0.0989  0.0452 -0.5770
  753TIP3    H123750   3.266   0.706  62.798  0.5680 -0.5261 -0.0267
  753TIP3    H223751   3.346   0.744  62.675 -0.7052  0.1629 -0.6592
  754TIP3   OH223752   3.228   2.804  55.125 -0.3248 -0.3050 -0.2088
  754TIP3    H123753   3.273   2.882  55.092  1.2226 -0.1508  2.0595
  754TIP3    H223754   3.297   2.751  55.164 -1.5081 -2.3330 -0.6970
  755TIP3   OH223755   3.030   1.251  13.090  0.3591 -0.1698 -0.3230
  755TIP3    H123756   3.046   1.334  13.045 -2.1806  0.9692  0.7044
  755TIP3    H223757   3.115   1.230  13.131  1.1307  1.7814 -0.7980
  756TIP3   OH223758   2.681   0.239   9.959  0.1391 -0.0848 -0.0301
  756TIP3    H123759   2.706   0.168  10.018 -1.2260 -1.4448 -0.9948
  756TIP3    H223760   2.699   0.319  10.008 -0.3125 -1.1325  1.9554
  757TIP3   OH223761   2.153   2.282   5.478 -0.3758 -0.0611  0.2900
  757TIP3    H123762   2.143   2.373   5.504  1.6210  0.0171  0.9533
  757TIP3    H223763   2.177   2.236   5.559  0.5915 -0.8043 -0.3912
  758TIP3   OH223764   3.342   0.252   5.743 -0.2895  1.0737 -0.1408
  758TIP3    H123765   3.258   0.291   5.769 -1.6044 -1.1704 -0.7965
  758TIP3    H223766   3.343   0.260   5.647  0.3816  1.3216 -0.1166
  759TIP3   OH223767   0.093   1.088  62.040 -0.6637 -0.0249  0.0735
  759TIP3    H123768   0.095   1.071  61.946  0.3855  1.2632 -0.1609
  759TIP3    H223769   0.176   1.054  62.073 -1.6811 -1.9377  0.8525
  760TIP3   OH223770   1.770   2.859  56.568  0.0373  0.5703 -0.4670
  760TIP3    H123771   1.744   2.770  56.544 -0.8035  0.8964 -0.8099
  760TIP3    H223772   1.827   2.887  56.496 -0.0548  0.4624 -0.5834
  761TIP3   OH223773   0.277   2.541  15.326  0.5076  0.0221 -0.2293
  761TIP3    H123774   0.258   2.504  15.240  1.4800 -2.7765  0.6643
  761TIP3    H223775   0.232   2.484  15.388  2.0935  0.2815  1.2604
  762TIP3   OH223776   2.087   2.252  66.610  0.3808 -0.0066 -0.1430
  762TIP3    H123777   2.155   2.317  66.590 -0.9254  1.5229  0.2318
  762TIP3    H223778   2.086   2.248  66.705  0.7119 -0.8887 -0.1715
  763TIP3   OH223779   0.754   2.267  16.510  0.1379  0.2221  0.5135
  763TIP3    H123780   0.679   2.211  16.490  1.3634 -1.1400 -0.4950
  763TIP3    H223781   0.736   2.349  16.463  0.0432 -0.7129 -1.1600
  764TIP3   OH223782   2.807   0.136  59.001  0.0909  0.8063  0.0939
  764TIP3    H123783   2.784   0.226  58.978 -1.2019  0.7885  1.1829
  764TIP3    H223784   2.773   0.125  59.090 -2.0805 -1.5348 -0.9051
  765TIP3   OH223785   3.181   1.054  42.864  0.3146  0.3811  0.3065
  765TIP3    H123786   3.242   1.004  42.919 -2.2388  0.2160  3.3094
  765TIP3    H223787   3.200   1.145  42.885  1.3902  0.5141 -1.0593
  766TIP3   OH223788   2.055   3.328  60.054 -0.0820  0.0932 -0.4227
  766TIP3    H123789   2.029   3.237  60.062 -0.4127  0.1658 -0.6328
  766TIP3    H223790   1.973   3.374  60.034  0.1321  0.3929 -0.6170
  767TIP3   OH223791   0.920   0.134  59.402 -0.6446  0.5070 -0.2969
  767TIP3    H123792   0.973   0.191  59.458 -0.1985  0.6265 -0.8352
  767TIP3    H223793   0.979   0.063  59.378 -0.6791  0.7166 -1.0217
  768TIP3   OH223794   3.286   1.410  17.053  0.6836 -0.2822 -0.4757
  768TIP3    H123795   3.209   1.401  16.996  0.6598 -0.7121 -0.3775
  768TIP3    H223796   3.301   1.505  17.057 -0.0452 -0.1667 -0.2255
  769TIP3   OH223797   1.362   2.841   7.117  0.5266 -0.0679  0.7580
  769TIP3    H123798   1.361   2.866   7.025  0.1539 -1.4669  0.3587
  769TIP3    H223799   1.442   2.788   7.127 -0.1949 -1.1673  0.8668
  770TIP3   OH223800   2.562   0.692  21.067 -0.2176  0.0322  0.4273
  770TIP3    H123801   2.604   0.775  21.046 -0.4687  0.1053  0.2156
  770TIP3    H223802   2.481   0.717  21.112 -2.0320  0.0396 -2.5947
  771TIP3   OH223803   1.438   2.631  12.999  0.0520  0.4546 -0.2509
  771TIP3    H123804   1.444   2.566  13.069 -0.5655  0.6746  0.0144
  771TIP3    H223805   1.454   2.581  12.918 -1.5186 -0.2728 -0.1538
  772TIP3   OH223806   0.755   0.052  55.872 -0.2640  0.3119  0.3523
  772TIP3    H123807   0.682   0.003  55.909 -0.2819 -1.4255 -1.7660
  772TIP3    H223808   0.714   0.123  55.822 -0.3626  0.7532  1.0432
  773TIP3   OH223809   1.661   2.352  19.902  0.2466  0.6210 -0.1179
  773TIP3    H123810   1.570   2.324  19.894  1.0814 -1.8939 -2.9609
  773TIP3    H223811   1.659   2.446  19.880 -1.4019 -0.0490 -3.5349
  774TIP3   OH223812   0.365   1.601   9.320  0.1624 -0.1248 -0.1349
  774TIP3    H123813   0.277   1.628   9.295 -0.9425 -2.5865  0.8421
  774TIP3    H223814   0.372   1.625   9.413  1.0561  1.2011 -0.5046
  775TIP3   OH223815   3.075   3.450   3.996 -0.1509  0.0528 -0.2851
  775TIP3    H123816   3.042   3.524   4.046  1.2107  1.2381 -1.0594
  775TIP3    H223817   3.127   3.400   4.060 -1.0437 -0.2361  0.2312
  776TIP3   OH223818   1.283   3.259  54.074  0.0900  0.2843 -0.6929
  776TIP3    H123819   1.250   3.315  54.145 -0.6532  0.8303 -1.4463
  776TIP3    H223820   1.360   3.216  54.112 -0.7477 -0.0593  0.7114
  777TIP3   OH223821   3.113   0.809  56.779  0.3972 -0.7595 -0.3970
  777TIP3    H123822   3.100   0.882  56.719  0.8742  0.4049  0.8592
  777TIP3    H223823   3.039   0.751  56.764 -1.3018  1.1304  0.1807
  778TIP3   OH223824   2.287   3.211  63.108 -0.0323 -0.8987 -0.0278
  778TIP3    H123825   2.208   3.159  63.092 -0.1769 -0.9046  0.6465
  778TIP3    H223826   2.270   3.255  63.191 -0.0568  0.5125 -0.7466
  779TIP3   OH223827   0.386   2.786  47.660 -0.3936 -0.0972 -0.5346
  779TIP3    H123828   0.471   2.829  47.665  0.3654 -1.5024 -0.9143
  779TIP3    H223829   0.347   2.818  47.579 -0.8166  1.5387  0.2749
  780TIP3   OH223830   0.862   2.887  52.338 -0.1105  0.2222  0.0693
  780TIP3    H123831   0.867   2.797  52.307 -0.8241 -0.1527  0.9787
  780TIP3    H223832   0.801   2.930  52.278  0.8738  0.3481 -0.8807
  781TIP3   OH223833   0.645   2.980  19.293  0.1115  0.8564 -0.1581
  781TIP3    H123834   0.554   3.012  19.293 -0.7915 -1.4885  0.8332
  781TIP3    H223835   0.646   2.911  19.360  2.1231 -0.5618 -1.5531
  782TIP3   OH223836   0.190   0.916  66.971  0.2929 -0.1489 -0.1665
  782TIP3    H123837   0.203   0.832  66.927 -0.7357 -0.2812 -0.2556
  782TIP3    H223838   0.278   0.952  66.981  0.9621 -2.0420  1.4979
  783TIP3   OH223839   2.383   1.867  10.981  0.3312 -0.2602  0.2580
  783TIP3    H123840   2.391   1.772  10.986  0.8956 -0.2011  0.5058
  783TIP3    H223841   2.468   1.898  10.950  0.6868  0.2647  1.6421
  784TIP3   OH223842   2.520   2.329  48.950 -0.4648  0.4939  0.5669
  784TIP3    H123843   2.474   2.279  48.883  0.8601 -0.6308  0.4591
  784TIP3    H223844   2.498   2.286  49.032  1.5529 -1.0690  0.3766
  785TIP3   OH223845   0.206   0.122   5.591  0.3515 -0.0239 -0.4804
  785TIP3    H123846   0.159   0.169   5.660 -0.6082  1.0262 -1.7983
  785TIP3    H223847   0.272   0.185   5.559  0.0431 -0.0847 -1.2584
  786TIP3   OH223848   1.061   2.469  50.611 -0.4931  0.5218 -0.0140
  786TIP3    H123849   0.969   2.485  50.593 -0.9824 -1.0218  0.9401
  786TIP3    H223850   1.061   2.401  50.678  1.3411  0.7036  0.2172
  787TIP3   OH223851   1.881   1.650  46.597  0.0055  0.3123  0.3833
  787TIP3    H123852   1.914   1.727  46.551 -0.4260 -0.8303 -1.9446
  787TIP3    H223853   1.960   1.607  46.631  0.6899 -0.4975 -2.0643
  788TIP3   OH223854   3.199   2.653  57.519  0.1052 -0.1310  0.1991
  788TIP3    H123855   3.115   2.674  57.480  1.1682  1.9538 -1.1636
  788TIP3    H223856   3.217   2.726  57.578  0.4179 -1.1811  1.4518
  789TIP3   OH223857   1.628   2.945  65.981 -0.4380 -1.0369  0.4979
  789TIP3    H123858   1.721   2.958  65.963 -0.5866 -0.2232  0.2901
  789TIP3    H223859   1.585   3.021  65.942 -1.2034 -1.4717  0.4842
  790TIP3   OH223860   0.835   2.357  62.164  0.0734 -0.1102  0.1843
  790TIP3    H123861   0.847   2.267  62.133 -0.5712 -0.0685 -0.2046
  790TIP3    H223862   0.923   2.385  62.191  0.3442 -0.7242 -0.0416
  791TIP3   OH223863   0.106   2.481  56.676  0.1748 -0.2601  0.1055
  791TIP3    H123864   0.097   2.576  56.679  2.1017 -0.0580  0.6231
  791TIP3    H223865   0.200   2.465  56.687 -0.2471 -2.2796  1.2385
  792TIP3   OH223866   1.461   1.101  46.804  0.0528 -0.0213 -0.3034
  792TIP3    H123867   1.484   1.099  46.711 -0.1064  0.4149 -0.3563
  792TIP3    H223868   1.412   1.020  46.819  0.0707 -0.0878 -0.6040
  793TIP3   OH223869   2.046   1.126  64.873  0.3410 -0.3675  0.0504
  793TIP3    H123870   2.096   1.192  64.824  1.8848 -2.9015 -2.0807
  793TIP3    H223871   1.955   1.152  64.862  0.8215  0.7677 -1.7703
  794TIP3   OH223872   1.964   0.530  20.751 -0.1352 -0.6770  0.0839
  794TIP3    H123873   2.008   0.447  20.765 -1.0227 -1.0712  0.6266
  794TIP3    H223874   2.034   0.592  20.729  0.5645 -1.4851  0.0171
  795TIP3   OH223875   0.791   1.439  64.764 -0.1799 -0.3396  0.0736
  795TIP3    H123876   0.751   1.392  64.691 -0.1458  0.4791 -0.4899
  795TIP3    H223877   0.742   1.521  64.770  1.5634  0.8516 -0.8694
  796TIP3   OH223878   0.532   1.952  34.364 -0.1486 -0.3270  0.4236
  796TIP3    H123879   0.484   1.909  34.435 -0.3523  0.6251  0.8772
  796TIP3    H223880   0.532   2.045  34.388  0.2684 -0.0674 -0.5441
  797TIP3   OH223881   2.459   2.650  56.173  0.0466 -0.6888 -0.0775
  797TIP3    H123882   2.537   2.616  56.130  0.3382 -0.1843  0.0423
  797TIP3    H223883   2.416   2.572  56.210 -0.2481 -1.1351 -1.3111
  798TIP3   OH223884   0.967   1.104   7.168 -0.3878 -0.2473 -0.7399
  798TIP3    H123885   0.929   1.170   7.227 -1.1926 -0.8826 -0.5121
  798TIP3    H223886   1.056   1.133   7.153 -0.1674 -0.0375  0.7862
  799TIP3   OH223887   2.989   2.273   8.925  0.2255  0.5007  1.2107
  799TIP3    H123888   2.896   2.289   8.912  0.2505 -0.2137 -0.0267
  799TIP3    H223889   3.021   2.246   8.838  1.4587  0.1673  1.7446
  800TIP3   OH223890   2.717   2.132  13.547 -0.7902  0.2109 -0.2066
  800TIP3    H123891   2.774   2.172  13.481  1.5927  0.1543  1.7031
  800TIP3    H223892   2.692   2.204  13.604 -1.2543 -0.0636 -0.0590
  801TIP3   OH223893   1.200   0.120  60.815  0.0311 -0.4567  0.1081
  801TIP3    H123894   1.197   0.212  60.789  1.0442 -0.7967 -1.3498
  801TIP3    H223895   1.257   0.119  60.892  1.6515 -0.0610 -1.0242
  802TIP3   OH223896   0.319   3.199  59.751 -0.4455  0.2775 -0.3275
  802TIP3    H123897   0.223   3.205  59.759 -0.2158  3.4046  2.1194
  802TIP3    H223898   0.345   3.282  59.712  1.3839  0.4087  1.0338
  803TIP3   OH223899   2.091   0.958  15.983  0.1744  0.0718  0.2083
  803TIP3    H123900   2.078   0.864  15.976 -1.3145  0.3430 -1.8671
  803TIP3    H223901   2.103   0.987  15.892  2.4942  1.6796  0.9302
  804TIP3   OH223902   0.797   2.975   9.993  0.1244 -0.1622 -0.6846
  804TIP3    H123903   0.803   3.065   9.962  1.8054  0.0059  0.0330
  804TIP3    H223904   0.887   2.943   9.993 -0.0689 -0.9068  1.7658
  805TIP3   OH223905   2.852   0.631  43.436 -0.7792 -0.2838 -0.1186
  805TIP3    H123906   2.944   0.654  43.440 -0.9932  0.3559  2.3197
  805TIP3    H223907   2.851   0.535  43.435 -0.1084 -0.2969 -1.2111
  806TIP3   OH223908   1.731   3.309  42.859 -0.0923 -0.1735 -0.0976
  806TIP3    H123909   1.646   3.329  42.820 -0.3319 -0.4575  0.2597
  806TIP3    H223910   1.795   3.332  42.793 -0.4367  0.3052 -0.2621
  807TIP3   OH223911   0.329   0.191  52.048  0.7993 -0.1135 -0.2302
  807TIP3    H123912   0.412   0.201  52.093  0.5697  1.3523 -0.0814
  807TIP3    H223913   0.288   0.278  52.053 -1.5551 -1.1856  1.2976
  808TIP3   OH223914   1.883   1.270  20.755 -0.1457 -0.5096  0.3189
  808TIP3    H123915   1.843   1.183  20.755  0.9704 -1.0452  1.3238
  808TIP3    H223916   1.820   1.325  20.803 -0.5497 -0.9030  0.2445
  809TIP3   OH223917   0.934   3.361  44.862  0.1874  0.0641  0.2340
  809TIP3    H123918   0.965   3.314  44.939 -0.7027  0.2019  0.6896
  809TIP3    H223919   0.855   3.407  44.892  0.1389  0.5600 -0.6141
  810TIP3   OH223920   0.547   0.263  52.177  0.7175  0.7217 -0.0899
  810TIP3    H123921   0.606   0.229  52.244  1.0197  0.2816 -0.5600
  810TIP3    H223922   0.575   0.353  52.163 -0.6475  1.4862  1.7856
  811TIP3   OH223923   0.448   3.353  14.088 -0.2900  0.0392  0.5111
  811TIP3    H123924   0.448   3.448  14.098  0.4445  0.0669  0.2765
  811TIP3    H223925   0.388   3.337  14.015  1.0753  0.4882 -0.7827
  812TIP3   OH223926   3.316   0.114  55.753  0.1337 -0.1512  0.0177
  812TIP3    H123927   3.305   0.178  55.683  0.2305  0.3573  0.4606
  812TIP3    H223928   3.236   0.120  55.805  1.2013  1.5142  1.5853
  813TIP3   OH223929   2.956   1.058  18.671  0.7488  0.0580  0.5898
  813TIP3    H123930   3.046   1.088  18.686  0.3986  0.1540  2.8016
  813TIP3    H223931   2.907   1.139  18.655  1.1321 -0.0468 -1.3466
  814TIP3   OH223932   3.293   3.246  14.788  0.3687  0.3955  0.1858
  814TIP3    H123933   3.209   3.280  14.819  0.4290 -0.5749  1.5240
  814TIP3    H223934   3.312   3.173  14.848  1.8160  0.1504 -0.5423
  815TIP3   OH223935   0.971   2.381  57.831 -0.0767  0.2151  0.2036
  815TIP3    H123936   0.990   2.289  57.815  1.6341  0.6737 -0.6431
  815TIP3    H223937   0.979   2.392  57.926  0.5199 -0.3402  0.2182
  816TIP3   OH223938   2.910   1.582  20.890  0.3433  0.7044  0.3377
  816TIP3    H123939   2.903   1.574  20.795 -0.8348 -1.4850  0.5414
  816TIP3    H223940   3.004   1.588  20.907  0.5815  0.7103 -0.9344
  817TIP3   OH223941   2.932   1.139  62.759 -0.5029  0.4926 -0.1459
  817TIP3    H123942   2.862   1.199  62.734 -0.3226  0.6671 -0.2314
  817TIP3    H223943   2.990   1.191  62.816 -2.4389 -0.6538  3.1338
  818TIP3   OH223944   2.044   1.527  64.797  0.3986  0.2516  0.1649
  818TIP3    H123945   2.119   1.558  64.847  0.3350  1.2804 -0.3254
  818TIP3    H223946   1.983   1.601  64.799 -0.3962 -0.3940  0.1542
  819TIP3   OH223947   1.369   1.229   9.746  0.4962 -0.0349  0.4616
  819TIP3    H123948   1.326   1.158   9.698 -1.3853  0.9439  0.5935
  819TIP3    H223949   1.330   1.227   9.833  1.1403  0.5370  0.7711
  820TIP3   OH223950   0.115   0.510  56.675 -0.2741 -0.2100  0.5658
  820TIP3    H123951   0.060   0.563  56.733 -1.7625  3.0074 -3.2641
  820TIP3    H223952   0.063   0.431  56.658 -0.5019 -0.4521  2.2624
  821TIP3   OH223953   2.848   3.108  19.852  0.4789  0.4414  0.2824
  821TIP3    H123954   2.905   3.064  19.915  0.6659 -0.0946 -0.2458
  821TIP3    H223955   2.775   3.141  19.903  1.0944  0.8404  0.9197
  822TIP3   OH223956   0.074   2.506  46.667  0.1526  0.2640 -0.4316
  822TIP3    H123957   0.164   2.508  46.633  0.2842  1.3093 -0.0598
  822TIP3    H223958   0.069   2.582  46.724 -0.8884  0.0365 -0.2073
  823TIP3   OH223959   0.579   0.467  43.645  0.0707 -0.0327  0.6416
  823TIP3    H123960   0.520   0.423  43.706 -0.3896  0.4584  0.5565
  823TIP3    H223961   0.567   0.421  43.562  1.1431 -1.0978  1.0393
  824TIP3   OH223962   2.146   1.860  51.468 -0.0506 -0.3047  0.0219
  824TIP3    H123963   2.081   1.874  51.398 -1.5652  0.6032  1.5358
  824TIP3    H223964   2.136   1.768  51.491  0.8275 -0.7534 -1.2691
  825TIP3   OH223965   2.127   0.582   6.939  0.3959 -0.0716  0.0264
  825TIP3    H123966   2.037   0.563   6.964  1.5767 -2.9875  2.6357
  825TIP3    H223967   2.175   0.501   6.956  3.4681  1.1816 -1.7915
  826TIP3   OH223968   2.731   3.245  25.926  0.4731 -0.4450  0.2892
  826TIP3    H123969   2.726   3.263  26.020 -0.3257 -2.2913  0.6520
  826TIP3    H223970   2.773   3.322  25.889 -2.3251  1.9413  1.6613
  827TIP3   OH223971   0.327   2.524  50.541 -0.0581 -0.7470 -0.2046
  827TIP3    H123972   0.271   2.587  50.496  1.2729  1.3594  0.8855
  827TIP3    H223973   0.288   2.514  50.627 -0.2113 -1.3616 -0.3440
  828TIP3   OH223974   2.262   0.611   3.483 -0.8756  0.4611  0.3187
  828TIP3    H123975   2.182   0.602   3.536 -0.0970 -1.5792  1.2542
  828TIP3    H223976   2.236   0.581   3.396 -1.2300  0.2036  0.5122
  829TIP3   OH223977   1.367   3.084  21.547 -0.8778 -0.1171 -0.1369
  829TIP3    H123978   1.347   3.109  21.457 -2.6457  0.1153  0.2774
  829TIP3    H223979   1.356   2.989  21.549 -0.4727 -0.1657 -0.2541
  830TIP3   OH223980   1.146   3.397  36.250  0.6203  0.3451 -0.1882
  830TIP3    H123981   1.084   3.383  36.178  0.5061  2.1121 -0.4918
  830TIP3    H223982   1.189   3.480  36.228  3.6875 -1.1313 -0.3897
  831TIP3   OH223983   2.842   1.494  43.160 -0.0695  0.0298  0.1949
  831TIP3    H123984   2.798   1.525  43.239 -0.7923 -0.7944  0.1186
  831TIP3    H223985   2.912   1.437  43.192 -0.6405 -0.6575  0.2284
  832TIP3   OH223986   0.799   0.626  67.475 -0.3657  0.0814  0.1024
  832TIP3    H123987   0.816   0.536  67.446 -1.8875 -0.1562 -0.1311
  832TIP3    H223988   0.744   0.616  67.552 -1.2584  0.8171 -0.4300
  833TIP3   OH223989   2.430   1.969  14.188 -0.2668  0.0933 -0.1253
  833TIP3    H123990   2.428   2.065  14.186 -0.4115  0.0875 -1.3704
  833TIP3    H223991   2.462   1.944  14.101  1.3864 -0.9760  0.7251
  834TIP3   OH223992   0.457   0.254  47.914  0.0729 -0.2802 -0.1676
  834TIP3    H123993   0.519   0.326  47.905 -0.9379  0.5896 -0.2500
  834TIP3    H223994   0.425   0.238  47.826  0.3857 -0.9344 -0.1726
  835TIP3   OH223995   0.728   1.902  46.414 -0.0341  0.4592 -0.3407
  835TIP3    H123996   0.633   1.902  46.426  0.1715  2.6831  1.8563
  835TIP3    H223997   0.741   1.859  46.329 -3.0528  0.9440 -1.1575
  836TIP3   OH223998   0.795   0.873  52.806  0.6942  0.4000 -0.0181
  836TIP3    H123999   0.848   0.932  52.752 -0.2214 -0.4809 -1.9612
  836TIP3    H224000   0.746   0.821  52.743 -1.6256  0.3796  1.7090
  837TIP3   OH224001   1.759   3.323  51.054 -0.1899  0.1304  0.3534
  837TIP3    H124002   1.762   3.234  51.089 -0.8609 -0.0806 -0.0987
  837TIP3    H224003   1.803   3.376  51.120 -0.2240 -0.4654  0.8683
  838TIP3   OH224004   1.323   3.104  65.207  0.0398  0.2077 -0.7810
  838TIP3    H124005   1.291   3.160  65.278  0.5768 -0.4383 -0.0188
  838TIP3    H224006   1.323   3.016  65.243  1.1608 -0.0149 -1.2760
  839TIP3   OH224007   0.672   3.397  57.280 -0.9751 -0.2992  0.7862
  839TIP3    H124008   0.643   3.454  57.209  0.2785 -0.7406 -0.1233
  839TIP3    H224009   0.736   3.449  57.328  1.1348 -1.2580 -0.8000
  840TIP3   OH224010   1.671   1.136   6.609  0.0898  0.0419 -0.6189
  840TIP3    H124011   1.741   1.139   6.673  0.6264  0.2785 -1.2126
  840TIP3    H224012   1.715   1.139   6.524 -0.6809  1.6015 -1.0028
  841TIP3   OH224013   2.035   0.092  63.970 -0.3227 -0.5359  0.1940
  841TIP3    H124014   2.115   0.041  63.980 -0.3753 -0.7514 -0.4475
  841TIP3    H224015   1.999   0.065  63.885 -0.6087  0.2012  0.0704
  842TIP3   OH224016   3.288   0.087  15.504 -0.2942  0.3928  0.0736
  842TIP3    H124017   3.193   0.073  15.504 -0.5969  1.9855  2.2422
  842TIP3    H224018   3.306   0.136  15.424 -1.2072 -0.3033 -0.5751
  843TIP3   OH224019   0.110   0.976  16.945  0.4095 -0.2127 -0.2513
  843TIP3    H124020   0.143   1.064  16.960  1.1709 -0.6547  0.7589
  843TIP3    H224021   0.022   0.977  16.983  0.0324  0.3799 -1.1178
  844TIP3   OH224022   2.824   3.154  57.587 -0.1105 -0.2449  0.1476
  844TIP3    H124023   2.765   3.193  57.652 -1.1366 -0.2579 -0.7385
  844TIP3    H224024   2.767   3.096  57.535  1.2048 -2.3271  0.9082
  845TIP3   OH224025   3.403   2.682  13.094 -0.0065  0.0940 -0.2893
  845TIP3    H124026   3.469   2.675  13.164 -0.3575 -2.7005 -0.1309
  845TIP3    H224027   3.454   2.703  13.016  0.7510  0.5179  0.3031
  846TIP3   OH224028   1.316   2.647  44.468 -0.1073 -0.4081  0.3233
  846TIP3    H124029   1.234   2.606  44.496 -0.5522  0.0889 -0.2283
  846TIP3    H224030   1.368   2.575  44.433 -0.0681 -0.8244  1.2141
  847TIP3   OH224031   0.904   2.857  55.803  0.0190  0.1651 -0.1164
  847TIP3    H124032   0.989   2.890  55.835  1.3425  0.0734 -3.1943
  847TIP3    H224033   0.896   2.895  55.716 -2.2951 -1.3014 -0.5963
  848TIP3   OH224034   2.072   3.096   9.199 -0.3689  0.4246  0.2448
  848TIP3    H124035   1.992   3.129   9.240 -0.0053  0.3256  1.0409
  848TIP3    H224036   2.143   3.127   9.255  0.1503  0.4097 -0.3876
  849TIP3   OH224037   1.661   1.643  53.669  0.6402  0.3085  0.2290
  849TIP3    H124038   1.610   1.598  53.602 -1.6560  1.5345  1.0256
  849TIP3    H224039   1.722   1.698  53.620 -0.6179  0.7838 -0.8771
  850TIP3   OH224040   3.178   2.652  50.466  0.3915  0.1759  0.3340
  850TIP3    H124041   3.169   2.572  50.414  0.5613  0.9543 -0.9496
  850TIP3    H224042   3.090   2.668  50.501 -0.0143  0.2338 -0.6686
  851TIP3   OH224043   0.130   0.584   7.942  0.0243  0.2535 -0.3739
  851TIP3    H124044   0.188   0.509   7.944 -0.8091 -0.4029  1.5798
  851TIP3    H224045   0.177   0.653   7.989  0.6168  0.8719 -1.8076
  852TIP3   OH224046   2.162   2.532  44.719  0.3624 -0.8138 -0.3383
  852TIP3    H124047   2.172   2.593  44.646  1.0338 -0.4441  0.0564
  852TIP3    H224048   2.247   2.487  44.724  0.0223 -1.4687 -0.3442
  853TIP3   OH224049   0.219   1.361  59.103 -0.6955  0.5972  0.2258
  853TIP3    H124050   0.251   1.400  59.021  0.3741  0.2291  0.4625
  853TIP3    H224051   0.132   1.401  59.115  0.1160  2.4970  0.1643
  854TIP3   OH224052   3.288   2.174  52.162 -0.1737 -0.2766 -0.0315
  854TIP3    H124053   3.251   2.116  52.096 -0.9909  0.9695 -0.7114
  854TIP3    H224054   3.376   2.194  52.130 -0.9577  1.2100 -1.3745
  855TIP3   OH224055   1.349   0.913  60.580  0.5484 -0.0912 -0.0252
  855TIP3    H124056   1.313   0.960  60.504 -0.2049 -0.2515  0.2268
  855TIP3    H224057   1.369   0.981  60.643 -1.4781 -0.1353  0.7352
  856TIP3   OH224058   1.699   1.551  50.114  0.4365  1.0727 -0.6065
  856TIP3    H124059   1.762   1.479  50.116 -1.8945 -1.1192  0.6088
  856TIP3    H224060   1.748   1.627  50.145  2.8543 -0.0883 -1.3199
  857TIP3   OH224061   2.332   3.188  56.951 -0.0161  0.0048 -0.0325
  857TIP3    H124062   2.358   3.204  56.861  1.4776  0.4409  0.4458
  857TIP3    H224063   2.236   3.194  56.950 -0.0103  0.2268 -1.5252
  858TIP3   OH224064   1.533   0.313  10.209 -0.2273  0.3038 -0.4208
  858TIP3    H124065   1.613   0.320  10.262  0.0567  0.3931 -0.8632
  858TIP3    H224066   1.537   0.226  10.171  0.4386  0.8644 -1.6832
  859TIP3   OH224067   1.535   1.564  63.755 -0.7620  0.1712  0.4107
  859TIP3    H124068   1.480   1.642  63.763  1.2973  1.6503  1.0620
  859TIP3    H224069   1.544   1.531  63.844  0.6990  0.9487  0.5870
  860TIP3   OH224070   3.162   1.243   0.016 -0.3955 -0.3153 -0.1882
  860TIP3    H124071   3.146   1.179   0.086 -0.5812 -1.0216 -0.8691
  860TIP3    H224072   3.149   1.328   0.059 -0.3827 -0.7306  0.6705
  861TIP3   OH224073   1.247   2.943  45.775 -0.0619  0.7098 -0.0875
  861TIP3    H124074   1.292   3.027  45.787 -0.8157  1.1632 -0.2992
  861TIP3    H224075   1.213   2.948  45.685  1.7186 -0.7379 -0.8871
  862TIP3   OH224076   2.937   1.776  45.808  0.3663 -0.7596 -0.0938
  862TIP3    H124077   2.912   1.696  45.762  0.6329 -0.4429 -0.7904
  862TIP3    H224078   2.913   1.759  45.900  0.3484 -1.6000 -0.2485
  863TIP3   OH224079   3.300   0.833  65.139 -0.4343 -0.0187 -0.2255
  863TIP3    H124080   3.232   0.793  65.193 -0.7364  0.0615 -0.5378
  863TIP3    H224081   3.286   0.796  65.052 -1.3097  1.4232 -0.7480
  864TIP3   OH224082   1.964   0.552  12.128  0.3605  0.2753 -0.0477
  864TIP3    H124083   2.000   0.471  12.091  1.0382  0.5002  0.1141
  864TIP3    H224084   2.030   0.619  12.109  0.8292  0.3677  1.7157
  865TIP3   OH224085   0.298   1.366  58.288 -0.6286  0.2458 -0.2248
  865TIP3    H124086   0.235   1.436  58.271 -1.3437 -0.3121  0.0728
  865TIP3    H224087   0.282   1.302  58.219 -1.2701 -0.4909  0.5888
  866TIP3   OH224088   3.195   1.268  44.356  0.6151  0.2366 -0.6068
  866TIP3    H124089   3.266   1.230  44.408  1.3530 -0.4441 -2.0496
  866TIP3    H224090   3.131   1.198  44.349  0.4566  0.3716 -0.5161
  867TIP3   OH224091   1.733   0.080  12.931 -0.3960  0.1515  0.7771
  867TIP3    H124092   1.737   0.034  13.015 -1.3267 -0.5131  0.4822
  867TIP3    H224093   1.644   0.116  12.928 -0.7527 -0.7592 -0.3761
  868TIP3   OH224094   1.060   3.104   0.672  0.0007  0.0649  0.0007
  868TIP3    H124095   1.106   3.154   0.605  1.0913 -3.2091 -1.9092
  868TIP3    H224096   1.119   3.032   0.695 -1.3135 -0.2822  2.8109
  869TIP3   OH224097   1.302   3.136  43.341 -0.1882  0.2373 -0.0653
  869TIP3    H124098   1.357   3.214  43.340 -0.0854  0.1651 -0.9355
  869TIP3    H224099   1.227   3.158  43.285 -0.6738  0.0669  0.5027
  870TIP3   OH224100   1.858   1.813   7.574 -0.2795  0.3547 -0.0801
  870TIP3    H124101   1.892   1.902   7.583 -1.1836  0.5734  1.6582
  870TIP3    H224102   1.792   1.820   7.505  0.3101  0.8122 -0.6091
  871TIP3   OH224103   1.209   1.909  56.503  0.1976  0.3537  0.2465
  871TIP3    H124104   1.301   1.886  56.492  0.2541 -0.9668  2.8523
  871TIP3    H224105   1.161   1.832  56.474 -0.0416  0.5414  0.1349
  872TIP3   OH224106   1.384   0.775  45.872 -0.0121 -0.6394 -0.4488
  872TIP3    H124107   1.369   0.697  45.925  0.2445  0.9353  2.0537
  872TIP3    H224108   1.434   0.834  45.928 -1.0970  1.7768 -1.8741
  873TIP3   OH224109   3.227   0.755  45.324  0.1859 -0.2898 -0.6949
  873TIP3    H124110   3.275   0.795  45.397  1.0643 -0.7999 -0.9810
  873TIP3    H224111   3.236   0.661  45.337 -0.8058 -0.4058 -0.7302
  874TIP3   OH224112   0.327   2.407   0.211  0.0758  0.2857 -0.2941
  874TIP3    H124113   0.244   2.398   0.163  0.4340  2.4928 -1.4813
  874TIP3    H224114   0.345   2.320   0.245 -4.1723  0.1830  2.5166
  875TIP3   OH224115   2.412   1.080  58.947  0.3975  0.7886 -0.3328
  875TIP3    H124116   2.350   1.114  58.883 -0.0811  0.4660 -0.0504
  875TIP3    H224117   2.359   1.065  59.026  0.7321  0.0561 -0.2384
  876TIP3   OH224118   2.484   1.487   7.648 -0.5503  0.0686 -0.2473
  876TIP3    H124119   2.423   1.560   7.642 -0.4928  0.0985 -0.4794
  876TIP3    H224120   2.437   1.413   7.610 -1.1709 -0.3858  1.3262
  877TIP3   OH224121   2.374   2.885  51.567 -0.6116 -0.2289  0.1535
  877TIP3    H124122   2.295   2.912  51.613 -0.8801 -0.4786 -0.1506
  877TIP3    H224123   2.445   2.929  51.612 -0.8827 -0.3559  0.7142
  878TIP3   OH224124   3.405   1.703  13.392 -0.2045 -0.1497 -0.2452
  878TIP3    H124125   3.498   1.686  13.381  0.1340 -1.1610  3.0807
  878TIP3    H224126   3.401   1.783  13.444 -1.1914 -0.2285 -0.1861
  879TIP3   OH224127   0.547   2.595  45.309 -0.0485  0.3672  0.0144
  879TIP3    H124128   0.617   2.659  45.321  0.4931 -0.4695  1.6136
  879TIP3    H224129   0.481   2.618  45.374 -0.0052 -0.4724  0.3700
  880TIP3   OH224130   2.413   1.874  17.169  0.3613  0.1398  0.2327
  880TIP3    H124131   2.395   1.952  17.221 -0.2924 -0.6423  1.2185
  880TIP3    H224132   2.494   1.838  17.207  0.9888  0.6376 -0.5991
  881TIP3   OH224133   2.015   1.287  22.863  0.4092  0.0288 -0.0893
  881TIP3    H124134   2.097   1.245  22.837  0.6268 -0.1141  0.8242
  881TIP3    H224135   1.953   1.215  22.872  0.5609 -0.0139  0.6384
  882TIP3   OH224136   2.200   0.215   8.114 -0.7965  0.1067  0.4655
  882TIP3    H124137   2.141   0.140   8.118 -1.0028  0.1749 -0.8288
  882TIP3    H224138   2.198   0.252   8.203 -2.5034 -0.0463  0.5312
  883TIP3   OH224139   1.801   1.822  14.549  0.1106 -0.3070  1.0874
  883TIP3    H124140   1.752   1.740  14.541 -0.7153  0.3283 -1.9652
  883TIP3    H224141   1.737   1.885  14.583 -0.9752  0.2107 -1.6478
  884TIP3   OH224142   2.506   0.258  53.532  0.6453  0.1791  0.0161
  884TIP3    H124143   2.529   0.245  53.440 -0.0671  3.3264 -0.6908
  884TIP3    H224144   2.568   0.324  53.563 -2.5339  3.3872  0.1016
  885TIP3   OH224145   0.905   3.270  53.549  0.5094 -0.3696  0.6525
  885TIP3    H124146   0.987   3.311  53.576  0.8192  1.2194 -2.3069
  885TIP3    H224147   0.926   3.176  53.544  2.2776  0.0341 -0.3372
  886TIP3   OH224148   0.346   1.131  57.373  0.3053  0.0784 -0.5402
  886TIP3    H124149   0.400   1.134  57.294  0.7142 -0.0690 -0.2696
  886TIP3    H224150   0.263   1.172  57.347  0.3932 -0.0699 -1.0755
  887TIP3   OH224151   1.931   0.436   1.039  0.7007 -0.3045 -0.0945
  887TIP3    H124152   1.983   0.464   0.964  1.6519 -0.2212  0.5853
  887TIP3    H224153   1.850   0.402   1.000  1.5511 -1.1092 -1.2118
  888TIP3   OH224154   0.072   2.651   0.520  0.0323  0.6336  0.4832
  888TIP3    H124155   0.063   2.584   0.589 -0.4422  1.0981  0.8800
  888TIP3    H224156   0.016   2.619   0.449  2.0932 -0.8984 -0.5576
  889TIP3   OH224157   2.029   0.754   1.918 -0.1648  0.2676  0.0177
  889TIP3    H124158   1.990   0.774   2.004  2.0638  1.3466  0.8608
  889TIP3    H224159   2.013   0.832   1.865 -0.7963 -0.0540 -0.2669
  890TIP3   OH224160   0.628   2.033  55.530 -0.2377 -0.7043 -0.5237
  890TIP3    H124161   0.706   1.998  55.487  0.0851 -1.1671  0.3987
  890TIP3    H224162   0.614   1.974  55.604 -0.4574  0.3558  0.3058
  891TIP3   OH224163   2.839   3.439  66.884  0.1535  0.2251 -0.2881
  891TIP3    H124164   2.891   3.381  66.827  0.2720 -0.7083  0.7232
  891TIP3    H224165   2.794   3.379  66.944  0.3939  1.1882  0.8937
  892TIP3   OH224166   0.320   0.216   1.185  0.2364  0.2106 -0.2488
  892TIP3    H124167   0.246   0.177   1.231  1.8243 -2.3335  0.3273
  892TIP3    H224168   0.280   0.265   1.113 -2.1512  2.0721  2.1789
  893TIP3   OH224169   1.866   0.568   1.268 -0.2625  0.0514 -0.5418
  893TIP3    H124170   1.843   0.509   1.197 -0.7800 -2.2129  1.3628
  893TIP3    H224171   1.961   0.564   1.273 -0.3128 -1.0808 -0.1359
  894TIP3   OH224172   3.433   0.711  49.879 -0.1208 -0.2519 -0.3565
  894TIP3    H124173   3.511   0.661  49.904 -0.9079 -1.2302  0.2156
  894TIP3    H224174   3.395   0.739  49.962 -1.1604 -1.0235 -0.5561
  895TIP3   OH224175   0.443   3.369  59.248  0.2807  0.1847 -0.2352
  895TIP3    H124176   0.506   3.432  59.283  0.1604  0.6544 -0.8342
  895TIP3    H224177   0.374   3.423  59.208 -0.2464 -0.3218 -0.0348
  896TIP3   OH224178   3.054   1.946  59.030 -0.5866 -0.4276 -0.2640
  896TIP3    H124179   3.119   1.999  58.984  1.2217 -3.1811 -1.1115
  896TIP3    H224180   3.077   1.955  59.122 -0.7967  0.7962 -0.3101
  897TIP3   OH224181   2.543   1.355  52.646 -0.7754  0.1593  0.0039
  897TIP3    H124182   2.627   1.340  52.602 -0.2592 -0.0180  1.0061
  897TIP3    H224183   2.485   1.389  52.577  0.1042  0.2479 -0.7172
  898TIP3   OH224184   0.570   1.322  54.014 -0.1762  0.3726 -0.2717
  898TIP3    H124185   0.627   1.311  54.090 -0.7519 -0.3013  0.0650
  898TIP3    H224186   0.524   1.405  54.029 -0.2467  0.2688  0.0819
  899TIP3   OH224187   1.844   3.415   3.716 -0.1378 -0.1192  0.1251
  899TIP3    H124188   1.760   3.418   3.670  0.2586  2.2458 -0.6290
  899TIP3    H224189   1.821   3.428   3.808 -0.6522 -0.2004  0.0130
  900TIP3   OH224190   1.385   1.729   9.800 -0.0236  0.4727 -0.3034
  900TIP3    H124191   1.480   1.732   9.786  0.4307 -0.6677  2.0190
  900TIP3    H224192   1.356   1.648   9.759  0.0084  0.7395 -0.8682
  901TIP3   OH224193   2.805   0.852  29.887  0.8450  0.0773 -0.5851
  901TIP3    H124194   2.840   0.894  29.966  2.3452 -0.2851 -1.0244
  901TIP3    H224195   2.777   0.765  29.916 -0.9943  0.8193  0.0400
  902TIP3   OH224196   0.230   1.967  15.013  0.0593 -0.9397 -0.0945
  902TIP3    H124197   0.245   1.875  14.991 -0.3135 -1.1169  0.3754
  902TIP3    H224198   0.146   1.988  14.973 -0.2669 -1.0528  0.5171
  903TIP3   OH224199   0.661   1.665  57.727  0.3514 -0.0218 -0.2091
  903TIP3    H124200   0.736   1.697  57.776 -0.2528 -0.3220  0.9470
  903TIP3    H224201   0.663   1.714  57.645  0.7720  1.2860  0.5506
  904TIP3   OH224202   2.079   0.139  25.746  0.4429  0.4142  0.0006
  904TIP3    H124203   2.065   0.227  25.712 -3.8533 -0.2976 -0.7186
  904TIP3    H224204   2.038   0.139  25.832 -1.5088 -1.2279 -0.8194
  905TIP3   OH224205   0.717   2.284   7.558  0.0726 -0.2054  0.4473
  905TIP3    H124206   0.656   2.270   7.486 -0.2079 -1.2421  0.8629
  905TIP3    H224207   0.778   2.350   7.526  0.1985 -0.9416 -0.8898
  906TIP3   OH224208   1.723   0.011  48.476  0.4449 -0.5664 -0.0459
  906TIP3    H124209   1.817  -0.006  48.478  0.4209 -0.6277  0.6763
  906TIP3    H224210   1.705   0.057  48.558  0.3366  2.0516 -1.4262
  907TIP3   OH224211   1.374   2.097  56.146 -0.2598 -0.0259 -0.3579
  907TIP3    H124212   1.421   2.017  56.169  0.9111  0.6897 -0.1888
  907TIP3    H224213   1.442   2.156  56.112 -1.0707  0.9566 -0.3193
  908TIP3   OH224214   3.331   0.500  15.376  0.1350  0.0133 -0.4558
  908TIP3    H124215   3.359   0.410  15.390  2.2199  0.8134  1.0852
  908TIP3    H224216   3.412   0.547  15.355 -1.0177  1.4123 -2.0435
  909TIP3   OH224217   0.968   3.305   7.787  0.2039  0.5767  0.0610
  909TIP3    H124218   0.995   3.395   7.804 -2.3487  1.4777 -0.2237
  909TIP3    H224219   1.016   3.280   7.708  2.1765  1.0651  1.0589
  910TIP3   OH224220   1.977   0.267  11.981  0.0156 -0.0255 -0.3138
  910TIP3    H124221   2.006   0.337  11.923  1.2575 -0.6672 -0.4942
  910TIP3    H224222   2.055   0.212  11.994 -0.9965 -1.5472 -0.4219
  911TIP3   OH224223   2.755   3.449   0.783 -0.0209  0.4689  0.4889
  911TIP3    H124224   2.728   3.527   0.733  0.4697 -0.0769 -0.6685
  911TIP3    H224225   2.784   3.387   0.716  1.6108  0.0755  1.5215
  912TIP3   OH224226   0.840   0.134  58.697  0.5124 -0.6458  0.8160
  912TIP3    H124227   0.848   0.191  58.621  0.2812 -1.1689  0.3899
  912TIP3    H224228   0.840   0.194  58.772  2.5291 -0.2442  0.5341
  913TIP3   OH224229   2.949   2.604  45.294  0.5166  0.0302  0.1377
  913TIP3    H124230   2.873   2.597  45.236  0.4526  0.9730  0.0908
  913TIP3    H224231   2.955   2.518  45.336 -1.0660  0.1828  0.7504
  914TIP3   OH224232   1.476   1.332  22.455 -0.2265 -0.0061 -0.2608
  914TIP3    H124233   1.565   1.367  22.465  0.3586 -1.6419  0.6432
  914TIP3    H224234   1.489   1.244  22.418 -1.2485 -1.3215  2.2706
  915TIP3   OH224235   0.007   0.003  13.830 -0.4270  0.0222  0.4030
  915TIP3    H124236  -0.076  -0.021  13.788 -1.1533  0.6061  1.4757
  915TIP3    H224237   0.062   0.033  13.758 -0.7796 -1.3181 -0.4648
  916TIP3   OH224238   1.327   2.885   5.863 -0.1601  0.2061  0.1983
  916TIP3    H124239   1.303   2.978   5.863  0.9790  0.5223 -0.1296
  916TIP3    H224240   1.323   2.859   5.771  0.5572  0.2343  0.1486
  917TIP3   OH224241   2.186   0.475  63.674  0.2774 -0.1156 -0.0513
  917TIP3    H124242   2.146   0.389  63.663 -0.4615  0.0316  1.2402
  917TIP3    H224243   2.220   0.473  63.764 -1.7887  1.7110  0.8658
  918TIP3   OH224244   2.124   0.295  62.853  0.0843  0.0795 -0.9693
  918TIP3    H124245   2.034   0.287  62.820 -0.0065  0.8852 -0.9232
  918TIP3    H224246   2.179   0.295  62.774 -0.0192  0.4086 -1.0431
  919TIP3   OH224247   3.249   0.820  21.748  0.3444 -0.6519  0.2578
  919TIP3    H124248   3.195   0.897  21.730 -0.3102 -1.1248  0.1846
  919TIP3    H224249   3.234   0.802  21.841  0.7743 -0.4786  0.3602
  920TIP3   OH224250   0.797   3.138  18.298  0.7738 -0.0705 -0.2122
  920TIP3    H124251   0.800   3.065  18.359 -0.1162  0.8109  0.9331
  920TIP3    H224252   0.867   3.121  18.236  0.6265 -1.8551  0.0668
  921TIP3   OH224253   1.362   2.274  44.415 -0.7240 -0.1964 -0.1442
  921TIP3    H124254   1.274   2.257  44.449 -0.9928 -0.2330 -0.8388
  921TIP3    H224255   1.360   2.240  44.326  0.2562 -0.9658  0.1110
  922TIP3   OH224256   2.692   0.564  66.757 -0.1676 -0.6637  0.1573
  922TIP3    H124257   2.702   0.587  66.850  1.4684 -1.2663  0.1697
  922TIP3    H224258   2.772   0.516  66.736 -0.6154 -0.7290 -1.5237
  923TIP3   OH224259   2.522   1.765  47.487 -0.5986 -0.1658  0.0097
  923TIP3    H124260   2.547   1.679  47.521 -0.3828 -0.4413 -0.8152
  923TIP3    H224261   2.493   1.747  47.397  1.7622  0.8989 -1.0618
  924TIP3   OH224262   3.195   1.878  19.311  0.1205  0.0918 -0.5822
  924TIP3    H124263   3.110   1.894  19.353  0.2102 -0.0185 -0.3568
  924TIP3    H224264   3.237   1.813  19.368  1.2279  1.6901  0.4871
  925TIP3   OH224265   2.321   1.792  11.353 -0.3141  0.0465  0.5216
  925TIP3    H124266   2.378   1.715  11.345 -0.4783 -0.4184  3.0812
  925TIP3    H224267   2.377   1.865  11.325  0.3996 -0.7672 -0.2825
  926TIP3   OH224268   2.371   0.946  60.613  0.1108 -0.3959 -0.4495
  926TIP3    H124269   2.433   0.880  60.582 -0.4172 -0.7328 -0.8067
  926TIP3    H224270   2.418   0.992  60.683  0.5411 -1.0597 -0.2864
  927TIP3   OH224271   2.588   0.390  63.570 -0.2221  0.0577 -0.2641
  927TIP3    H124272   2.613   0.326  63.503 -1.5829 -1.6562  0.7825
  927TIP3    H224273   2.546   0.338  63.638 -0.0671  1.9187  1.3337
  928TIP3   OH224274   2.151   2.944  54.994 -0.1703  0.6747  0.1290
  928TIP3    H124275   2.130   2.895  55.074 -2.2386 -0.8713 -1.2406
  928TIP3    H224276   2.191   2.879  54.937  0.7905  1.6347 -0.3258
  929TIP3   OH224277   0.884   0.625  54.027 -0.0687  0.3471  0.1812
  929TIP3    H124278   0.911   0.590  54.112 -0.1028 -1.7532 -0.6205
  929TIP3    H224279   0.936   0.577  53.963 -3.2597 -1.6402 -1.2332
  930TIP3   OH224280   1.510   1.326  54.592  0.9427 -0.1850  0.3638
  930TIP3    H124281   1.558   1.349  54.672 -0.5303  0.1506  1.1925
  930TIP3    H224282   1.470   1.408  54.564 -1.7159 -0.9799  1.5101
  931TIP3   OH224283   2.006   0.550   3.610 -0.2656  0.0302 -0.1679
  931TIP3    H124284   1.979   0.461   3.634 -0.7801  0.4335  0.8075
  931TIP3    H224285   1.940   0.579   3.547 -0.0667 -0.2902 -0.5298
  932TIP3   OH224286   0.308   0.442  44.840  0.0152  0.3269 -0.3072
  932TIP3    H124287   0.374   0.511  44.837  0.2183  0.1479  0.0831
  932TIP3    H224288   0.266   0.453  44.925 -0.6146  0.5840 -0.6445
  933TIP3   OH224289   2.544   0.246  43.614 -0.3893  0.1282 -0.0434
  933TIP3    H124290   2.480   0.317  43.615 -0.2706  0.3212 -1.8288
  933TIP3    H224291   2.629   0.289  43.608 -0.2816 -0.1448 -0.5615
  934TIP3   OH224292   1.403   1.545  16.033 -0.1583  0.0631 -0.2376
  934TIP3    H124293   1.466   1.496  15.980  1.4488  0.3723  1.2924
  934TIP3    H224294   1.381   1.485  16.104  0.6237  0.9463  0.7843
  935TIP3   OH224295   1.260   2.125  57.244 -0.3577  0.0965  0.4484
  935TIP3    H124296   1.170   2.111  57.272 -0.4736 -0.1108 -0.0293
  935TIP3    H224297   1.302   2.039  57.253 -0.4978 -0.0677 -0.3780
  936TIP3   OH224298   3.327   0.237   2.260  0.1503  0.1577  0.1779
  936TIP3    H124299   3.238   0.234   2.295 -0.2544 -1.1764 -0.8591
  936TIP3    H224300   3.345   0.147   2.233  0.5375  0.9534 -2.6126
  937TIP3   OH224301   1.308   2.232  15.571  0.5840  0.0152  0.1454
  937TIP3    H124302   1.307   2.171  15.497  1.9896 -0.5470  0.5686
  937TIP3    H224303   1.303   2.176  15.649  3.8818  0.2201  0.6119
  938TIP3   OH224304   0.250   0.103  57.918  0.4309 -0.2125 -0.6687
  938TIP3    H124305   0.247   0.128  58.010  0.9138 -3.0390  0.2166
  938TIP3    H224306   0.330   0.145  57.884  0.6953  0.1826  0.4082
  939TIP3   OH224307   1.918   1.700  21.650 -0.1594  0.6278  0.0363
  939TIP3    H124308   1.956   1.628  21.599  0.2736  1.6445 -1.1078
  939TIP3    H224309   1.823   1.687  21.642 -0.0907 -0.4502  0.7834
  940TIP3   OH224310   1.645   0.049  67.045  0.1797 -0.5116 -0.4318
  940TIP3    H124311   1.574  -0.006  67.079  0.7018 -1.4320 -0.7795
  940TIP3    H224312   1.725   0.006  67.075  0.6111 -0.1631 -1.0553
  941TIP3   OH224313   2.790   0.901  13.319  0.2894  0.2432  0.0471
  941TIP3    H124314   2.856   0.962  13.352  1.7296 -0.7020 -1.0158
  941TIP3    H224315   2.760   0.941  13.238  1.0006 -0.2838 -0.4839
  942TIP3   OH224316   2.244   1.321  54.090 -0.2999 -0.2279  0.1477
  942TIP3    H124317   2.172   1.358  54.140 -0.9538 -3.0187  1.4520
  942TIP3    H224318   2.317   1.381  54.106 -0.8338 -0.2638  3.4779
  943TIP3   OH224319   2.970   1.200  63.300 -0.5856  0.0278  0.0580
  943TIP3    H124320   2.969   1.280  63.351  1.0312  0.9029 -1.1939
  943TIP3    H224321   2.891   1.205  63.246 -1.0884  0.2074  0.7993
  944TIP3   OH224322   2.232   1.487  18.607  0.0238 -0.0950 -0.3705
  944TIP3    H124323   2.198   1.414  18.659 -0.8308  0.8801  0.4954
  944TIP3    H224324   2.237   1.452  18.518 -0.3986 -1.1984  0.0129
  945TIP3   OH224325   0.466   0.439  11.709  0.1523 -0.0471 -0.1434
  945TIP3    H124326   0.527   0.375  11.674  0.2068  0.8223 -1.7186
  945TIP3    H224327   0.514   0.522  11.705  0.4097  0.0380  2.6739
  946TIP3   OH224328   0.954   0.928  19.677 -0.1888 -0.0975  0.3818
  946TIP3    H124329   0.911   0.843  19.665 -2.1860  0.9264 -0.1419
  946TIP3    H224330   0.963   0.962  19.588 -1.0765  0.9943  0.6918
  947TIP3   OH224331   2.013   0.678  22.014  0.2790  0.1640 -0.3290
  947TIP3    H124332   1.999   0.773  22.008  0.6791  0.2514  0.0396
  947TIP3    H224333   2.073   0.668  22.088 -1.1331 -0.5069  0.7887
  948TIP3   OH224334   3.032   3.130   1.251 -0.2066  0.3979 -0.3115
  948TIP3    H124335   2.990   3.216   1.247 -1.5038 -0.2647 -2.1271
  948TIP3    H224336   2.981   3.075   1.192  3.3587 -0.4255 -2.9335
  949TIP3   OH224337   2.824   1.208  22.248  0.0840 -0.4477 -0.1626
  949TIP3    H124338   2.846   1.156  22.171 -1.9770  0.8361 -1.7006
  949TIP3    H224339   2.909   1.239  22.281  0.9985 -0.6629 -2.1635
  950TIP3   OH224340   1.576   2.134  15.829  0.2606 -0.0593 -0.3714
  950TIP3    H124341   1.657   2.101  15.791  1.1802  0.0797  1.3822
  950TIP3    H224342   1.591   2.228  15.838 -0.2449  0.0218 -0.3585
  951TIP3   OH224343   0.865   3.309  14.843  0.0974  0.3193  0.2340
  951TIP3    H124344   0.939   3.306  14.782  0.1577  1.7072  0.1995
  951TIP3    H224345   0.892   3.254  14.916  1.2519  0.9256  0.2872
  952TIP3   OH224346   0.931   1.608  17.089 -0.1479 -0.6281 -0.2000
  952TIP3    H124347   0.964   1.684  17.042 -1.2866 -0.7395 -1.2195
  952TIP3    H224348   1.009   1.558  17.111  0.5375  0.3222 -0.4018
  953TIP3   OH224349   2.240   2.833   1.453 -0.1808 -0.0639  0.2368
  953TIP3    H124350   2.263   2.741   1.470  0.0834  0.3334  2.2526
  953TIP3    H224351   2.316   2.869   1.408  0.9572 -0.1395  2.0184
  954TIP3   OH224352   2.036   2.931  61.025  0.5412 -0.0047 -0.0920
  954TIP3    H124353   2.126   2.934  61.059  0.5822  0.1228 -0.2117
  954TIP3    H224354   2.028   3.009  60.971  0.1687  0.2870  0.3788
  955TIP3   OH224355   0.122   0.322  50.821 -0.0171 -0.4223  0.4929
  955TIP3    H124356   0.130   0.291  50.911 -0.6355  0.8031  0.9951
  955TIP3    H224357   0.180   0.398  50.817  1.1907 -1.3527 -0.6067
  956TIP3   OH224358   0.045   0.327  65.376  0.2009  0.0918  0.4251
  956TIP3    H124359   0.072   0.236  65.362  0.2548  0.0546  0.7799
  956TIP3    H224360  -0.046   0.321  65.406 -0.1478  0.2074 -0.5767
  957TIP3   OH224361   2.626   1.975  66.059  0.1083  0.1671  0.0330
  957TIP3    H124362   2.556   1.911  66.071  0.4502  0.0589  1.7058
  957TIP3    H224363   2.647   1.971  65.965 -0.8641 -1.1048 -0.1574
  958TIP3   OH224364   3.436   0.978   6.515 -0.1699  0.4277 -0.0978
  958TIP3    H124365   3.387   0.925   6.453  1.1959 -0.1386 -0.7536
  958TIP3    H224366   3.473   0.915   6.577 -2.9364  1.1085  2.4487
  959TIP3   OH224367   0.270   1.920   9.400 -0.0366  0.4686 -0.3573
  959TIP3    H124368   0.207   1.944   9.332 -0.6360  1.5496  0.5434
  959TIP3    H224369   0.353   1.956   9.370 -0.5970  2.2888  0.1703
  960TIP3   OH224370   0.958   0.639  43.876 -0.1338  0.1267 -0.4779
  960TIP3    H124371   0.960   0.654  43.971  1.3553  0.3621 -0.5171
  960TIP3    H224372   0.902   0.562  43.865  1.0177 -0.9366  0.7588
  961TIP3   OH224373   0.117   3.065   6.029  0.3396  0.1903  0.2669
  961TIP3    H124374   0.109   3.133   5.962  1.4828  1.2250  1.1437
  961TIP3    H224375   0.031   3.062   6.070  0.1824  0.9095  0.0118
  962TIP3   OH224376   2.274   1.797  58.390 -0.2612 -0.4432 -0.0553
  962TIP3    H124377   2.204   1.845  58.347 -1.0958 -0.6989  0.9896
  962TIP3    H224378   2.234   1.760  58.468  1.4647  0.9004  1.5406
  963TIP3   OH224379   2.433   1.712  56.000 -0.2960  0.1893  0.2814
  963TIP3    H124380   2.460   1.678  56.085 -1.7068 -1.8139  0.0007
  963TIP3    H224381   2.504   1.771  55.974  1.2700 -0.9268  1.7841
  964TIP3   OH224382   0.504   1.976  65.469  0.0013 -0.3244 -0.9197
  964TIP3    H124383   0.595   2.000  65.485 -0.3517  0.1930  0.4936
  964TIP3    H224384   0.501   1.881  65.483  0.3483 -0.3699 -1.1360
  965TIP3   OH224385   1.630   1.416  60.945  0.5290  0.3472  0.1219
  965TIP3    H124386   1.652   1.346  61.007 -0.7693 -1.0030 -0.8639
  965TIP3    H224387   1.639   1.376  60.859 -1.5349  0.9563 -0.4368
  966TIP3   OH224388   0.554   2.693   8.965  0.2837 -0.0844 -0.1162
  966TIP3    H124389   0.630   2.734   9.007 -0.0131 -0.5512  0.8950
  966TIP3    H224390   0.534   2.618   9.019 -1.2848  0.3644 -0.0216
  967TIP3   OH224391   2.786   0.039  15.422  0.1097 -0.2090 -0.3775
  967TIP3    H124392   2.795  -0.034  15.361 -2.8204 -1.1489  0.1841
  967TIP3    H224393   2.861   0.030  15.481 -0.3955 -3.1064 -0.0325
  968TIP3   OH224394   2.461   3.317  54.473 -0.2587 -0.2117 -0.0009
  968TIP3    H124395   2.472   3.409  54.453 -1.1401 -0.2838 -0.8669
  968TIP3    H224396   2.393   3.315  54.541  0.2737 -0.1881  0.5409
  969TIP3   OH224397   3.099   2.222  62.087  0.6902  0.6894 -0.0196
  969TIP3    H124398   3.100   2.165  62.010  0.4023 -0.5553  0.8793
  969TIP3    H224399   3.192   2.234  62.109  0.8215  1.6963 -0.9859
  970TIP3   OH224400   1.898   1.261  56.426 -0.1593 -0.1742  0.0309
  970TIP3    H124401   1.877   1.183  56.375 -1.4635  0.7162 -0.8654
  970TIP3    H224402   1.882   1.235  56.517 -2.2630 -0.5011 -0.3673
  971TIP3   OH224403   0.730   0.817  36.185 -0.1004  0.3412  0.3682
  971TIP3    H124404   0.672   0.889  36.209 -0.3771  0.3798 -0.3767
  971TIP3    H224405   0.688   0.778  36.108  1.1704  0.7398 -0.5640
  972TIP3   OH224406   2.497   2.517  65.326  0.3116 -0.0720 -0.0031
  972TIP3    H124407   2.550   2.446  65.290  0.5983  0.7103 -1.1889
  972TIP3    H224408   2.409   2.480  65.335  0.2883 -0.3776 -1.3083
  973TIP3   OH224409   2.039   0.175  17.322 -0.5390 -0.2718  0.1579
  973TIP3    H124410   1.997   0.093  17.346 -1.1541 -0.1029 -0.3029
  973TIP3    H224411   2.094   0.153  17.246  0.5656 -0.5808  1.0136
  974TIP3   OH224412   3.334   0.573   0.020 -0.0556  0.2911  0.2389
  974TIP3    H124413   3.309   0.662  -0.005  1.6252  0.6057 -0.4968
  974TIP3    H224414   3.270   0.517  -0.024 -0.0529  1.0769 -0.8107
  975TIP3   OH224415   2.576   2.509  61.867  0.3569  0.1015 -0.7039
  975TIP3    H124416   2.563   2.604  61.876 -3.3078 -0.0377 -2.6343
  975TIP3    H224417   2.647   2.501  61.804  0.3732  1.5963 -0.9092
  976TIP3   OH224418   0.894   1.142  56.762 -0.0638  0.5470 -0.2396
  976TIP3    H124419   0.984   1.125  56.736  0.2950  0.8414  0.7476
  976TIP3    H224420   0.857   1.192  56.690  0.1091 -0.8253 -1.3088
  977TIP3   OH224421   0.923   1.894  60.541  0.0435  0.0083 -0.0013
  977TIP3    H124422   0.871   1.948  60.600 -0.0014 -1.0112  0.9346
  977TIP3    H224423   0.912   1.805  60.574  2.5164 -0.2389  0.3725
  978TIP3   OH224424   2.433   1.951  44.815  0.2924 -0.1019 -0.2417
  978TIP3    H124425   2.344   1.932  44.843  0.5715  0.5098  1.1527
  978TIP3    H224426   2.467   2.009  44.883  2.1365 -1.2319 -0.1412
  979TIP3   OH224427   3.310   0.562  17.308 -0.1924  0.3492 -0.1579
  979TIP3    H124428   3.329   0.604  17.392 -0.7805  1.0827 -0.3837
  979TIP3    H224429   3.382   0.499  17.296  0.7132  1.2811  0.1871
  980TIP3   OH224430   1.170   0.830  36.603  0.2551 -0.0469 -0.2033
  980TIP3    H124431   1.227   0.753  36.608  1.1319  0.5604 -0.5876
  980TIP3    H224432   1.225   0.902  36.634 -0.8166  0.2995  0.9653
  981TIP3   OH224433   0.439   0.923  56.002  0.1954  0.0642  0.7860
  981TIP3    H124434   0.412   0.933  56.093  1.4565  0.8614  1.0920
  981TIP3    H224435   0.464   0.830  55.995  1.1098  0.2313  1.5643
  982TIP3   OH224436   3.048   2.471  11.147  0.5398 -0.2139  0.8621
  982TIP3    H124437   3.062   2.445  11.056  2.3272  0.2450  0.9811
  982TIP3    H224438   2.954   2.491  11.151  0.8366  2.3802 -1.6015
  983TIP3   OH224439   1.339   2.685  19.832 -0.2992 -0.3669  0.3252
  983TIP3    H124440   1.321   2.606  19.884 -4.3600 -0.4478 -0.8333
  983TIP3    H224441   1.298   2.756  19.882  1.1023  0.6129  0.1236
  984TIP3   OH224442   2.817   1.429  65.445 -0.4983 -0.4870  0.2777
  984TIP3    H124443   2.750   1.429  65.512 -0.6539 -1.8073  0.1512
  984TIP3    H224444   2.801   1.509  65.395  1.1839  1.9392  3.2655
  985TIP3   OH224445   1.283   1.099  45.929 -0.2120  0.2845  0.2336
  985TIP3    H124446   1.363   1.059  45.963  1.0455 -0.0557 -2.8359
  985TIP3    H224447   1.225   1.025  45.912  0.9719 -0.1323 -2.5842
  986TIP3   OH224448   1.437   1.497   2.161 -0.1740 -0.0594 -0.2538
  986TIP3    H124449   1.531   1.492   2.181 -0.3834 -0.3672  0.7010
  986TIP3    H224450   1.423   1.587   2.132 -0.1948  1.0984  2.9777
  987TIP3   OH224451   2.381   1.277  27.585  0.1281  0.0794 -0.0517
  987TIP3    H124452   2.438   1.223  27.640  0.8497  0.4636 -0.4087
  987TIP3    H224453   2.396   1.244  27.496  1.3041  1.4518 -0.4069
  988TIP3   OH224454   2.459   3.188  19.308  0.7662  0.0428 -0.1358
  988TIP3    H124455   2.526   3.206  19.242 -0.4367 -0.1007 -1.4491
  988TIP3    H224456   2.468   3.094  19.327  1.2847  0.1397  0.1052
  989TIP3   OH224457   2.953   1.995  28.620  0.3765 -0.0126  0.8088
  989TIP3    H124458   3.020   2.038  28.566 -1.6608  1.3774 -0.7853
  989TIP3    H224459   2.930   2.061  28.686 -0.3697  0.1022  0.4565
  990TIP3   OH224460   1.758   0.967   5.868  0.1583 -0.5006 -0.0622
  990TIP3    H124461   1.735   1.001   5.954  2.5754  2.8056 -0.5254
  990TIP3    H224462   1.740   1.039   5.807  1.1153 -1.7313 -1.9120
  991TIP3   OH224463   2.546   1.162  54.564 -0.1286  0.5599 -0.4310
  991TIP3    H124464   2.613   1.150  54.496  1.1079  2.3650  0.3711
  991TIP3    H224465   2.592   1.144  54.646 -1.2967 -0.4986  0.0054
  992TIP3   OH224466   0.048   2.908   4.471 -0.1980  0.3856 -0.4644
  992TIP3    H124467  -0.031   2.855   4.459  0.9378 -1.4321 -0.2796
  992TIP3    H224468   0.045   2.934   4.563  0.8277 -2.1724  0.3729
  993TIP3   OH224469   0.186   2.056  14.289  0.1091 -0.0130 -0.1495
  993TIP3    H124470   0.274   2.024  14.308  0.2991  0.4039 -0.3019
  993TIP3    H224471   0.198   2.150  14.271 -0.5389  0.3242  1.0961
  994TIP3   OH224472   2.978   2.138  27.155 -0.0755 -0.7821  0.1626
  994TIP3    H124473   2.963   2.222  27.198  1.0320  0.2503 -1.3473
  994TIP3    H224474   3.019   2.083  27.222  2.2284  0.9837  0.3273
  995TIP3   OH224475   0.980   2.682  56.171  0.0128  0.1931 -0.7600
  995TIP3    H124476   0.886   2.665  56.167  0.2035 -0.7141 -2.2893
  995TIP3    H224477   0.988   2.777  56.163 -0.7273  0.1260 -2.6684
  996TIP3   OH224478   2.595   2.356  43.827 -0.0538  0.6042  0.4389
  996TIP3    H124479   2.589   2.297  43.903 -0.4349 -1.5217 -1.1498
  996TIP3    H224480   2.640   2.305  43.761  1.7859  3.0017 -0.3025
  997TIP3   OH224481   2.389   3.034   7.798 -0.1736 -0.2919 -0.0813
  997TIP3    H124482   2.470   3.042   7.747  0.2040 -1.8039  0.2224
  997TIP3    H224483   2.352   3.123   7.799  0.9947  0.2350 -1.0092
  998TIP3   OH224484   1.366   1.916  10.208 -0.0362 -0.3607 -0.3047
  998TIP3    H124485   1.437   1.851  10.214  0.5888  0.4068  0.9449
  998TIP3    H224486   1.325   1.898  10.123 -0.0661 -2.5732  0.1205
  999TIP3   OH224487   3.289   1.098  60.011 -0.0627  0.0289 -0.2135
  999TIP3    H124488   3.215   1.112  60.070  0.8161 -1.1386  1.2285
  999TIP3    H224489   3.257   1.127  59.925 -2.4831 -1.2634  0.1832
 1000TIP3   OH224490   1.964   0.822  46.237  0.0693  0.3097 -0.2770
 1000TIP3    H124491   2.033   0.791  46.179 -0.4111 -0.6555 -0.3620
 1000TIP3    H224492   2.009   0.872  46.304  0.9871 -1.2399  0.3099
 1001TIP3   OH224493   1.707   2.546  17.197  0.5411 -0.2788  0.0920
 1001TIP3    H124494   1.646   2.488  17.152  1.3400  0.0817 -1.5026
 1001TIP3    H224495   1.713   2.510  17.286 -0.4979 -1.4404 -0.2841
 1002TIP3   OH224496   2.837   1.776  26.184 -0.2833 -0.1046  0.1524
 1002TIP3    H124497   2.757   1.724  26.193 -1.1182  0.8557 -1.2761
 1002TIP3    H224498   2.859   1.769  26.091  0.9023  0.2289  0.3988
 1003TIP3   OH224499   0.244   0.636  60.524 -0.0216 -0.2127 -0.2581
 1003TIP3    H124500   0.190   0.653  60.447 -0.6907  0.3122  0.3070
 1003TIP3    H224501   0.308   0.707  60.525  0.6385 -0.7979 -0.8931
 1004TIP3   OH224502   3.362   0.203  52.829  0.1891 -0.3106 -0.1513
 1004TIP3    H124503   3.424   0.136  52.802  0.2050  0.1160 -1.2454
 1004TIP3    H224504   3.331   0.241  52.746  1.4868  2.1968  0.3926
 1005TIP3   OH224505   0.982   2.765   3.479  0.1597  0.1063  0.1552
 1005TIP3    H124506   0.942   2.763   3.392 -0.6606  0.5268  0.5159
 1005TIP3    H224507   0.950   2.687   3.522 -0.1451  0.3532  0.3823
 1006TIP3   OH224508   1.121   0.423  54.561 -0.1765  0.5212 -0.0573
 1006TIP3    H124509   1.031   0.401  54.538 -0.2879  0.8358  0.0733
 1006TIP3    H224510   1.174   0.390  54.488 -0.2314 -1.0780  0.5781
 1007TIP3   OH224511   3.159   2.106  52.717 -0.1925  0.2171 -0.1018
 1007TIP3    H124512   3.251   2.089  52.701 -0.3419 -2.7546  1.5958
 1007TIP3    H224513   3.120   2.114  52.630  1.2841 -0.7641 -0.8860
 1008TIP3   OH224514   2.919   2.535  45.964  0.0332 -0.3099  0.0180
 1008TIP3    H124515   2.975   2.606  45.931  2.5243 -0.9510  2.4409
 1008TIP3    H224516   2.937   2.461  45.907  0.3890 -0.0281 -0.2420
 1009TIP3   OH224517   1.378   2.498  57.124 -0.2878  0.4703 -0.1940
 1009TIP3    H124518   1.429   2.558  57.178  0.1031  0.2214 -0.2847
 1009TIP3    H224519   1.432   2.419  57.118  0.1056  0.8243 -1.7158
 1010TIP3   OH224520   0.435   3.156  20.932 -0.0122 -0.5689 -0.1987
 1010TIP3    H124521   0.508   3.191  20.881 -1.1507  2.8564  0.1963
 1010TIP3    H224522   0.475   3.112  21.007  1.6225 -0.6680 -1.1009
 1011TIP3   OH224523   2.392   1.066  61.537  0.4819 -0.4659  0.3627
 1011TIP3    H124524   2.368   1.154  61.566  0.9123  0.4662 -1.8321
 1011TIP3    H224525   2.313   1.013  61.549 -0.5867  0.8571 -0.5672
 1012TIP3   OH224526   0.291   2.137   7.764 -0.4420 -0.0737  0.0820
 1012TIP3    H124527   0.274   2.211   7.821 -0.4788 -0.4088  0.5110
 1012TIP3    H224528   0.214   2.081   7.772 -0.2349 -0.3660  0.0877
 1013TIP3   OH224529   2.356   0.939   8.627  0.3459  0.0167 -0.1403
 1013TIP3    H124530   2.320   0.971   8.710 -0.2268 -0.0827 -0.3459
 1013TIP3    H224531   2.300   0.866   8.603 -1.6622  2.0630 -2.2869
 1014TIP3   OH224532   0.231   1.821  54.557 -0.1885  0.2509  0.4376
 1014TIP3    H124533   0.294   1.884  54.591 -1.2511  0.9017  1.2958
 1014TIP3    H224534   0.194   1.863  54.479 -1.3961  1.0423  1.3986
 1015TIP3   OH224535   2.962   3.252  64.970 -0.7921  0.1428 -0.3759
 1015TIP3    H124536   2.892   3.312  64.945 -0.1831  0.9506 -0.1570
 1015TIP3    H224537   3.040   3.306  64.973 -0.6215 -0.1236  2.2471
 1016TIP3   OH224538   1.669   0.707  50.311 -0.0941  0.0225  0.2544
 1016TIP3    H124539   1.579   0.714  50.278  0.1821  0.7680 -0.3646
 1016TIP3    H224540   1.723   0.699  50.233  0.4889  0.9178  0.5449
 1017TIP3   OH224541   2.697   1.181  48.013 -0.1543  0.2031 -0.2466
 1017TIP3    H124542   2.620   1.142  47.973  0.2365  0.1792 -0.9988
 1017TIP3    H224543   2.756   1.107  48.028 -0.8389  0.0008  1.6871
 1018TIP3   OH224544   0.389   0.234  56.992 -0.3084 -0.2356 -0.0975
 1018TIP3    H124545   0.410   0.290  56.917 -2.0802  1.0296  0.2937
 1018TIP3    H224546   0.356   0.153  56.952 -0.5419  0.1435 -0.6877
 1019TIP3   OH224547   3.110   2.640  46.304  0.1827  0.2031  0.0108
 1019TIP3    H124548   3.095   2.734  46.314  1.9013  0.3710  1.4621
 1019TIP3    H224549   3.196   2.633  46.263  0.3405 -0.7351  0.4721
 1020TIP3   OH224550   0.199   0.556  16.664 -0.1293  0.5097 -0.1034
 1020TIP3    H124551   0.200   0.567  16.759  1.1603  0.0666 -0.0439
 1020TIP3    H224552   0.273   0.607  16.633  1.2552 -1.6144 -0.5506
 1021TIP3   OH224553   1.434   0.604  14.640  0.6936  0.1118 -0.0814
 1021TIP3    H124554   1.460   0.695  14.626 -1.5193  0.9029  0.4894
 1021TIP3    H224555   1.517   0.558  14.657  1.8744  1.9800 -0.4415
 1022TIP3   OH224556   1.981   2.597  46.926  0.2917 -0.5560 -0.1409
 1022TIP3    H124557   1.957   2.620  46.836  0.8595  0.0580 -0.1428
 1022TIP3    H224558   2.072   2.626  46.935 -0.1110  0.4185  0.9923
 1023TIP3   OH224559   2.043   3.338  13.663  0.0455 -0.3686 -0.3158
 1023TIP3    H124560   1.951   3.342  13.638 -0.3151  0.6442  1.0330
 1023TIP3    H224561   2.072   3.250  13.638 -1.3737 -0.8174 -0.4450
 1024TIP3   OH224562   2.803   2.718   0.218 -0.1900  0.1020 -0.5165
 1024TIP3    H124563   2.814   2.676   0.303 -3.5658  1.6088  0.8221
 1024TIP3    H224564   2.877   2.778   0.211 -0.2131  0.4605  1.7090
 1025TIP3   OH224565   2.604   0.594  10.284  0.3357  0.0150 -0.1611
 1025TIP3    H124566   2.663   0.639  10.223 -0.5658  1.9651  0.3311
 1025TIP3    H224567   2.520   0.638  10.273 -0.0128  0.0009  2.0128
 1026TIP3   OH224568   3.025   1.483  63.335  0.4897  0.0028 -0.3682
 1026TIP3    H124569   3.086   1.527  63.395  0.2090  0.8208 -0.6671
 1026TIP3    H224570   2.944   1.532  63.344 -0.0863 -0.9705 -0.1106
 1027TIP3   OH224571   0.141   0.635  66.627 -0.0683 -0.8965 -0.7332
 1027TIP3    H124572   0.145   0.616  66.721 -0.3599 -0.7133 -0.6842
 1027TIP3    H224573   0.054   0.673  66.613  0.4151  0.2070 -0.8575
 1028TIP3   OH224574   3.217   2.593  61.766 -0.6893  0.3723 -0.4104
 1028TIP3    H124575   3.235   2.500  61.752  0.5995  0.6464 -0.7917
 1028TIP3    H224576   3.212   2.602  61.862 -0.6221 -0.0620 -0.3659
 1029TIP3   OH224577   3.201   2.661   2.887 -0.2541  0.6035  0.2489
 1029TIP3    H124578   3.208   2.622   2.800 -1.9298  2.4169 -0.7720
 1029TIP3    H224579   3.243   2.747   2.878 -1.4130  1.2629  0.8909
 1030TIP3   OH224580   0.425   1.173   6.419 -0.5471 -0.3567 -0.3305
 1030TIP3    H124581   0.494   1.211   6.364  0.0558  0.3233  0.8574
 1030TIP3    H224582   0.378   1.113   6.361  0.5472 -0.2371 -1.3706
 1031TIP3   OH224583   2.492   0.299  57.285 -0.1193  0.9585 -0.9935
 1031TIP3    H124584   2.461   0.383  57.250  0.0420  0.8264 -1.4567
 1031TIP3    H224585   2.545   0.324  57.361 -0.6101  1.2352 -0.7382
 1032TIP3   OH224586   0.652   1.699  43.939  0.2500  0.7081 -0.5080
 1032TIP3    H124587   0.583   1.765  43.932 -0.7193 -0.3713 -1.3588
 1032TIP3    H224588   0.607   1.615  43.932  1.3941 -0.1056  1.0607
 1033TIP3   OH224589   1.189   3.176  17.245 -0.1537 -0.1531  0.1746
 1033TIP3    H124590   1.265   3.137  17.202  0.7244  0.5221  1.0830
 1033TIP3    H224591   1.217   3.264  17.268 -1.0309 -0.0876  1.0327
 1034TIP3   OH224592   0.418   2.338   3.727 -0.4426  0.9255 -0.3838
 1034TIP3    H124593   0.397   2.394   3.652  1.0092  1.2031 -0.6095
 1034TIP3    H224594   0.476   2.392   3.781 -2.2817  1.1422  1.5161
 1035TIP3   OH224595   3.324   1.703  16.199  0.0857  0.1364  0.2617
 1035TIP3    H124596   3.402   1.651  16.219  1.9310  1.9499 -1.7882
 1035TIP3    H224597   3.281   1.655  16.128 -0.1151 -0.3336  0.6963
 1036TIP3   OH224598   2.886   1.491  64.985 -0.0986 -0.6826  0.0485
 1036TIP3    H124599   2.907   1.438  64.908  2.2030 -0.3695  0.3736
 1036TIP3    H224600   2.802   1.457  65.015 -2.4748  0.8920 -3.9960
 1037TIP3   OH224601   2.911   1.916  61.045 -0.0905  0.3363  0.1220
 1037TIP3    H124602   2.905   1.938  60.952  0.0040 -0.0042  0.0337
 1037TIP3    H224603   2.986   1.857  61.051  1.9018  2.7872  0.8786
 1038TIP3   OH224604   0.611   3.122   4.629  0.2948  0.0167 -0.2404
 1038TIP3    H124605   0.678   3.128   4.697 -0.7539  0.5579  0.7812
 1038TIP3    H224606   0.545   3.063   4.666 -0.1021 -0.0015 -0.9614
 1039TIP3   OH224607   1.850   3.426   2.500  0.3489 -0.1615  0.1097
 1039TIP3    H124608   1.832   3.374   2.579  0.8710 -0.5356 -0.0137
 1039TIP3    H224609   1.907   3.497   2.530 -0.2724  0.2877  0.2562
 1040TIP3   OH224610   0.929   1.978  66.194 -0.0999  0.3307 -0.3034
 1040TIP3    H124611   0.905   2.037  66.122  0.7967 -0.4567 -1.2848
 1040TIP3    H224612   1.025   1.972  66.189 -0.1419 -0.8881  0.0084
 1041TIP3   OH224613   2.354   0.585  44.675  0.6100  0.2108 -0.3579
 1041TIP3    H124614   2.271   0.566  44.631  1.2066 -0.3214 -1.2647
 1041TIP3    H224615   2.354   0.528  44.752 -0.2216  0.8009  0.0930
 1042TIP3   OH224616   1.592   2.476  11.822 -0.2432  0.4245  0.4608
 1042TIP3    H124617   1.526   2.530  11.865 -0.2137 -0.4565  1.6918
 1042TIP3    H224618   1.667   2.479  11.881 -1.0626 -2.8364  1.8725
 1043TIP3   OH224619   2.879   0.841   5.990 -0.7924 -0.3282  0.3078
 1043TIP3    H124620   2.905   0.895   5.916 -0.7029  2.2311  2.0618
 1043TIP3    H224621   2.795   0.803   5.964  0.4246 -1.6266 -2.0240
 1044TIP3   OH224622   1.537   0.256  26.346 -0.2515  0.3605  0.0503
 1044TIP3    H124623   1.627   0.228  26.329 -0.4706  0.1037 -0.7457
 1044TIP3    H224624   1.503   0.282  26.260 -0.8212  0.8103  0.4001
 1045TIP3   OH224625   0.679   2.780  55.373 -0.4719  0.4509 -0.5788
 1045TIP3    H124626   0.713   2.803  55.287  0.0473  2.3782  0.0812
 1045TIP3    H224627   0.682   2.685  55.376  0.3589  0.3889 -2.3414
 1046TIP3   OH224628   1.216   2.974  47.449 -0.1779 -0.5421  0.5553
 1046TIP3    H124629   1.295   2.940  47.408 -0.3894  1.4638 -1.7602
 1046TIP3    H224630   1.145   2.942  47.393 -0.9316 -1.3091  1.9055
 1047TIP3   OH224631   2.031   1.192  16.134 -0.5322 -0.3002 -0.0816
 1047TIP3    H124632   2.063   1.124  16.076 -0.4590 -0.8893  0.6325
 1047TIP3    H224633   2.080   1.270  16.110  0.4898 -0.8709  0.1107
 1048TIP3   OH224634   0.796   3.287  66.301 -0.4551  0.8019 -0.0831
 1048TIP3    H124635   0.889   3.263  66.303 -0.2893  1.4255 -0.0478
 1048TIP3    H224636   0.765   3.253  66.217 -0.5395 -0.6148  0.4988
 1049TIP3   OH224637   0.739   0.525   8.381 -0.3153 -0.0485  0.0143
 1049TIP3    H124638   0.678   0.452   8.367 -1.3841  0.5260  1.3541
 1049TIP3    H224639   0.756   0.559   8.294 -2.0357 -0.1683 -0.4128
 1050TIP3   OH224640   2.149   0.808  64.379 -0.0763  0.2256 -0.1011
 1050TIP3    H124641   2.154   0.883  64.319 -1.3830  0.6650  0.2914
 1050TIP3    H224642   2.141   0.732  64.322 -1.5896  0.6636 -0.5161
 1051TIP3   OH224643   0.469   2.646  15.711  0.0996  0.5205 -0.0766
 1051TIP3    H124644   0.513   2.619  15.630 -1.2870  1.0979 -1.0716
 1051TIP3    H224645   0.376   2.634  15.692 -0.2075 -0.6732  1.9686
 1052TIP3   OH224646   0.708   2.457  22.156 -0.1588  0.2858  0.1876
 1052TIP3    H124647   0.693   2.372  22.197  1.3429 -0.3609 -0.5009
 1052TIP3    H224648   0.794   2.485  22.189 -0.5931  1.5032  0.3335
 1053TIP3   OH224649   2.398   2.519   6.549  0.4548 -0.8061  0.1531
 1053TIP3    H124650   2.329   2.552   6.607 -0.2279  0.2502 -1.2042
 1053TIP3    H224651   2.375   2.427   6.535 -0.5024 -0.5551 -0.0024
 1054TIP3   OH224652   2.368   2.494  53.690  0.0630 -0.3904  0.1528
 1054TIP3    H124653   2.386   2.400  53.694  0.6973 -0.3189 -0.7272
 1054TIP3    H224654   2.393   2.527  53.776 -1.4238 -1.2182  0.9412
 1055TIP3   OH224655   0.453   0.096  55.836  0.1546 -0.0906 -0.3036
 1055TIP3    H124656   0.375   0.091  55.891  0.5842  2.3296  0.6698
 1055TIP3    H224657   0.421   0.128  55.752 -0.1509 -1.2418 -0.6494
 1056TIP3   OH224658   2.822   1.246  53.762  0.2913 -0.1208 -0.6860
 1056TIP3    H124659   2.763   1.171  53.773 -0.0170  0.3798  1.7533
 1056TIP3    H224660   2.861   1.233  53.676  0.4203 -3.2053 -0.2889
 1057TIP3   OH224661   2.159   0.492   9.938 -0.3086  0.2039  0.3957
 1057TIP3    H124662   2.071   0.454   9.940  0.3148 -1.5388 -1.6041
 1057TIP3    H224663   2.182   0.496   9.845  0.9470  2.6514  0.7065
 1058TIP3   OH224664   0.627   0.262   0.104  0.1340 -0.4621 -0.5006
 1058TIP3    H124665   0.707   0.315   0.102 -0.2953  0.3060  1.0402
 1058TIP3    H224666   0.634   0.211   0.185 -0.7837 -0.6415 -0.5248
 1059TIP3   OH224667   0.008   0.793  30.319 -0.5289  0.6127  0.1578
 1059TIP3    H124668  -0.004   0.841  30.237  1.3319 -0.5047 -0.8485
 1059TIP3    H224669   0.092   0.825  30.353 -0.6926  0.1757  1.0051
 1060TIP3   OH224670   0.952   2.526  57.350 -0.0851 -0.2674 -0.3629
 1060TIP3    H124671   1.026   2.581  57.325  0.0114  0.3177  1.1187
 1060TIP3    H224672   0.955   2.452  57.289  1.0472  0.3014 -1.0239
 1061TIP3   OH224673   1.137   2.308   1.243 -0.6542  0.2011  0.1769
 1061TIP3    H124674   1.177   2.243   1.300  0.6209  0.5428 -0.2799
 1061TIP3    H224675   1.049   2.275   1.226  0.2182 -1.8553 -0.7215
 1062TIP3   OH224676   2.037   2.373  45.486 -0.5623  0.0622  0.2809
 1062TIP3    H124677   1.964   2.315  45.506 -0.9431  0.6444  0.6061
 1062TIP3    H224678   2.034   2.383  45.390  0.4594 -1.6661  0.0179
 1063TIP3   OH224679   3.103   0.385  66.339 -0.1288  0.0014 -0.0634
 1063TIP3    H124680   3.074   0.309  66.389  0.1511 -1.4563 -2.0010
 1063TIP3    H224681   3.034   0.450  66.352 -0.9161 -0.9711  0.7686
 1064TIP3   OH224682   0.292   3.152  35.265  0.1110  0.1644 -0.8188
 1064TIP3    H124683   0.310   3.061  35.240  0.3598  0.2085 -0.8022
 1064TIP3    H224684   0.343   3.165  35.345  0.4794  0.4699 -1.0969
 1065TIP3   OH224685   3.270   2.438  19.745  0.2271 -0.8472 -0.0738
 1065TIP3    H124686   3.325   2.366  19.716  0.0270 -0.7451 -0.7163
 1065TIP3    H224687   3.197   2.440  19.683  0.2103 -0.1225 -0.0449
 1066TIP3   OH224688   3.236   2.162  57.689 -0.4267  0.1212  0.0122
 1066TIP3    H124689   3.214   2.081  57.643 -0.2101 -0.1115  0.3138
 1066TIP3    H224690   3.189   2.230  57.641 -0.1075 -0.1025 -0.6275
 1067TIP3   OH224691   3.148   2.621   8.330  0.4443  0.2585  0.3416
 1067TIP3    H124692   3.236   2.592   8.355  1.9120  1.1425 -3.2128
 1067TIP3    H224693   3.151   2.716   8.341 -0.7688  0.1474  1.9450
 1068TIP3   OH224694   1.004   0.300  14.920  0.3890  0.5693 -0.3804
 1068TIP3    H124695   1.018   0.324  15.012 -0.2864  1.4734 -0.4959
 1068TIP3    H224696   0.997   0.384  14.875 -1.9443  0.1960 -0.8259
 1069TIP3   OH224697   0.080   3.121  50.317 -0.2252  0.3848 -0.3834
 1069TIP3    H124698   0.098   3.040  50.271  1.7653  0.8715 -0.5446
 1069TIP3    H224699   0.098   3.190  50.253 -2.0360  0.9806 -0.3039
 1070TIP3   OH224700   0.264   3.256  62.476  0.0205 -0.4160 -0.2387
 1070TIP3    H124701   0.332   3.189  62.475  0.0621 -0.4163  1.0117
 1070TIP3    H224702   0.194   3.220  62.530  1.1207  1.5073  2.6957
 1071TIP3   OH224703   3.091   3.306  57.662  0.4705 -0.1273  0.0494
 1071TIP3    H124704   3.009   3.257  57.658  0.2129  0.3704 -2.1590
 1071TIP3    H224705   3.064   3.396  57.683  0.4057  0.0883 -0.9259
 1072TIP3   OH224706   0.028   0.352  10.526 -0.2725  0.0629 -0.1967
 1072TIP3    H124707   0.034   0.305  10.442  0.9539  1.0422 -0.6964
 1072TIP3    H224708   0.079   0.432  10.512  0.0339  0.2066  1.5192
 1073TIP3   OH224709   2.708   1.013  55.558 -0.0312 -0.4936 -0.0398
 1073TIP3    H124710   2.778   1.076  55.544  0.5432 -1.2228 -0.4829
 1073TIP3    H224711   2.737   0.933  55.514 -0.6824 -1.1223  0.6292
 1074TIP3   OH224712   2.630   2.952  66.540 -0.3176  0.7033 -0.2832
 1074TIP3    H124713   2.593   3.009  66.472  0.2164  0.7454 -0.5387
 1074TIP3    H224714   2.703   2.908  66.497 -0.6441 -0.0843 -0.0444
 1075TIP3   OH224715   3.056   0.738  30.354 -0.1815  0.3722  0.1954
 1075TIP3    H124716   3.033   0.648  30.379 -1.3639  0.3089 -0.9784
 1075TIP3    H224717   2.972   0.779  30.334  0.4834  1.2044 -0.9976
 1076TIP3   OH224718   2.724   0.093  63.892 -0.1914  0.5195  0.4746
 1076TIP3    H124719   2.685   0.014  63.856 -0.4599  1.2258 -0.8580
 1076TIP3    H224720   2.678   0.108  63.975 -1.7838  0.5545 -0.3783
 1077TIP3   OH224721   3.282   2.570  49.555  0.2767  0.2898  0.4432
 1077TIP3    H124722   3.330   2.618  49.622 -2.2406  2.2989  0.9328
 1077TIP3    H224723   3.196   2.553  49.593 -0.3246 -0.8943 -1.2981
 1078TIP3   OH224724   0.858   1.615   0.252 -0.0765 -0.3930 -0.4636
 1078TIP3    H124725   0.920   1.594   0.182  0.1563 -0.9012 -0.1174
 1078TIP3    H224726   0.909   1.604   0.332 -0.8189 -1.6627 -0.1281
 1079TIP3   OH224727   1.598   0.924   9.095 -0.0852  0.6657 -0.3522
 1079TIP3    H124728   1.543   0.930   9.017 -0.0340 -2.3250 -0.7173
 1079TIP3    H224729   1.685   0.902   9.062 -0.0297 -0.4896  0.5018
 1080TIP3   OH224730   0.219   1.792   6.639 -0.3345 -0.2000  0.0787
 1080TIP3    H124731   0.239   1.884   6.625 -0.9379 -0.0274  0.3435
 1080TIP3    H224732   0.228   1.752   6.552 -3.1531  0.7017 -0.7331
 1081TIP3   OH224733   1.040   1.693   6.186  0.2497 -0.3001 -0.2816
 1081TIP3    H124734   1.115   1.656   6.140  0.5627 -1.4696  1.0916
 1081TIP3    H224735   0.999   1.752   6.123  1.0643 -1.2988 -1.7906
 1082TIP3   OH224736   0.812   2.056   1.658 -0.2550  0.5842  0.1659
 1082TIP3    H124737   0.812   2.029   1.750 -0.4801  0.7584  0.2176
 1082TIP3    H224738   0.773   2.143   1.659 -0.1178  0.6480 -0.0780
 1083TIP3   OH224739   2.004   0.496   8.239 -0.3028 -0.1124  0.4112
 1083TIP3    H124740   1.956   0.425   8.197 -0.6939 -0.0326  0.7152
 1083TIP3    H224741   2.010   0.470   8.331  0.1461 -0.0724  0.3939
 1084TIP3   OH224742   2.737   3.226  12.591 -0.4140 -0.0450 -0.1254
 1084TIP3    H124743   2.807   3.233  12.656 -1.0929 -1.3313  0.7968
 1084TIP3    H224744   2.719   3.316  12.565  2.6862  0.2347 -1.6318
 1085TIP3   OH224745   2.724   1.776   1.868  0.0945  0.1648 -0.6734
 1085TIP3    H124746   2.662   1.848   1.859 -2.7769 -1.6429  2.3127
 1085TIP3    H224747   2.786   1.805   1.935 -0.4281  0.2499 -0.2232
 1086TIP3   OH224748   3.422   2.103  52.952 -0.1862 -0.1684  0.0423
 1086TIP3    H124749   3.465   2.053  52.883 -0.3204  0.7627 -0.7288
 1086TIP3    H224750   3.379   2.036  53.006  0.9994 -0.9987 -0.0061
 1087TIP3   OH224751   2.331   1.577  50.296  0.4054 -0.0583  0.4973
 1087TIP3    H124752   2.310   1.506  50.356  0.4080  0.5781  1.2641
 1087TIP3    H224753   2.396   1.630  50.343  4.1193 -2.1077 -1.8568
 1088TIP3   OH224754   3.239   0.420  19.930 -0.5474 -0.3463 -0.0531
 1088TIP3    H124755   3.146   0.439  19.946 -0.6458  0.0410 -1.0624
 1088TIP3    H224756   3.282   0.440  20.014 -1.3671 -0.5007  0.4149
 1089TIP3   OH224757   2.102   1.620  51.133 -0.3322  0.5975  0.0693
 1089TIP3    H124758   2.110   1.531  51.099  1.7256  0.9385 -0.4457
 1089TIP3    H224759   2.098   1.675  51.054 -2.1494  0.9590  0.3743
 1090TIP3   OH224760   2.590   1.134   3.833 -0.0091 -0.0611  0.0525
 1090TIP3    H124761   2.611   1.086   3.753  0.2310 -1.0656  0.7155
 1090TIP3    H224762   2.607   1.073   3.904 -0.1967  0.8293  0.8883
 1091TIP3   OH224763   2.624   1.710  10.409 -0.4694  0.0403  0.2235
 1091TIP3    H124764   2.706   1.711  10.459 -0.2282  0.9088 -0.1710
 1091TIP3    H224765   2.650   1.737  10.321 -0.7160 -2.4130 -0.6767
 1092TIP3   OH224766   3.270   2.849  60.024 -0.7682  0.5310 -0.9075
 1092TIP3    H124767   3.317   2.768  60.004  2.1748  1.7595  0.4253
 1092TIP3    H224768   3.204   2.824  60.088  0.2211 -0.7927 -0.3714
 1093TIP3   OH224769   2.989   3.238  20.725 -0.2485  0.6317 -0.1264
 1093TIP3    H124770   3.063   3.298  20.731 -0.7951  1.3394 -0.3302
 1093TIP3    H224771   3.028   3.151  20.732  0.5020  1.0167  0.6954
 1094TIP3   OH224772   2.939   2.444  50.359  0.1564  0.1320 -0.1751
 1094TIP3    H124773   3.031   2.437  50.331  0.3282  0.8593  0.1724
 1094TIP3    H224774   2.923   2.539  50.364 -0.6367  0.0115 -0.2994
 1095TIP3   OH224775   0.287   0.181  12.783  0.0753 -0.7636 -0.0749
 1095TIP3    H124776   0.340   0.229  12.847  0.7512 -0.6706 -0.6925
 1095TIP3    H224777   0.256   0.247  12.721 -0.5220 -0.8627  0.1082
 1096TIP3   OH224778   1.059   2.641  49.130 -0.4004  0.0843 -0.2898
 1096TIP3    H124779   1.124   2.708  49.105  0.3504 -1.0435 -1.4624
 1096TIP3    H224780   1.107   2.558  49.125 -1.2672 -0.5521  1.3212
 1097TIP3   OH224781   1.429   1.759  55.436 -0.5216 -0.8928  0.2774
 1097TIP3    H124782   1.372   1.709  55.379 -0.4575 -0.6697  0.0167
 1097TIP3    H224783   1.510   1.709  55.439  0.6439  0.6131 -2.3691
 1098TIP3   OH224784   0.245   2.000  53.958 -0.1968 -0.3669  0.0679
 1098TIP3    H124785   0.282   2.075  54.005  0.6851 -0.9527  0.3410
 1098TIP3    H224786   0.233   1.934  54.026  0.8336 -1.1275 -0.4713
 1099TIP3   OH224787   2.757   1.420  59.860 -0.0760 -0.7835 -0.4649
 1099TIP3    H124788   2.809   1.446  59.936 -0.6237 -1.8922  0.3173
 1099TIP3    H224789   2.807   1.349  59.819 -1.2472 -2.3972  0.7325
 1100TIP3   OH224790   3.278   3.166  62.291  0.2483  1.2035 -0.3911
 1100TIP3    H124791   3.330   3.219  62.352  0.8960  3.4079 -2.6589
 1100TIP3    H224792   3.299   3.075  62.314  3.0052  1.9703  0.5715
 1101TIP3   OH224793   1.584   1.560  51.964 -0.5357  0.1847  0.5251
 1101TIP3    H124794   1.556   1.616  52.037 -1.2822  0.6053 -0.0767
 1101TIP3    H224795   1.654   1.610  51.922  0.1780 -0.2356  1.1739
 1102TIP3   OH224796   2.281   2.564   3.435  0.7800 -0.3601  0.1116
 1102TIP3    H124797   2.365   2.544   3.394  0.5983 -0.1678 -0.3604
 1102TIP3    H224798   2.231   2.610   3.367  0.4417 -0.1170  0.5194
 1103TIP3   OH224799   2.482   1.398  48.671  0.0252 -0.8497 -0.3340
 1103TIP3    H124800   2.467   1.327  48.608 -0.3479  0.9786 -2.4180
 1103TIP3    H224801   2.395   1.418  48.705  0.3136 -2.3394  1.4537
 1104TIP3   OH224802   0.674   0.890  61.418  0.3872  0.1534 -0.0658
 1104TIP3    H124803   0.590   0.854  61.391  0.8417 -0.1872 -1.0973
 1104TIP3    H224804   0.658   0.928  61.505 -0.6793 -0.4023 -0.0057
 1105TIP3   OH224805   0.848   1.784  64.935  0.5733 -0.8309 -0.1858
 1105TIP3    H124806   0.787   1.735  64.880 -0.7022  0.3484  0.1425
 1105TIP3    H224807   0.863   1.726  65.010  1.3777 -1.9315 -1.1561
 1106TIP3   OH224808   0.482   1.594  16.459  0.0029  0.3064 -0.5522
 1106TIP3    H124809   0.499   1.684  16.488  1.0081  0.3985 -1.3710
 1106TIP3    H224810   0.417   1.562  16.521 -0.5955  1.6887 -0.4175
 1107TIP3   OH224811   1.436   1.173  20.794  0.8605  0.0624 -0.0048
 1107TIP3    H124812   1.352   1.141  20.827 -0.1673  3.5955  1.3339
 1107TIP3    H224813   1.498   1.158  20.866  0.4772  0.6435  0.4607
 1108TIP3   OH224814   0.076   0.283  15.479 -0.1529 -0.0284  0.1143
 1108TIP3    H124815   0.093   0.301  15.572  1.6784  0.3473 -0.2491
 1108TIP3    H224816   0.144   0.331  15.433 -0.4956 -0.9310 -1.3857
 1109TIP3   OH224817   3.221   2.297   9.431 -0.8427  0.3412  0.2324
 1109TIP3    H124818   3.163   2.301   9.507 -0.5852 -1.3925  0.5615
 1109TIP3    H224819   3.243   2.204   9.422  1.1797  0.8295 -0.4049
 1110TIP3   OH224820   0.477   2.163   4.951 -0.3571  0.0525 -0.2285
 1110TIP3    H124821   0.383   2.177   4.960 -0.7509 -1.9936 -0.6068
 1110TIP3    H224822   0.499   2.197   4.865 -0.4074  1.9801  0.4839
 1111TIP3   OH224823   2.370   0.376  28.690  0.0062  0.4486  0.2707
 1111TIP3    H124824   2.390   0.357  28.599  0.5656 -1.1863  0.7098
 1111TIP3    H224825   2.343   0.292  28.727 -3.0703  1.5783  0.9221
 1112TIP3   OH224826   0.627   0.286  54.804  0.2279 -0.1391 -0.3474
 1112TIP3    H124827   0.610   0.345  54.731 -1.1471 -0.1246 -0.0474
 1112TIP3    H224828   0.657   0.343  54.875  3.1014 -0.3142 -1.2926
 1113TIP3   OH224829   1.263   3.267   6.159 -0.2855 -1.1497  0.0105
 1113TIP3    H124830   1.320   3.329   6.113 -0.3192 -0.7403  0.5040
 1113TIP3    H224831   1.187   3.257   6.100 -1.0124  0.5018  0.5898
 1114TIP3   OH224832   1.932   0.176  15.002  0.1187 -0.3916  0.0041
 1114TIP3    H124833   1.945   0.086  14.971 -0.3930 -0.4139 -0.1720
 1114TIP3    H224834   1.951   0.230  14.926  0.4004 -0.3524  0.1025
 1115TIP3   OH224835   0.343   0.151  44.086  0.8701  0.2756  1.1016
 1115TIP3    H124836   0.354   0.067  44.042  0.1455  0.3021  0.8450
 1115TIP3    H224837   0.260   0.185  44.051  0.8756  0.8356  1.6190
 1116TIP3   OH224838   2.107   0.942  22.859 -0.3401 -0.4488  0.9731
 1116TIP3    H124839   2.023   0.988  22.845 -0.8763 -1.7949 -0.5303
 1116TIP3    H224840   2.091   0.853  22.828  2.1588 -0.2803 -1.1395
 1117TIP3   OH224841   0.255   2.798  63.525  0.0794 -0.3172 -0.0587
 1117TIP3    H124842   0.276   2.876  63.576 -1.7946  0.1308  0.0998
 1117TIP3    H224843   0.274   2.823  63.435 -0.7792  0.4569 -0.0425
 1118TIP3   OH224844   0.075   1.445  48.177 -0.0887 -0.2875  0.4647
 1118TIP3    H124845  -0.017   1.463  48.158 -0.4344 -4.5946 -3.9704
 1118TIP3    H224846   0.074   1.396  48.260 -1.8066 -0.4531  0.3662
 1119TIP3   OH224847   1.616   3.324  16.245  0.4002 -0.2766 -1.1994
 1119TIP3    H124848   1.629   3.279  16.329  0.3874  0.6580 -0.6916
 1119TIP3    H224849   1.601   3.253  16.183  1.2976 -1.0299 -0.5768
 1120TIP3   OH224850   3.015   0.398  20.750 -0.1414  0.2301  0.2714
 1120TIP3    H124851   2.930   0.372  20.785 -0.2297  0.3464  0.1479
 1120TIP3    H224852   2.997   0.418  20.658  0.3769 -1.6062 -0.2840
 1121TIP3   OH224853   1.977   0.425  21.082 -0.0985  0.1354  0.1999
 1121TIP3    H124854   1.987   0.465  21.168 -1.8328 -1.3039  1.1636
 1121TIP3    H224855   2.064   0.431  21.042  0.4938  1.7711  1.6098
 1122TIP3   OH224856   0.851   2.822  51.938 -0.3207 -0.2600 -0.3999
 1122TIP3    H124857   0.909   2.889  51.973 -1.5622  0.9739 -0.6146
 1122TIP3    H224858   0.773   2.870  51.910 -0.4480 -1.5169 -2.4248
 1123TIP3   OH224859   2.886   2.419  57.438 -0.3770  0.2955  0.1494
 1123TIP3    H124860   2.861   2.326  57.431 -1.2505  0.4574  0.8589
 1123TIP3    H224861   2.842   2.461  57.364  0.8678 -0.0055 -0.7905
 1124TIP3   OH224862   2.800   0.673  29.473  0.3621  0.6690 -0.0134
 1124TIP3    H124863   2.862   0.600  29.477  1.6627  1.7876  1.5945
 1124TIP3    H224864   2.781   0.683  29.380  1.6657 -0.4927 -0.4373
 1125TIP3   OH224865   1.265   0.576  51.167  0.1487  0.0861 -0.1084
 1125TIP3    H124866   1.325   0.606  51.099 -0.8714  1.9382 -0.2709
 1125TIP3    H224867   1.239   0.655  51.213 -0.2941 -0.9612  1.5473
 1126TIP3   OH224868   2.703   2.544  66.711  0.1038 -1.1164 -0.2856
 1126TIP3    H124869   2.688   2.455  66.745 -1.4453 -1.6144 -2.1319
 1126TIP3    H224870   2.630   2.595  66.745  0.4298 -0.7784 -0.0813
 1127TIP3   OH224871   0.013   0.116  21.422  0.1993 -0.5753  0.1154
 1127TIP3    H124872  -0.016   0.202  21.392  0.6499 -0.4869 -0.0816
 1127TIP3    H224873  -0.067   0.064  21.429  0.1061 -0.7088 -1.5849
 1128TIP3   OH224874   1.902   2.543  66.595 -0.1629 -0.3110  0.1796
 1128TIP3    H124875   1.825   2.596  66.614  0.1336  0.9929 -1.9376
 1128TIP3    H224876   1.867   2.460  66.565 -0.7778  0.3041 -0.8569
 1129TIP3   OH224877   3.062   0.066  21.661 -0.2047  0.1610 -0.4930
 1129TIP3    H124878   2.975   0.087  21.626 -0.6495  0.3332  0.6939
 1129TIP3    H224879   3.046   0.004  21.732  0.7174 -0.4298 -0.7785
 1130TIP3   OH224880   0.252   0.741  59.677 -0.6061 -0.2435  0.0187
 1130TIP3    H124881   0.231   0.834  59.678 -1.9240 -0.4959 -1.3688
 1130TIP3    H224882   0.199   0.704  59.606  0.4299 -1.9301  0.0473
 1131TIP3   OH224883   2.818   3.013  65.022  0.1030  0.1559 -0.8555
 1131TIP3    H124884   2.885   3.077  65.000 -0.3300  0.9170 -0.0040
 1131TIP3    H224885   2.739   3.044  64.979 -0.5628  1.2405  1.0147
 1132TIP3   OH224886   1.229   0.329  50.304 -0.2879 -0.4819 -0.0279
 1132TIP3    H124887   1.283   0.343  50.382 -0.1715 -0.3856 -0.1263
 1132TIP3    H224888   1.267   0.252  50.262  1.5030  1.1415 -1.5646
 1133TIP3   OH224889   2.165   1.979  44.915  0.1839  0.2078  0.7408
 1133TIP3    H124890   2.169   2.059  44.863  1.1550  0.2624  0.8908
 1133TIP3    H224891   2.143   1.911  44.851 -0.4801  0.5519  0.5846
 1134TIP3   OH224892   3.273   0.818  57.822 -0.1813  0.3616 -0.3160
 1134TIP3    H124893   3.360   0.778  57.813  0.2565  1.0652  0.6684
 1134TIP3    H224894   3.286   0.890  57.884 -1.2850  1.0386 -0.8508
 1135TIP3   OH224895   0.370   1.189  18.654 -0.6232  0.0157 -0.2211
 1135TIP3    H124896   0.373   1.285  18.662 -1.3525  0.1888 -1.6653
 1135TIP3    H224897   0.430   1.158  18.722  2.2884  1.6222 -1.8028
 1136TIP3   OH224898   2.490   2.226  14.252 -0.3196  0.4341 -0.3620
 1136TIP3    H124899   2.525   2.246  14.165 -0.0105  1.7904  0.0507
 1136TIP3    H224900   2.566   2.231  14.310 -0.8724  1.7462  0.2987
 1137TIP3   OH224901   0.319   1.030   2.925  0.5031 -0.0182 -0.3810
 1137TIP3    H124902   0.368   0.959   2.965 -0.3535  0.4922  1.6855
 1137TIP3    H224903   0.376   1.063   2.855  1.9262 -1.1474  0.2097
 1138TIP3   OH224904   1.436   2.526  10.449  0.0052  0.1816  0.1510
 1138TIP3    H124905   1.350   2.562  10.431 -0.7907 -1.3326  0.7577
 1138TIP3    H224906   1.485   2.599  10.487 -0.6768  1.3227 -1.0969
 1139TIP3   OH224907   1.695   1.856  54.928 -0.3439  0.2226  0.0630
 1139TIP3    H124908   1.652   1.872  54.844  0.4152 -2.1819 -0.8642
 1139TIP3    H224909   1.787   1.841  54.906 -0.3039 -1.4298  1.1529
 1140TIP3   OH224910   0.787   3.189   3.797 -0.2352 -0.2277  0.2820
 1140TIP3    H124911   0.741   3.198   3.713  0.6370 -0.4777 -0.2339
 1140TIP3    H224912   0.743   3.116   3.841 -1.6687  0.8424  0.7113
 1141TIP3   OH224913   2.590   1.877  60.866 -0.5454  0.7265 -0.4999
 1141TIP3    H124914   2.674   1.837  60.888 -0.5483  0.8776 -0.2188
 1141TIP3    H224915   2.614   1.959  60.822 -0.5437  0.6192 -0.7006
 1142TIP3   OH224916   1.495   0.918  49.814 -0.2628 -0.3284 -0.4409
 1142TIP3    H124917   1.565   0.859  49.787 -0.4273 -0.8512  0.2248
 1142TIP3    H224918   1.475   0.970  49.736  0.7770 -0.2494 -0.6712
 1143TIP3   OH224919   2.335   2.233   6.563  0.1472 -0.0529  0.1364
 1143TIP3    H124920   2.257   2.202   6.516 -0.2651  1.9976 -0.6269
 1143TIP3    H224921   2.400   2.163   6.551 -0.4974 -0.3345 -2.0779
 1144TIP3   OH224922   3.313   0.645  28.417 -0.4350 -0.3588  0.5260
 1144TIP3    H124923   3.221   0.650  28.442 -0.3946 -0.1260  0.6373
 1144TIP3    H224924   3.336   0.553  28.425 -1.4939 -1.0208 -2.5416
 1145TIP3   OH224925   3.123   1.733  59.680  0.4576  0.0700  0.6432
 1145TIP3    H124926   3.074   1.738  59.597  0.5269 -0.1759  0.5845
 1145TIP3    H224927   3.214   1.745  59.655  0.8516 -2.8728  0.2486
 1146TIP3   OH224928   0.316   2.424   0.514 -0.1700  0.1837  0.1995
 1146TIP3    H124929   0.382   2.429   0.445 -0.4361 -0.4557 -0.1114
 1146TIP3    H224930   0.244   2.373   0.475 -1.1619  1.4722  0.2777
 1147TIP3   OH224931   2.433   0.454  65.461  0.1290 -0.3972 -0.2068
 1147TIP3    H124932   2.391   0.539  65.446  1.6800  0.2723 -0.9561
 1147TIP3    H224933   2.466   0.428  65.376  1.3840 -0.7859  0.3693
 1148TIP3   OH224934   1.689   1.140  22.033 -0.2395 -0.1721  0.0695
 1148TIP3    H124935   1.663   1.048  22.043  0.9147 -0.6369 -1.0683
 1148TIP3    H224936   1.633   1.173  21.962  0.1583 -0.3245 -0.3155
 1149TIP3   OH224937   0.658   3.274   3.526  0.0614  0.4961 -0.3914
 1149TIP3    H124938   0.661   3.208   3.457 -0.0321  0.4841 -0.3849
 1149TIP3    H224939   0.725   3.338   3.502  0.8295 -0.0994  0.1179
 1150TIP3   OH224940   0.712   2.227   9.159  0.0368  0.2923 -0.1948
 1150TIP3    H124941   0.799   2.219   9.198  0.6560  0.7793 -1.4243
 1150TIP3    H224942   0.725   2.202   9.068 -1.4268 -1.0738 -0.0529
 1151TIP3   OH224943   2.732   0.477  51.252  0.0527  0.1653 -0.0423
 1151TIP3    H124944   2.699   0.539  51.317 -1.5660  1.5331 -2.0194
 1151TIP3    H224945   2.777   0.532  51.187 -0.4476 -0.8253 -1.2733
 1152TIP3   OH224946   1.072   1.317   9.386 -0.0520  0.3758 -0.0028
 1152TIP3    H124947   1.139   1.348   9.325  2.2577 -1.6126  1.3163
 1152TIP3    H224948   1.072   1.381   9.457  1.8617 -0.5107  0.8577
 1153TIP3   OH224949   1.437   2.369   7.014  0.2216  0.9019 -0.3142
 1153TIP3    H124950   1.345   2.347   7.026 -0.0814  1.8883 -0.8060
 1153TIP3    H224951   1.440   2.420   6.934  1.2660  0.5005 -0.5518
 1154TIP3   OH224952   3.191   2.578   7.875 -0.0872  0.2012 -0.3767
 1154TIP3    H124953   3.276   2.610   7.845  0.8912 -0.3245  1.6179
 1154TIP3    H224954   3.162   2.644   7.939 -1.0083  0.1784 -0.7578
 1155TIP3   OH224955   0.393   0.945  35.034 -0.1641 -0.4846  0.2183
 1155TIP3    H124956   0.306   0.951  35.072  0.3731  1.4826  1.3134
 1155TIP3    H224957   0.450   0.987  35.099  0.9717  2.1209 -2.2231
 1156TIP3   OH224958   1.314   1.114   9.034  0.0536 -0.1275  1.2169
 1156TIP3    H124959   1.357   1.049   8.977 -0.2476  0.4688  0.2784
 1156TIP3    H224960   1.248   1.065   9.082 -0.4124 -0.4773  0.2549
 1157TIP3   OH224961   1.557   3.012  11.117 -0.5798  0.2230 -0.1915
 1157TIP3    H124962   1.627   3.077  11.119 -0.2285 -0.1707  0.9832
 1157TIP3    H224963   1.594   2.939  11.066 -0.3015  0.2080  0.0288
 1158TIP3   OH224964   2.692   3.028   2.311  0.1356 -0.2229 -0.5185
 1158TIP3    H124965   2.647   2.967   2.370 -1.7673  0.0126 -1.6270
 1158TIP3    H224966   2.724   2.973   2.240  2.2602 -0.4783  0.5546
 1159TIP3   OH224967   0.818   2.103  13.804  0.7008  0.3545 -0.1404
 1159TIP3    H124968   0.861   2.120  13.889 -1.8416  2.0057  0.9539
 1159TIP3    H224969   0.821   2.008  13.794  1.3403  0.1420  1.6630
 1160TIP3   OH224970   0.683   2.229  53.658 -0.2648  0.5364 -0.1792
 1160TIP3    H124971   0.693   2.283  53.737 -0.5837  0.3298  0.0094
 1160TIP3    H224972   0.613   2.167  53.681 -1.2778  1.3060 -1.0743
 1161TIP3   OH224973   1.364   1.620  54.748  0.3188  0.5926 -0.1121
 1161TIP3    H124974   1.291   1.587  54.801  0.8296  0.6121  0.6152
 1161TIP3    H224975   1.332   1.704  54.714 -0.3836  0.1154 -0.6619
 1162TIP3   OH224976   0.674   2.682   9.358  0.0700  0.2885 -0.0830
 1162TIP3    H124977   0.728   2.714   9.431  2.3645 -1.2199 -0.9955
 1162TIP3    H224978   0.720   2.713   9.280 -0.0532 -1.5363 -0.9101
 1163TIP3   OH224979   0.764   0.979   9.989 -0.6569  0.0286 -0.2497
 1163TIP3    H124980   0.760   0.982   9.893 -0.0374  1.0014 -0.2613
 1163TIP3    H224981   0.691   1.034  10.017  0.5274  1.6495 -0.2147
 1164TIP3   OH224982   1.889   2.063   5.565 -0.3324 -0.3226 -0.1568
 1164TIP3    H124983   1.983   2.070   5.578 -0.2212 -0.4243 -0.8322
 1164TIP3    H224984   1.856   2.025   5.646  0.3624 -1.3554 -0.3302
 1165TIP3   OH224985   0.911   0.077  56.551  0.1208  0.3013 -0.6987
 1165TIP3    H124986   0.996   0.084  56.595 -0.5265 -0.5418  0.7949
 1165TIP3    H224987   0.927   0.020  56.476  0.3358 -2.6713  1.3849
 1166TIP3   OH224988   1.539   1.820  13.781 -0.1964 -0.2213 -0.1733
 1166TIP3    H124989   1.617   1.847  13.733 -0.3259  1.9310  0.6957
 1166TIP3    H224990   1.480   1.895  13.775 -0.1887  0.2305  3.2880
 1167TIP3   OH224991   3.186   1.810  14.758  0.3116 -0.2966  0.5426
 1167TIP3    H124992   3.268   1.859  14.765  0.3030 -0.3051  0.7043
 1167TIP3    H224993   3.202   1.730  14.808  0.3363 -0.4728  0.2514
 1168TIP3   OH224994   1.334   0.431   9.208  0.5415  0.1086  0.4034
 1168TIP3    H124995   1.314   0.470   9.123  0.4046 -0.8624 -0.0236
 1168TIP3    H224996   1.248   0.420   9.250  0.6454  1.0613  0.8982
 1169TIP3   OH224997   2.012   0.716  52.941 -0.2298  0.2214  0.0628
 1169TIP3    H124998   1.981   0.804  52.917  0.5572  0.4364 -0.1847
 1169TIP3    H224999   2.015   0.718  53.037  1.9026  1.2589  0.0551
 1170TIP3   OH225000   1.103   3.435   5.144 -0.5216  0.1442  0.0706
 1170TIP3    H125001   1.008   3.450   5.143 -0.5148  0.2452  0.6472
 1170TIP3    H225002   1.113   3.346   5.177 -0.3861  0.4486  0.8744
 1171TIP3   OH225003   1.788   0.210  44.192  0.2057  0.2152  0.0650
 1171TIP3    H125004   1.872   0.217  44.146 -0.3865 -0.1066 -1.1181
 1171TIP3    H225005   1.738   0.286  44.162  0.4281  1.0130  1.5946
 1172TIP3   OH225006   0.662   0.365  16.084 -0.3221  0.0159  0.1853
 1172TIP3    H125007   0.602   0.412  16.142 -1.0123  2.1386 -2.0938
 1172TIP3    H225008   0.608   0.337  16.010  0.6812 -1.9273  0.1250
 1173TIP3   OH225009   2.503   0.870  14.887  0.1403  0.0376  0.0244
 1173TIP3    H125010   2.472   0.789  14.929 -0.0423 -0.2240 -0.6009
 1173TIP3    H225011   2.436   0.935  14.907  0.2120 -0.0051  0.4035
 1174TIP3   OH225012   3.236   3.052  47.887 -0.0976  0.3395 -0.0317
 1174TIP3    H125013   3.167   3.083  47.946  0.5690 -0.9674  1.4984
 1174TIP3    H225014   3.284   3.131  47.863  0.1977  0.8209  1.9768
 1175TIP3   OH225015   2.683   0.478   6.816 -0.0449  0.0869  0.9045
 1175TIP3    H125016   2.605   0.431   6.785 -0.4519  0.9768  0.5306
 1175TIP3    H225017   2.716   0.522   6.737 -1.2935  2.6784  1.7154
 1176TIP3   OH225018   3.390   0.922  22.326 -0.1723 -0.1197 -0.4239
 1176TIP3    H125019   3.383   0.829  22.307  0.6358 -0.1812 -0.4494
 1176TIP3    H225020   3.440   0.927  22.408 -2.2026  0.2096  0.8848
 1177TIP3   OH225021   1.980   2.834  42.797 -0.0884  0.1747  0.5939
 1177TIP3    H125022   2.008   2.749  42.765  1.0266  1.0902 -0.9631
 1177TIP3    H225023   2.059   2.872  42.836  0.3608  1.8356 -1.7609
 1178TIP3   OH225024   2.048   2.833  13.537  0.3921  1.1126  0.2259
 1178TIP3    H125025   2.086   2.921  13.546  2.0169  0.7075 -1.7313
 1178TIP3    H225026   2.056   2.814  13.443 -1.5645 -0.4441  0.3144
 1179TIP3   OH225027   0.778   0.554  18.362 -0.2303  0.1456  0.0002
 1179TIP3    H125028   0.850   0.587  18.308 -0.2064 -0.5584 -0.4038
 1179TIP3    H225029   0.811   0.473  18.399  0.1414  1.1144  1.9272
 1180TIP3   OH225030   2.558   0.189  45.123  0.0430 -0.1581  0.7719
 1180TIP3    H125031   2.638   0.238  45.107 -0.4288  0.5280  0.5062
 1180TIP3    H225032   2.493   0.255  45.147 -0.2601 -0.7757  1.7361
 1181TIP3   OH225033   1.087   2.267  44.902  0.5709 -0.1911  0.2548
 1181TIP3    H125034   1.122   2.324  44.971  1.0155 -1.3075  0.9761
 1181TIP3    H225035   1.007   2.231  44.939  0.9438 -0.9952  0.3062
 1182TIP3   OH225036   1.551   1.962   8.755  0.4063 -0.4766 -0.2129
 1182TIP3    H125037   1.520   1.950   8.845 -0.0702 -0.0858 -0.3215
 1182TIP3    H225038   1.589   2.050   8.754  0.5585 -0.5427 -0.3569
 1183TIP3   OH225039   2.241   2.143  13.021  0.5999  0.0437 -0.1445
 1183TIP3    H125040   2.186   2.147  13.099  0.6978 -2.7282  0.1625
 1183TIP3    H225041   2.180   2.142  12.948  0.4800  1.6381 -0.1112
 1184TIP3   OH225042   1.599   0.692   7.814 -0.2269  0.3194 -0.5803
 1184TIP3    H125043   1.630   0.750   7.884 -1.5346 -1.1688  1.3369
 1184TIP3    H225044   1.616   0.741   7.734  2.5710  1.5531  0.6379
 1185TIP3   OH225045   0.063   1.791  18.933  0.0042  0.0586 -0.3013
 1185TIP3    H125046   0.149   1.773  18.895 -0.5088  1.4283 -2.2754
 1185TIP3    H225047   0.010   1.716  18.908  0.2589 -0.1072 -0.3478
 1186TIP3   OH225048   3.418   0.473  13.838 -0.6459 -0.1975  0.0905
 1186TIP3    H125049   3.354   0.505  13.903 -0.9317 -0.5543 -0.0079
 1186TIP3    H225050   3.499   0.518  13.860 -0.5629 -0.8157  1.1366
 1187TIP3   OH225051   0.709   3.181  65.205  0.1101 -0.5739 -1.2637
 1187TIP3    H125052   0.633   3.221  65.163  0.7919  1.5366 -0.5787
 1187TIP3    H225053   0.779   3.186  65.139  0.5612  0.6755 -0.7253
 1188TIP3   OH225054   0.818   1.619  59.581  0.1873 -0.2176  0.0092
 1188TIP3    H125055   0.759   1.662  59.518  0.7684 -0.3857 -0.6488
 1188TIP3    H225056   0.830   1.685  59.650 -1.3129 -0.4228  0.5090
 1189TIP3   OH225057   1.035   3.015  37.776 -0.2728 -0.1166 -0.6946
 1189TIP3    H125058   1.034   3.027  37.681 -0.1423  1.6426 -0.4964
 1189TIP3    H225059   1.075   2.928  37.788  0.4513 -0.0274 -2.2081
 1190TIP3   OH225060   0.114   1.025  10.400 -0.4586  0.0623  0.0488
 1190TIP3    H125061   0.039   0.967  10.390 -0.2246 -0.1829 -0.2764
 1190TIP3    H225062   0.181   0.988  10.344 -0.2573  0.5650 -0.0468
 1191TIP3   OH225063   1.030   2.849   5.998 -0.9239 -0.0944  0.1169
 1191TIP3    H125064   0.976   2.771   6.014  0.6740 -1.7208 -1.7822
 1191TIP3    H225065   0.997   2.883   5.915 -0.1013 -0.1704 -0.2512
 1192TIP3   OH225066   0.810   0.752  49.887  0.0967  0.2396  0.1062
 1192TIP3    H125067   0.740   0.707  49.840 -0.2990  0.5901  0.3495
 1192TIP3    H225068   0.868   0.682  49.917 -1.3111 -0.2495  1.7957
 1193TIP3   OH225069   1.741   0.093  61.787 -0.4419  0.2714  0.2348
 1193TIP3    H125070   1.733   0.000  61.812  0.4206  0.6772  2.2159
 1193TIP3    H225071   1.661   0.133  61.820 -1.1722  0.1339 -1.2956
 1194TIP3   OH225072   0.346   1.888  48.807  0.4342 -0.2335  0.2016
 1194TIP3    H125073   0.336   1.851  48.720  0.4210 -0.8175  0.4510
 1194TIP3    H225074   0.257   1.896  48.840  0.4152  0.3016  0.0390
 1195TIP3   OH225075   1.976   0.082  10.585 -0.6307  0.2071  0.1367
 1195TIP3    H125076   2.020   0.071  10.501  3.3304  1.1145  1.8343
 1195TIP3    H225077   1.952   0.174  10.589 -1.6209 -0.0171 -0.2739
 1196TIP3   OH225078   1.225   2.559  63.408 -0.5372  0.1141  0.2760
 1196TIP3    H125079   1.215   2.651  63.434  1.8261  0.0204  1.8679
 1196TIP3    H225080   1.186   2.509  63.479 -0.5037 -0.1003  0.1445
 1197TIP3   OH225081   1.407   0.257   1.185  0.1204  0.1915 -0.2478
 1197TIP3    H125082   1.401   0.313   1.107  1.3743  0.6671 -0.0161
 1197TIP3    H225083   1.413   0.319   1.258 -0.8315 -0.2550  0.2181
 1198TIP3   OH225084   1.916   0.660  14.893 -0.3893  0.0127 -0.5795
 1198TIP3    H125085   1.889   0.600  14.963 -0.8594 -0.7082 -1.3598
 1198TIP3    H225086   2.008   0.676  14.910 -0.9964  1.6985  1.5418
 1199TIP3   OH225087   3.027   3.303  48.375  0.0661 -0.6413 -0.3864
 1199TIP3    H125088   3.031   3.397  48.389  1.2956 -0.6057 -0.8941
 1199TIP3    H225089   2.944   3.276  48.415 -2.4437  1.2616 -3.7686
 1200TIP3   OH225090   1.107   3.291  19.702 -0.5551  0.0413  0.5061
 1200TIP3    H125091   1.065   3.280  19.788  1.3386 -0.9177  1.3501
 1200TIP3    H225092   1.190   3.333  19.721 -0.2996  0.2371 -0.9363
 1201TIP3   OH225093   0.162   1.996  56.738  0.5863 -0.8834 -0.1190
 1201TIP3    H125094   0.147   1.925  56.800 -0.2634  0.0034  0.7276
 1201TIP3    H225095   0.122   2.073  56.779  1.7209  0.1545 -0.8742
 1202TIP3   OH225096   0.545   1.214  61.503  0.3331  0.0341  0.2799
 1202TIP3    H125097   0.562   1.291  61.557  0.0620  0.6142 -0.4435
 1202TIP3    H225098   0.629   1.197  61.459 -0.5536  2.3354 -2.5751
 1203TIP3   OH225099   1.698   2.335  21.423  0.7686 -0.0363  0.0637
 1203TIP3    H125100   1.682   2.258  21.478  1.3790 -3.5661 -4.1189
 1203TIP3    H225101   1.786   2.364  21.447  0.5288 -0.5766  1.7398
 1204TIP3   OH225102   1.412   1.644  66.658  0.0346 -0.3425 -0.1121
 1204TIP3    H125103   1.458   1.566  66.688  0.8997 -0.1943 -1.0080
 1204TIP3    H225104   1.470   1.683  66.594 -1.2163  0.0289 -1.0599
 1205TIP3   OH225105   2.582   1.767  55.475 -0.0788  0.7290  0.2570
 1205TIP3    H125106   2.490   1.780  55.454 -0.0003 -0.4237 -0.8514
 1205TIP3    H225107   2.618   1.719  55.401  1.1674  0.1797  1.1819
 1206TIP3   OH225108   2.987   0.318  51.358  0.1131  0.0462 -0.3766
 1206TIP3    H125109   3.031   0.398  51.387  1.9411 -1.1806  0.4248
 1206TIP3    H225110   2.895   0.342  51.352  0.2256  1.5242  2.4135
 1207TIP3   OH225111   2.063   0.881  17.301  0.1414 -0.3375  0.0099
 1207TIP3    H125112   2.044   0.826  17.377 -0.5616 -0.5296 -0.3064
 1207TIP3    H225113   2.015   0.962  17.318 -1.2325 -0.9327 -0.9289
 1208TIP3   OH225114   0.346   1.059  57.718  0.2889  0.0879  0.3185
 1208TIP3    H125115   0.358   0.978  57.767 -2.8910 -1.0164 -0.4850
 1208TIP3    H225116   0.426   1.069  57.667  1.8578 -1.0690  2.4101
 1209TIP3   OH225117   1.558   3.203  15.743  0.6346  0.6587 -0.2851
 1209TIP3    H125118   1.618   3.128  15.743  0.0408  0.1292  1.4885
 1209TIP3    H225119   1.515   3.199  15.658  0.0784 -1.4834  0.0372
 1210TIP3   OH225120   2.159   0.424   7.655  0.4823  0.3230  0.1599
 1210TIP3    H125121   2.085   0.429   7.715  0.7778  0.6878  0.5003
 1210TIP3    H225122   2.226   0.376   7.703  0.5664  0.2341 -0.0441
 1211TIP3   OH225123   1.842   0.617  25.088  0.3384 -0.3744  0.2126
 1211TIP3    H125124   1.786   0.560  25.141 -1.5002  1.8810  0.8515
 1211TIP3    H225125   1.846   0.699  25.137  2.3028  0.3304 -1.0142
 1212TIP3   OH225126   3.425   0.468  51.035  0.4019 -0.4457  0.0041
 1212TIP3    H125127   3.394   0.509  50.955  0.0030 -0.6680  0.0461
 1212TIP3    H225128   3.390   0.379  51.032 -0.7093 -0.0674  1.0391
 1213TIP3   OH225129   1.931   3.083  14.510 -0.1379 -0.2417 -0.2445
 1213TIP3    H125130   2.026   3.092  14.509 -0.2346  0.9441 -1.0233
 1213TIP3    H225131   1.899   3.170  14.487 -1.3717 -1.2304 -2.5749
 1214TIP3   OH225132   0.263   2.951  60.069  0.0563 -0.0645 -0.4816
 1214TIP3    H125133   0.338   2.902  60.103  1.2021  2.0186  0.1790
 1214TIP3    H225134   0.296   2.995  59.991 -1.4218 -1.5813 -2.0276
 1215TIP3   OH225135   3.439   1.309  66.431  0.2832 -0.8806  0.7691
 1215TIP3    H125136   3.394   1.342  66.354 -2.0389 -1.4562  1.7887
 1215TIP3    H225137   3.495   1.238  66.398  0.4688 -0.1428 -0.5469
 1216TIP3   OH225138   0.580   2.765  52.991 -0.2118 -0.4602 -0.0805
 1216TIP3    H125139   0.647   2.792  52.929  1.0253 -0.6398  1.1483
 1216TIP3    H225140   0.543   2.847  53.024 -0.0976 -0.3553 -0.2125
 1217TIP3   OH225141   2.652   1.278  61.488 -0.0775 -0.0618 -0.2777
 1217TIP3    H125142   2.639   1.306  61.398 -0.3552 -1.4073 -0.6724
 1217TIP3    H225143   2.569   1.299  61.532 -0.4389 -0.6711 -0.6704
 1218TIP3   OH225144   0.080   0.696  53.325  0.1236 -0.2509  0.2388
 1218TIP3    H125145   0.143   0.734  53.386  1.0481 -0.4364 -0.5782
 1218TIP3    H225146   0.106   0.730  53.239 -1.6272  0.6386  0.0080
 1219TIP3   OH225147   0.617   3.294  35.154 -0.0889 -0.1497 -0.4903
 1219TIP3    H125148   0.546   3.232  35.168  0.3584 -1.0022 -1.8918
 1219TIP3    H225149   0.685   3.267  35.217  0.4856 -1.7179 -1.7275
 1220TIP3   OH225150   2.564   1.214  20.967 -0.0102 -0.6413  0.2445
 1220TIP3    H125151   2.528   1.202  20.879 -0.9703 -0.8558  0.6593
 1220TIP3    H225152   2.542   1.304  20.990  0.8961 -0.3373 -0.0125
 1221TIP3   OH225153   1.117   3.197   3.284  0.3610 -0.1862  0.1357
 1221TIP3    H125154   1.037   3.237   3.250  0.7056 -0.1847 -0.7042
 1221TIP3    H225155   1.122   3.112   3.240  0.8716 -0.1461  0.1104
 1222TIP3   OH225156   0.827   0.326  10.682  0.2235 -0.0813 -0.2082
 1222TIP3    H125157   0.780   0.244  10.698 -0.7858  0.7079  1.0735
 1222TIP3    H225158   0.915   0.299  10.654 -0.7138 -1.6008 -1.9208
 1223TIP3   OH225159   1.969   1.677  56.722  0.6766  0.2350  0.2964
 1223TIP3    H125160   2.064   1.685  56.714  0.6353 -0.3287 -0.8591
 1223TIP3    H225161   1.941   1.634  56.642 -0.6636  1.1321  0.2483
 1224TIP3   OH225162   0.000   0.570  46.888  0.2726  0.3397  0.6832
 1224TIP3    H125163   0.093   0.547  46.895 -0.0067 -1.5772 -1.0397
 1224TIP3    H225164  -0.046   0.493  46.920 -0.7145  0.4190 -0.4722
 1225TIP3   OH225165   1.621   0.843  54.651  0.1509  0.8675  0.4671
 1225TIP3    H125166   1.554   0.780  54.679 -0.6335  1.4651  0.0062
 1225TIP3    H225167   1.653   0.807  54.568  0.8208  0.2823  0.9730
 1226TIP3   OH225168   1.718   1.101  51.713 -0.1525  0.2245  0.0302
 1226TIP3    H125169   1.751   1.080  51.626 -1.1428  1.1091 -0.5915
 1226TIP3    H225170   1.744   1.192  51.727 -0.3680  0.2206  0.4752
 1227TIP3   OH225171   3.224   0.270  42.693  0.1828  0.1041 -0.3188
 1227TIP3    H125172   3.139   0.252  42.732  0.8843 -1.2953  0.6852
 1227TIP3    H225173   3.272   0.187  42.703  1.7864  0.9769 -0.5005
 1228TIP3   OH225174   2.080   0.789  20.534 -0.2218  0.2670  0.0673
 1228TIP3    H125175   2.150   0.811  20.473  0.6353 -0.6236  0.7123
 1228TIP3    H225176   2.012   0.854  20.517  1.0428  1.5902 -0.0720
 1229TIP3   OH225177   2.664   2.269  59.295  0.1322  0.4193  0.0293
 1229TIP3    H125178   2.609   2.290  59.219 -0.8479  1.1400  0.9122
 1229TIP3    H225179   2.605   2.230  59.358  1.1941 -1.3774 -0.0331
 1230TIP3   OH225180   0.948   0.994  48.392  0.1304  0.0487  0.1825
 1230TIP3    H125181   0.928   0.902  48.408 -1.8499  0.3978 -0.0329
 1230TIP3    H225182   0.898   1.042  48.459  1.4522  0.9648  0.5583
 1231TIP3   OH225183   3.359   1.240   9.090  0.3409 -0.1608 -0.4934
 1231TIP3    H125184   3.431   1.177   9.098 -0.8347 -1.7816 -1.7506
 1231TIP3    H225185   3.280   1.185   9.096 -0.8335  1.5836  1.1714
 1232TIP3   OH225186   0.179   2.733  50.450 -0.1060  0.1130 -0.1537
 1232TIP3    H125187   0.100   2.784  50.431  1.3371  1.1865 -4.0698
 1232TIP3    H225188   0.252   2.790  50.425  1.8736 -1.7633  0.9625
 1233TIP3   OH225189   2.666   0.301  16.585 -0.1185  0.0668 -0.1171
 1233TIP3    H125190   2.710   0.380  16.556  1.0844 -0.3021  0.6439
 1233TIP3    H225191   2.614   0.273  16.509  0.8393  0.6008 -0.9894
 1234TIP3   OH225192   1.318   0.051  21.122 -0.5861 -0.3335  0.2090
 1234TIP3    H125193   1.232   0.063  21.082  0.3677 -1.1357 -2.2723
 1234TIP3    H225194   1.368   0.130  21.097  0.0721 -0.9143 -0.3599
 1235TIP3   OH225195   1.405   1.649  13.603 -0.5407 -0.0014 -0.4033
 1235TIP3    H125196   1.432   1.561  13.579  0.0753  0.3914 -1.1870
 1235TIP3    H225197   1.483   1.689  13.641 -0.8169  0.2058 -0.0436
 1236TIP3   OH225198   2.422   3.300  51.182 -0.0588 -0.0189 -0.1645
 1236TIP3    H125199   2.515   3.276  51.184 -0.3300 -1.6741 -2.6490
 1236TIP3    H225200   2.380   3.240  51.244  0.3484 -0.2689 -0.1262
 1237TIP3   OH225201   3.403   1.254  54.699  0.1205 -0.6825  0.0551
 1237TIP3    H125202   3.464   1.191  54.736 -0.1812 -0.6780  0.5724
 1237TIP3    H225203   3.401   1.234  54.606  0.0983 -1.3706  0.1999
 1238TIP3   OH225204   2.762   1.467  56.325  0.1606  0.4738  0.4413
 1238TIP3    H125205   2.738   1.379  56.353  1.8056 -0.0706  0.2521
 1238TIP3    H225206   2.831   1.454  56.260  0.2341  1.8831  0.1969
 1239TIP3   OH225207   1.267   0.711  20.471 -0.8377 -0.6292  0.1162
 1239TIP3    H125208   1.278   0.707  20.376  0.8874 -0.0617  0.2691
 1239TIP3    H225209   1.210   0.636  20.491 -2.4141  0.0522 -1.4916
 1240TIP3   OH225210   1.222   1.898  45.266  0.1554 -0.2212 -0.1971
 1240TIP3    H125211   1.241   1.817  45.314 -0.4367 -0.4900 -0.3997
 1240TIP3    H225212   1.306   1.943  45.260  0.7398 -1.3902 -1.1279
 1241TIP3   OH225213   0.095   0.729  65.957  0.6366  0.7828  0.1287
 1241TIP3    H125214   0.012   0.762  65.923  0.8383  2.2016  0.9533
 1241TIP3    H225215   0.125   0.667  65.890 -1.4469 -0.4029  0.1920
 1242TIP3   OH225216   0.651   0.698  49.230 -0.0252  0.0918  0.2800
 1242TIP3    H125217   0.608   0.779  49.256 -0.2178 -0.3300  1.3333
 1242TIP3    H225218   0.739   0.704  49.267  0.5711  0.5866 -1.1568
 1243TIP3   OH225219   1.868   2.833  65.844  0.5777  0.3916  0.7069
 1243TIP3    H125220   1.800   2.767  65.854 -0.4737  1.4580  0.7800
 1243TIP3    H225221   1.934   2.809  65.910 -0.3384  0.0828  1.5361
 1244TIP3   OH225222   2.257   0.981  67.319  0.2306 -0.4755 -0.1883
 1244TIP3    H125223   2.323   0.912  67.334 -1.5479 -2.3197 -0.3733
 1244TIP3    H225224   2.308   1.062  67.316  2.7280 -1.9609 -2.1689
 1245TIP3   OH225225   2.589   2.307  54.394  0.6682  0.9090 -0.1704
 1245TIP3    H125226   2.531   2.284  54.467  1.1222 -1.5991 -0.5292
 1245TIP3    H225227   2.677   2.289  54.427  1.0013  1.3703 -0.7851
 1246TIP3   OH225228   1.937   0.389   2.380  0.2737 -0.6284 -0.2683
 1246TIP3    H125229   1.913   0.389   2.473  0.5747 -0.3758 -0.1852
 1246TIP3    H225230   2.032   0.403   2.380  0.2549 -0.4869 -0.6186
 1247TIP3   OH225231   0.732   2.965  14.335 -0.4946  0.0455  0.0452
 1247TIP3    H125232   0.811   3.012  14.309  0.2158 -0.5655  1.0281
 1247TIP3    H225233   0.674   2.973  14.260  1.6269 -2.0560 -2.0236
 1248TIP3   OH225234   3.022   0.794  14.211 -0.2965 -0.6073 -0.4241
 1248TIP3    H125235   3.005   0.734  14.139 -1.0533 -1.1607  0.2048
 1248TIP3    H225236   3.088   0.750  14.264  1.7745  0.6536 -1.7769
 1249TIP3   OH225237   1.508   0.524  56.029  0.1848 -0.1973 -0.1033
 1249TIP3    H125238   1.547   0.561  56.108 -1.3846 -1.0882  1.1371
 1249TIP3    H225239   1.515   0.594  55.964  1.3445  0.6150  0.8475
 1250TIP3   OH225240   0.663   0.377  62.539  0.1252  0.3285 -0.6979
 1250TIP3    H125241   0.687   0.307  62.478 -2.4827 -0.8020 -0.5518
 1250TIP3    H225242   0.576   0.352  62.571  0.0856  2.5061  1.1010
 1251TIP3   OH225243   0.061   0.706  57.747 -0.0126 -0.2348  0.0907
 1251TIP3    H125244   0.042   0.707  57.653  0.7533  1.7792 -0.1044
 1251TIP3    H225245   0.140   0.652  57.754  2.1030  2.4514 -1.0210
 1252TIP3   OH225246   2.023   3.285  18.216 -0.3832  0.6451 -0.4385
 1252TIP3    H125247   2.027   3.240  18.132 -1.2373  0.1753 -0.2368
 1252TIP3    H225248   2.055   3.373  18.198  1.4269 -0.0478 -0.8195
 1253TIP3   OH225249   1.663   0.730  66.364 -0.0946  0.0459 -0.3059
 1253TIP3    H125250   1.708   0.784  66.428 -0.5417  1.1629 -0.9136
 1253TIP3    H225251   1.574   0.765  66.361  0.7145  2.4394 -4.0244
 1254TIP3   OH225252   2.339   2.453  51.149  0.0492 -0.1234 -0.2951
 1254TIP3    H125253   2.385   2.489  51.073 -0.4875  0.5876 -0.2909
 1254TIP3    H225254   2.269   2.516  51.167  0.5399  0.0316  1.1588
 1255TIP3   OH225255   3.015   2.865  64.640  0.0106 -0.3542 -0.4461
 1255TIP3    H125256   2.985   2.793  64.695  0.6004 -0.7469 -0.6256
 1255TIP3    H225257   3.011   2.830  64.551 -1.8034  0.5758 -0.7560
 1256TIP3   OH225258   1.664   2.831  50.120  0.1657  0.0308  0.4769
 1256TIP3    H125259   1.756   2.819  50.096 -0.1232 -0.7714 -0.2857
 1256TIP3    H225260   1.639   2.913  50.077  0.5904  0.3914  0.9044
 1257TIP3   OH225261   0.935   1.835  42.340 -0.5738 -0.0711  0.0623
 1257TIP3    H125262   0.847   1.872  42.349 -1.0502 -0.6824 -1.7714
 1257TIP3    H225263   0.930   1.777  42.264  1.2604 -0.6168  0.2970
 1258TIP3   OH225264   2.849   0.058  45.319 -0.1486 -0.1062  0.5368
 1258TIP3    H125265   2.885   0.066  45.231 -0.2602  2.3585  0.6691
 1258TIP3    H225266   2.925   0.040  45.375  0.1589 -0.0030  0.1523
 1259TIP3   OH225267   3.091   2.543  15.304  0.3655  0.0388 -0.0859
 1259TIP3    H125268   3.103   2.468  15.246  0.4754 -0.1801  0.2165
 1259TIP3    H225269   3.052   2.506  15.383 -0.2392  0.4087 -0.2069
 1260TIP3   OH225270   1.687   0.229  17.360 -0.0215  0.1678  0.4744
 1260TIP3    H125271   1.670   0.275  17.441 -0.8598  1.6083 -0.4732
 1260TIP3    H225272   1.770   0.265  17.328 -0.9095  1.3892 -0.4985
 1261TIP3   OH225273   2.244   1.153  65.394 -0.7129  0.4213  0.1860
 1261TIP3    H125274   2.243   1.066  65.355 -0.4830  0.6569 -0.3481
 1261TIP3    H225275   2.153   1.169  65.418 -1.0271  0.6842 -1.1591
 1262TIP3   OH225276   1.370   0.276  11.122  0.1553 -0.5000 -0.5539
 1262TIP3    H125277   1.316   0.354  11.106 -2.3648 -1.3052  2.8282
 1262TIP3    H225278   1.458   0.311  11.135 -0.3407  1.4159 -1.8333
 1263TIP3   OH225279   1.048   0.269  10.513  0.3760  0.4794 -0.0673
 1263TIP3    H125280   1.027   0.207  10.443 -1.5222  1.5445 -0.4933
 1263TIP3    H225281   1.135   0.302  10.490  0.2495 -0.0185 -1.3231
 1264TIP3   OH225282   1.149   0.948  64.458 -0.4078  0.3165  0.0757
 1264TIP3    H125283   1.162   0.889  64.383 -0.9616  0.5312 -0.1950
 1264TIP3    H225284   1.222   1.009  64.454  0.1945 -0.3779  0.3883
 1265TIP3   OH225285   2.864   2.451  17.324  0.2117  0.1243 -0.2678
 1265TIP3    H125286   2.881   2.464  17.231 -0.7210 -1.4569 -0.6986
 1265TIP3    H225287   2.922   2.513  17.368  1.2620  0.3402 -1.8738
 1266TIP3   OH225288   2.802   3.047  42.495  0.0197 -0.0704 -0.1638
 1266TIP3    H125289   2.833   3.027  42.406  2.2818  0.2682  0.4751
 1266TIP3    H225290   2.810   2.965  42.543  2.0077  0.4636  0.5188
 1267TIP3   OH225291   0.889   0.736  58.563 -0.2818 -0.1033 -0.0843
 1267TIP3    H125292   0.830   0.726  58.489 -1.0653 -1.9633  0.7305
 1267TIP3    H225293   0.834   0.772  58.633 -0.2347 -0.8673  0.3655
 1268TIP3   OH225294   2.161   2.817  13.252 -0.0545 -0.1290  0.2192
 1268TIP3    H125295   2.110   2.757  13.197  0.1574 -0.4992  0.4236
 1268TIP3    H225296   2.234   2.845  13.197  0.3651 -0.7903  0.4304
 1269TIP3   OH225297   3.348   1.487  50.068 -0.1841 -0.7196  0.2236
 1269TIP3    H125298   3.273   1.506  50.124  1.2006  0.1493  1.8910
 1269TIP3    H225299   3.340   1.394  50.047 -1.4198 -0.7676  0.8131
 1270TIP3   OH225300   2.809   2.075  45.131 -0.4627  0.3698 -0.4251
 1270TIP3    H125301   2.867   2.076  45.208 -2.1740  0.7972  0.9199
 1270TIP3    H225302   2.853   2.133  45.068  0.4682  0.8585  0.6248
 1271TIP3   OH225303   0.451   0.019  15.030  0.3331  0.2955  0.8092
 1271TIP3    H125304   0.522   0.016  15.095  1.4649 -1.1034 -0.4307
 1271TIP3    H225305   0.479  -0.040  14.961 -2.3418 -0.7838  0.5370
 1272TIP3   OH225306   1.259   1.876  20.229  0.1289 -0.1539 -0.7818
 1272TIP3    H125307   1.261   1.865  20.134  2.3604 -1.1508 -0.6617
 1272TIP3    H225308   1.224   1.794  20.262  1.3506 -0.6448 -0.6673
 1273TIP3   OH225309   1.137   1.231  15.916 -0.4244  0.1563  0.1389
 1273TIP3    H125310   1.232   1.226  15.919 -0.4326  0.3765  1.2335
 1273TIP3    H225311   1.109   1.210  16.005 -1.3677  0.8033  0.0101
 1274TIP3   OH225312   3.379   1.335  53.386 -0.4629 -0.6962 -0.2006
 1274TIP3    H125313   3.424   1.311  53.305 -2.1509  0.2596 -1.4954
 1274TIP3    H225314   3.428   1.409  53.420  0.8273 -1.7065  0.2034
 1275TIP3   OH225315   0.787   0.992  65.669 -0.2004 -0.0289  0.0013
 1275TIP3    H125316   0.725   0.966  65.737 -1.0236  0.6867 -0.4408
 1275TIP3    H225317   0.731   1.024  65.598  0.6620  2.6892  0.4241
 1276TIP3   OH225318   1.334   0.141  58.322 -0.0055 -0.3607 -0.5218
 1276TIP3    H125319   1.278   0.071  58.288  0.3870 -1.2549  0.6255
 1276TIP3    H225320   1.397   0.156  58.253 -1.7979  0.8954 -1.9934
 1277TIP3   OH225321   1.749   2.952  58.838  0.2548  0.2367  0.6873
 1277TIP3    H125322   1.840   2.979  58.850  0.7578 -1.1490  0.1848
 1277TIP3    H225323   1.734   2.960  58.744 -0.1411  0.4350  0.7651
 1278TIP3   OH225324   2.439   0.796  57.566  0.5472  0.1383  0.1255
 1278TIP3    H125325   2.431   0.872  57.509  0.6062 -0.0269 -0.1052
 1278TIP3    H225326   2.522   0.809  57.612  0.5266  0.2447  0.1309
 1279TIP3   OH225327   0.495   3.275  19.617 -0.1327  0.2440 -0.1533
 1279TIP3    H125328   0.562   3.221  19.658  0.4948 -0.8515 -2.4337
 1279TIP3    H225329   0.426   3.214  19.592 -0.3655  0.7903 -0.9130
 1280TIP3   OH225330   0.053   1.148  57.872  0.4830 -0.1822 -0.3810
 1280TIP3    H125331   0.077   1.172  57.782 -0.5791 -0.8228 -0.8495
 1280TIP3    H225332   0.113   1.077  57.894 -0.6137 -1.4736 -1.3800
 1281TIP3   OH225333   1.275   1.019  12.511 -0.1883 -0.4078 -0.1279
 1281TIP3    H125334   1.364   1.037  12.540 -0.7717 -0.3555  1.7845
 1281TIP3    H225335   1.286   0.973  12.428  1.6281 -0.6772  0.2099
 1282TIP3   OH225336   2.183   3.211  58.101 -0.0011  0.0346  0.3454
 1282TIP3    H125337   2.163   3.280  58.164  0.7433 -0.5720  1.2764
 1282TIP3    H225338   2.207   3.135  58.155 -1.2478 -1.1048 -0.6532
 1283TIP3   OH225339   0.275   2.008  15.993 -0.2586 -0.2847  0.2712
 1283TIP3    H125340   0.244   2.074  15.930 -0.7335 -0.1493  0.6388
 1283TIP3    H225341   0.204   1.943  15.996 -0.4340 -0.0697  0.9838
 1284TIP3   OH225342   2.633   3.370   2.954  0.3568  0.3156  0.4103
 1284TIP3    H125343   2.724   3.356   2.928  0.6647  2.2992  0.3039
 1284TIP3    H225344   2.582   3.323   2.887  1.2651  0.9763 -0.7789
 1285TIP3   OH225345   1.069   2.079   5.990 -0.1799  0.5071 -0.4901
 1285TIP3    H125346   1.125   2.007   5.961 -2.6802 -1.7838  0.0090
 1285TIP3    H225347   1.130   2.149   6.015  2.3392 -1.2168 -1.4958
 1286TIP3   OH225348   0.627   3.026   0.499  0.3801 -0.1916  0.2025
 1286TIP3    H125349   0.539   2.990   0.499  0.7477 -1.1587 -0.9077
 1286TIP3    H225350   0.677   2.970   0.558 -0.1481  1.5204  2.3831
 1287TIP3   OH225351   0.064   0.263  64.247 -0.3202  0.3491  0.7454
 1287TIP3    H125352   0.017   0.320  64.308 -1.9072 -0.1879  0.1005
 1287TIP3    H225353   0.013   0.181  64.247 -0.6779  0.4868 -1.5934
 1288TIP3   OH225354   2.532   1.540   6.721  0.3501 -0.2425 -0.7226
 1288TIP3    H125355   2.622   1.517   6.702 -0.0079 -1.5312 -0.9633
 1288TIP3    H225356   2.491   1.457   6.748 -0.2040  0.7107  1.5866
 1289TIP3   OH225357   2.322   0.359  63.902  0.6765 -0.1735 -0.6378
 1289TIP3    H125358   2.345   0.350  63.994  0.1055  1.2047 -0.3269
 1289TIP3    H225359   2.366   0.287  63.858  2.0783 -0.0518  0.5121
 1290TIP3   OH225360   0.179   0.192  51.082  0.1737 -0.2136  0.1932
 1290TIP3    H125361   0.141   0.206  51.169 -0.2801  1.2040 -0.2116
 1290TIP3    H225362   0.265   0.155  51.100  0.5117  1.0227  1.2916
 1291TIP3   OH225363   1.330   0.489   4.397 -0.5465 -0.1943 -0.0514
 1291TIP3    H125364   1.398   0.540   4.353 -0.3281  1.1017  1.6923
 1291TIP3    H225365   1.375   0.408   4.423 -0.1094 -0.0416 -0.3131
 1292TIP3   OH225366   1.064   1.256  48.497 -0.1461 -0.3655 -0.2370
 1292TIP3    H125367   1.035   1.276  48.408  0.7343 -1.1481 -0.7115
 1292TIP3    H225368   0.984   1.228  48.542 -0.7046  0.5896 -0.5962
 1293TIP3   OH225369   1.720   3.334  60.833  0.5488 -0.0887  0.3276
 1293TIP3    H125370   1.724   3.387  60.913 -0.2634  0.2396  0.1580
 1293TIP3    H225371   1.627   3.321  60.817  0.7003 -0.0345 -0.6487
 1294TIP3   OH225372   0.010   3.046  61.731 -0.0483 -0.0377 -0.0225
 1294TIP3    H125373  -0.007   2.957  61.700 -0.0861  0.0276 -0.1940
 1294TIP3    H225374  -0.047   3.101  61.677 -0.0816  0.0833  0.1345
 1295TIP3   OH225375   0.291   2.795  48.240 -0.1339 -0.1868  0.0529
 1295TIP3    H125376   0.299   2.890  48.238  0.5864 -0.2451 -0.3139
 1295TIP3    H225377   0.316   2.767  48.152  1.4625 -0.8273  0.6659
 1296TIP3   OH225378   2.681   2.801  16.949  0.4190 -0.0866 -0.1969
 1296TIP3    H125379   2.590   2.829  16.959  0.3045  0.7422 -2.7781
 1296TIP3    H225380   2.693   2.733  17.015 -1.6841  0.6589  1.0289
 1297TIP3   OH225381   2.276   0.908  18.737 -0.3260 -0.1913 -0.1342
 1297TIP3    H125382   2.249   0.822  18.770 -2.8155 -0.4211 -2.4007
 1297TIP3    H225383   2.197   0.961  18.743  0.2790  0.9693 -1.7035
 1298TIP3   OH225384   2.781   1.051   8.360  0.2509  0.5896 -0.3282
 1298TIP3    H125385   2.869   1.077   8.389  0.2435 -0.3317  0.5903
 1298TIP3    H225386   2.725   1.069   8.435 -0.4927  1.8022 -1.1413
 1299TIP3   OH225387   1.635   0.728   5.063  0.1780  0.0457  0.0342
 1299TIP3    H125388   1.727   0.730   5.035  0.3379 -0.2429  0.5195
 1299TIP3    H225389   1.600   0.813   5.038  0.3914 -0.1028 -0.7837
 1300TIP3   OH225390   1.240   0.903   3.744  0.6015 -0.0241  0.0037
 1300TIP3    H125391   1.299   0.871   3.676  0.7674 -1.5451  0.8248
 1300TIP3    H225392   1.188   0.827   3.769 -0.5145  0.8769  0.5221
 1301TIP3   OH225393   0.055   0.206  29.328 -0.0595  0.3230 -0.5732
 1301TIP3    H125394   0.024   0.230  29.415 -1.9279  2.8215 -1.8424
 1301TIP3    H225395   0.029   0.114  29.318  1.2377 -0.3975  1.8735
 1302TIP3   OH225396   2.070   2.516   2.426 -0.1276 -0.7011  0.4046
 1302TIP3    H125397   2.059   2.434   2.474  0.3894 -0.3417  1.1574
 1302TIP3    H225398   2.040   2.497   2.338 -0.7285 -1.4888  0.7715
 1303TIP3   OH225399   2.401   1.604  60.360  0.4929 -0.1628 -0.4706
 1303TIP3    H125400   2.362   1.572  60.278 -0.5304 -0.1376 -0.0125
 1303TIP3    H225401   2.495   1.595  60.347  0.2783 -2.3778 -0.7606
 1304TIP3   OH225402   0.531   2.947  12.059 -0.0435 -0.4608 -0.2393
 1304TIP3    H125403   0.503   3.009  11.992  1.6233  0.0249 -0.5498
 1304TIP3    H225404   0.542   2.865  12.013 -0.8762 -0.6335 -0.1303
 1305TIP3   OH225405   0.676   0.687  51.983 -0.2184  0.1647  0.0941
 1305TIP3    H125406   0.634   0.773  51.977 -0.6626 -0.1205 -1.3866
 1305TIP3    H225407   0.760   0.704  52.025 -0.6812  1.1707  0.6536
 1306TIP3   OH225408   0.102   2.828  57.301  0.0669 -0.1058  0.3089
 1306TIP3    H125409   0.147   2.904  57.338  0.1152  0.5305 -0.9872
 1306TIP3    H225410   0.042   2.866  57.236 -2.9068 -0.8458  2.4411
 1307TIP3   OH225411   1.330   1.927   5.943  0.1810  0.4451  0.0060
 1307TIP3    H125412   1.331   1.859   5.875  1.0666 -0.2741  0.7139
 1307TIP3    H225413   1.407   1.981   5.923 -0.5507  1.3150 -0.5903
 1308TIP3   OH225414   3.438   2.277  11.963  0.6458 -0.3388 -0.2444
 1308TIP3    H125415   3.422   2.231  11.880 -0.1473 -1.1280  0.3267
 1308TIP3    H225416   3.488   2.215  12.015  1.4922  0.3125 -0.2684
 1309TIP3   OH225417   0.982   0.395  55.983 -0.1785 -0.0711  0.3284
 1309TIP3    H125418   1.072   0.426  55.993 -0.4431  0.9727 -0.3984
 1309TIP3    H225419   0.931   0.474  55.963 -0.5114 -1.0914 -3.9168
 1310TIP3   OH225420   2.062   2.956  26.325 -0.1384 -0.2621 -0.5722
 1310TIP3    H125421   2.059   2.975  26.419  3.2789 -0.4323 -0.3171
 1310TIP3    H225422   2.007   3.024  26.285  0.3086  1.3463  1.3740
 1311TIP3   OH225423   2.276   0.271  62.624  0.3124 -0.0139  0.4379
 1311TIP3    H125424   2.301   0.201  62.564 -2.4161 -0.7330  0.0084
 1311TIP3    H225425   2.255   0.345  62.567 -2.1803 -0.6633  0.4004
 1312TIP3   OH225426   1.753   2.286  20.448  0.2268 -0.5917 -0.1123
 1312TIP3    H125427   1.766   2.359  20.388 -1.0249 -0.1882  0.0703
 1312TIP3    H225428   1.818   2.220  20.421  1.8326  0.8182  0.1419
 1313TIP3   OH225429   3.219   3.083  11.833 -0.0013  0.1617  0.6758
 1313TIP3    H125430   3.259   3.044  11.911  0.1558 -0.7992  0.1364
 1313TIP3    H225431   3.162   3.013  11.799  2.2666 -0.6416 -1.8218
 1314TIP3   OH225432   2.385   1.383  57.477  0.3693  0.3261  0.0688
 1314TIP3    H125433   2.388   1.315  57.410 -1.3406  0.6630 -0.4185
 1314TIP3    H225434   2.406   1.464  57.429 -1.7586  0.7013 -0.3253
 1315TIP3   OH225435   0.175   3.275  18.975  0.1916 -0.0381  0.1242
 1315TIP3    H125436   0.189   3.201  19.035 -2.5167 -1.6569 -1.0177
 1315TIP3    H225437   0.247   3.269  18.913  0.0346 -1.8222  0.0427
 1316TIP3   OH225438   0.538   0.419  52.491 -0.3623 -0.6735  0.2780
 1316TIP3    H125439   0.562   0.449  52.403 -0.2048  0.0391  0.5541
 1316TIP3    H225440   0.571   0.329  52.495 -1.0216 -0.9748 -0.6421
 1317TIP3   OH225441   1.640   1.151  64.152 -0.5164 -0.0698 -0.0851
 1317TIP3    H125442   1.700   1.226  64.144 -0.8281  0.3740  1.4613
 1317TIP3    H225443   1.642   1.110  64.066 -1.3060  2.4416 -1.4036
 1318TIP3   OH225444   1.597   2.808  52.916  0.2762  0.5850 -0.4558
 1318TIP3    H125445   1.618   2.871  52.985 -1.5004  2.7418 -1.7477
 1318TIP3    H225446   1.668   2.817  52.853  0.1584  1.1406 -0.5162
 1319TIP3   OH225447   1.682   0.454  44.142  0.1093  0.5389  0.3475
 1319TIP3    H125448   1.671   0.514  44.215 -3.9718 -2.6597  2.8121
 1319TIP3    H225449   1.625   0.488  44.073 -1.8620 -0.1281  1.5785
 1320TIP3   OH225450   3.071   0.348  59.735  0.1993  0.2320 -0.4000
 1320TIP3    H125451   2.982   0.338  59.702  0.3991  0.9175 -1.1793
 1320TIP3    H225452   3.063   0.340  59.830 -0.7565  0.7290 -0.4323
 1321TIP3   OH225453   1.531   1.342  43.846 -0.1249  0.0036  0.1704
 1321TIP3    H125454   1.474   1.417  43.860 -2.4770 -1.9055  1.6076
 1321TIP3    H225455   1.579   1.333  43.928  1.3402  0.7812 -0.5518
 1322TIP3   OH225456   1.405   2.145  58.102  1.0019 -0.3365  0.4312
 1322TIP3    H125457   1.473   2.205  58.069  0.6392  0.2387  0.7202
 1322TIP3    H225458   1.397   2.166  58.195 -1.0896  1.1212 -0.0200
 1323TIP3   OH225459   1.770   3.045  57.450  0.1178  0.1904  0.2519
 1323TIP3    H125460   1.841   3.007  57.398  0.9383  0.0056  1.4731
 1323TIP3    H225461   1.711   2.971  57.469 -0.1880  0.2609 -0.4038
 1324TIP3   OH225462   1.114   0.230  50.669 -0.2552  0.0615 -0.1981
 1324TIP3    H125463   1.021   0.242  50.685 -0.0887  1.1183  0.0549
 1324TIP3    H225464   1.154   0.231  50.756 -0.0727 -1.1124 -0.2528
 1325TIP3   OH225465   0.287   2.199   2.303  0.0759 -0.0346  0.2720
 1325TIP3    H125466   0.309   2.273   2.245 -1.6279  1.6466  1.6264
 1325TIP3    H225467   0.243   2.136   2.246 -0.9432  1.2591 -0.4419
 1326TIP3   OH225468   2.903   2.653  21.325 -0.1057  0.1414  0.0505
 1326TIP3    H125469   2.878   2.602  21.401 -0.8133 -0.1004 -0.3412
 1326TIP3    H225470   2.876   2.600  21.250  1.0953  0.1093 -0.3900
 1327TIP3   OH225471   0.348   1.387  63.346 -0.1626  0.6968  0.0290
 1327TIP3    H125472   0.357   1.292  63.336 -2.5263  0.0345  2.8524
 1327TIP3    H225473   0.415   1.411  63.411  0.4654  1.0027 -0.7157
 1328TIP3   OH225474   0.864   0.372  46.977 -0.2898 -0.3522  0.0963
 1328TIP3    H125475   0.792   0.436  46.973 -0.6036 -0.3405  3.3582
 1328TIP3    H225476   0.943   0.425  46.974 -0.4379 -0.1589 -0.9140
 1329TIP3   OH225477   1.672   1.327  57.537 -0.1395 -0.4813  0.1424
 1329TIP3    H125478   1.667   1.408  57.588 -1.5902  0.3473 -1.2216
 1329TIP3    H225479   1.599   1.274  57.570  0.2536 -0.8653  0.4047
 1330TIP3   OH225480   0.826   2.476  48.603 -0.0248  0.2119 -0.1560
 1330TIP3    H125481   0.781   2.546  48.556  2.1374  0.2643 -2.3370
 1330TIP3    H225482   0.758   2.410  48.619 -1.3791  1.3518 -1.0119
 1331TIP3   OH225483   1.282   2.560  10.702 -0.0179  0.0695  0.0670
 1331TIP3    H125484   1.226   2.500  10.752 -1.0155  1.2080  0.3685
 1331TIP3    H225485   1.356   2.506  10.674 -0.9670 -1.3418  0.1681
 1332TIP3   OH225486   2.951   1.484  45.205  0.0777 -0.0410 -0.1145
 1332TIP3    H125487   2.859   1.457  45.207 -0.2061  0.9034  1.6825
 1332TIP3    H225488   2.949   1.579  45.220  1.3655 -0.1076  0.6654
 1333TIP3   OH225489   0.005   1.128   6.801 -0.7648 -0.0665 -0.2750
 1333TIP3    H125490   0.083   1.135   6.746 -0.1376 -2.0168  0.3261
 1333TIP3    H225491  -0.057   1.079   6.747 -0.4696 -1.1975  0.4069
 1334TIP3   OH225492   1.530   3.338  13.791 -0.3044 -0.3702 -0.4166
 1334TIP3    H125493   1.503   3.333  13.882 -2.8780  0.4959 -1.0485
 1334TIP3    H225494   1.553   3.247  13.768 -3.4479 -1.4212  0.0910
 1335TIP3   OH225495   1.925   2.271  63.670 -0.6288 -0.3868 -0.3770
 1335TIP3    H125496   1.864   2.285  63.742 -0.7860 -2.8084  0.0405
 1335TIP3    H225497   1.881   2.311  63.594 -0.8853  1.3609  0.6232
 1336TIP3   OH225498   1.687   2.845   6.882  0.5233  0.3587 -0.0431
 1336TIP3    H125499   1.658   2.906   6.950 -0.2258 -0.6383  0.5551
 1336TIP3    H225500   1.690   2.760   6.926  0.1291 -0.2858 -1.2309
 1337TIP3   OH225501   2.902   3.048  60.270 -0.1222  0.2089  0.2655
 1337TIP3    H125502   2.818   3.010  60.244 -0.6416  0.9768  0.7785
 1337TIP3    H225503   2.966   2.979  60.252 -1.0876 -1.0997  1.6094
 1338TIP3   OH225504   2.180   2.595   9.540 -0.1873 -0.3330 -0.1233
 1338TIP3    H125505   2.155   2.596   9.448 -1.2929  1.2895  0.1550
 1338TIP3    H225506   2.106   2.552   9.584  1.8270 -4.4744 -0.2662
 1339TIP3   OH225507   2.458   1.748   6.922 -0.0955 -0.3820  0.0349
 1339TIP3    H125508   2.509   1.828   6.912 -0.7229  0.1547  1.0342
 1339TIP3    H225509   2.502   1.685   6.865  0.6046  0.5699 -0.5095
 1340TIP3   OH225510   2.503   2.192  49.218  0.0011 -0.0151 -0.2405
 1340TIP3    H125511   2.545   2.189  49.304  0.6244  0.5319 -0.5216
 1340TIP3    H225512   2.487   2.100  49.196 -0.3446 -0.1502  0.5464
 1341TIP3   OH225513   1.460   1.176  58.563  0.1747  0.2895  0.2212
 1341TIP3    H125514   1.412   1.180  58.480 -2.9214 -0.2329  1.8424
 1341TIP3    H225515   1.514   1.098  58.556  0.7665  0.8087 -1.6310
 1342TIP3   OH225516   1.228   2.123  15.334  0.2844 -0.0688 -0.6945
 1342TIP3    H125517   1.224   2.151  15.243 -2.3921  0.0241 -0.6253
 1342TIP3    H225518   1.150   2.067  15.346  0.9405 -0.6455  1.3485
 1343TIP3   OH225519   3.335   2.137   7.323  0.0676  0.1577  0.0931
 1343TIP3    H125520   3.403   2.137   7.391  0.8657 -0.1441 -0.6860
 1343TIP3    H225521   3.255   2.163   7.369  0.2397 -1.5986  1.4890
 1344TIP3   OH225522   3.187   0.579  16.651  0.2770 -0.1771  0.2169
 1344TIP3    H125523   3.280   0.598  16.666  1.0994 -1.2019 -2.7684
 1344TIP3    H225524   3.184   0.485  16.633 -1.1338  0.0314 -0.8295
 1345TIP3   OH225525   1.464   2.000  46.158 -0.8633 -0.5839 -0.2694
 1345TIP3    H125526   1.383   1.951  46.172 -0.2925 -2.3568 -2.6383
 1345TIP3    H225527   1.445   2.059  46.085 -0.7739  1.0272  0.9396
 1346TIP3   OH225528   2.987   1.772  64.023  0.6649  0.7374  0.4228
 1346TIP3    H125529   3.002   1.759  63.929  0.6845  0.3497  0.4791
 1346TIP3    H225530   2.904   1.729  64.040 -0.5043  2.7640  0.1476
 1347TIP3   OH225531   0.533   0.585  30.905 -0.0343  0.3792 -0.1626
 1347TIP3    H125532   0.456   0.636  30.931 -2.1499 -1.6078 -2.0897
 1347TIP3    H225533   0.560   0.539  30.984 -1.0148  0.8799  0.4762
 1348TIP3   OH225534   0.471   0.138  61.640  0.0753 -0.2537 -0.6101
 1348TIP3    H125535   0.537   0.189  61.593  1.7775 -0.0656  1.8046
 1348TIP3    H225536   0.462   0.058  61.588  1.0508  0.3773 -1.8274
 1349TIP3   OH225537   0.595   2.297  64.277 -0.3721 -0.0946  0.2978
 1349TIP3    H125538   0.635   2.365  64.223  0.1748 -0.1458  0.6237
 1349TIP3    H225539   0.572   2.341  64.359  1.9343 -0.6964  1.3690
 1350TIP3   OH225540   2.459   2.828  46.807  0.7003 -0.3040  0.2993
 1350TIP3    H125541   2.480   2.916  46.837  0.0573 -0.5891  1.6438
 1350TIP3    H225542   2.462   2.834  46.712  1.4965  0.9571  0.3807
 1351TIP3   OH225543   1.875   2.119  60.477  0.2951 -0.4426 -0.1917
 1351TIP3    H125544   1.884   2.163  60.392  2.0506  1.8567  1.0731
 1351TIP3    H225545   1.932   2.043  60.471  1.7517  0.6417 -0.5419
 1352TIP3   OH225546   2.308   0.760  44.897  0.1152  0.3550  0.9363
 1352TIP3    H125547   2.248   0.706  44.948 -0.2242 -0.8965 -0.7149
 1352TIP3    H225548   2.330   0.707  44.821  1.3784  1.7716  0.2490
 1353TIP3   OH225549   3.344   0.187  19.792  0.3299 -0.5837  0.0344
 1353TIP3    H125550   3.377   0.120  19.853 -0.0064  0.3250  1.2547
 1353TIP3    H225551   3.321   0.261  19.848 -2.6642 -0.7163 -0.8504
 1354TIP3   OH225552   1.128   0.948   9.925  0.1417  0.3538 -0.3637
 1354TIP3    H125553   1.134   0.967   9.831 -0.3259  0.1076 -0.4431
 1354TIP3    H225554   1.158   0.858   9.933  2.6826  1.1551  0.0523
 1355TIP3   OH225555   1.444   0.325  15.875  0.4660  0.0515 -0.4039
 1355TIP3    H125556   1.446   0.252  15.814 -2.0008  1.5476 -2.4944
 1355TIP3    H225557   1.393   0.293  15.950 -0.4768 -0.4228 -1.2320
 1356TIP3   OH225558   1.652   1.553   4.639 -0.3891 -0.1296 -0.0003
 1356TIP3    H125559   1.720   1.556   4.706 -1.2770 -1.7847  1.0396
 1356TIP3    H225560   1.577   1.598   4.679 -0.8480 -0.9166  0.0418
 1357TIP3   OH225561   3.326   1.748  48.891  0.0828  0.3605  0.0301
 1357TIP3    H125562   3.287   1.661  48.880  0.5407  0.3420 -1.7299
 1357TIP3    H225563   3.400   1.749  48.830  1.2364  1.3473  1.3602
 1358TIP3   OH225564   3.198   2.656  64.086  0.4610  0.6470  0.6783
 1358TIP3    H125565   3.121   2.672  64.141 -0.1036  2.3800 -0.5446
 1358TIP3    H225566   3.232   2.743  64.066 -0.2375  0.2352 -2.9422
 1359TIP3   OH225567   2.831   2.876  56.541  0.3608 -0.0097  0.2450
 1359TIP3    H125568   2.830   2.903  56.633  1.0463 -1.4773  0.7087
 1359TIP3    H225569   2.913   2.911  56.507  1.0380 -1.1085  0.7244
 1360TIP3   OH225570   2.708   1.427  20.704  0.1609 -0.0692  0.0175
 1360TIP3    H125571   2.754   1.439  20.787 -0.0417  1.4838 -0.0639
 1360TIP3    H225572   2.704   1.515  20.666  0.1415 -0.7272 -1.5838
 1361TIP3   OH225573   1.094   0.958  43.941 -0.3790  0.0064 -0.9591
 1361TIP3    H125574   1.134   0.872  43.925  0.7024  0.3751 -0.3539
 1361TIP3    H225575   1.138   1.016  43.879  1.2437  0.7330  0.8022
 1362TIP3   OH225576   3.331   0.821  65.829 -0.1776 -0.3688  0.1856
 1362TIP3    H125577   3.319   0.902  65.778  0.2416 -0.2850  0.2195
 1362TIP3    H225578   3.311   0.751  65.768 -2.9749 -0.2131  0.7687
 1363TIP3   OH225579   1.086   0.252  35.540  0.2883  0.0037 -0.1207
 1363TIP3    H125580   1.134   0.175  35.572  2.0089  1.2680  0.4455
 1363TIP3    H225581   1.010   0.258  35.598  0.6643 -0.6981  0.4584
 1364TIP3   OH225582   1.054   0.331  18.692  0.3650  0.2239  0.8063
 1364TIP3    H125583   1.096   0.252  18.659  0.4938  0.0830  1.3019
 1364TIP3    H225584   1.088   0.342  18.781 -0.7396  0.0229  1.2793
 1365TIP3   OH225585   1.879   0.072  18.023  0.8211 -0.3787  0.4324
 1365TIP3    H125586   1.892   0.090  18.116 -0.0494 -0.3990  0.5678
 1365TIP3    H225587   1.928  -0.008  18.006 -1.1647 -1.9129  1.5134
 1366TIP3   OH225588   0.671   0.335  61.567  0.6212  0.0773 -0.2334
 1366TIP3    H125589   0.755   0.363  61.603 -0.9687  2.6477  1.8227
 1366TIP3    H225590   0.679   0.353  61.473  2.8363 -1.2501 -0.3847
 1367TIP3   OH225591   1.793   1.573  55.667  0.2087  0.4318 -0.3027
 1367TIP3    H125592   1.787   1.669  55.674  1.8516  0.5803 -0.5784
 1367TIP3    H225593   1.831   1.546  55.751  0.2256  0.0725 -0.4261
 1368TIP3   OH225594   1.451   2.498  16.837 -0.2969 -0.0509 -0.3948
 1368TIP3    H125595   1.435   2.452  16.754 -2.6637 -0.0004 -0.0408
 1368TIP3    H225596   1.429   2.435  16.905  1.4229 -0.0202  0.2474
 1369TIP3   OH225597   3.380   3.247  21.765  0.0490  0.4532  0.0783
 1369TIP3    H125598   3.466   3.254  21.806  0.4255  0.7639 -0.7465
 1369TIP3    H225599   3.398   3.211  21.678 -0.3708  2.6215 -0.9826
 1370TIP3   OH225600   1.600   1.413  65.496  0.0367  0.6531  0.9675
 1370TIP3    H125601   1.506   1.421  65.481  0.1712 -0.8128 -0.9711
 1370TIP3    H225602   1.615   1.320  65.508  1.6097  0.4050 -1.9828
 1371TIP3   OH225603   0.488   3.100  58.313 -0.3073 -0.5817 -0.1457
 1371TIP3    H125604   0.458   3.188  58.334 -2.6053 -1.7890  2.2340
 1371TIP3    H225605   0.441   3.077  58.233  0.1695  0.2735 -0.6795
 1372TIP3   OH225606   3.089   0.146   1.840  0.0986 -0.0400 -0.1502
 1372TIP3    H125607   3.066   0.067   1.889 -2.2139 -0.3925 -1.6782
 1372TIP3    H225608   3.124   0.205   1.907 -0.0333 -1.6073  1.3883
 1373TIP3   OH225609   0.194   1.389  57.935  0.1420 -0.2831  0.6514
 1373TIP3    H125610   0.133   1.315  57.931 -1.5257  1.0818 -0.2598
 1373TIP3    H225611   0.280   1.348  57.930 -0.7127 -2.1817  0.2517
 1374TIP3   OH225612   0.628   2.900  13.002 -0.1760 -0.4188  0.2044
 1374TIP3    H125613   0.623   2.985  13.046 -1.2166 -0.5220  0.3139
 1374TIP3    H225614   0.689   2.914  12.929  1.5917 -0.2417  1.6336
 1375TIP3   OH225615   3.121   2.610  49.792  0.5728  0.2485 -0.4971
 1375TIP3    H125616   3.158   2.652  49.869  1.0692  1.5212 -1.3919
 1375TIP3    H225617   3.056   2.673  49.759 -1.7146 -1.4942  0.4598
 1376TIP3   OH225618   2.642   0.433  62.006  0.1475  0.6168 -0.0348
 1376TIP3    H125619   2.681   0.520  61.998  0.7637  0.2301 -1.8845
 1376TIP3    H225620   2.564   0.436  61.951 -1.2942  0.7359  1.9492
 1377TIP3   OH225621   1.366   2.955  10.647  0.3328  0.1168  0.1054
 1377TIP3    H125622   1.358   2.948  10.742  0.9253 -0.3021  0.1293
 1377TIP3    H225623   1.285   2.915  10.614  1.6298 -3.0635  0.3805
 1378TIP3   OH225624   0.365   1.530  66.927  0.4931  0.3052 -0.3182
 1378TIP3    H125625   0.330   1.483  66.851 -0.5469 -1.7622  1.3056
 1378TIP3    H225626   0.292   1.583  66.958  1.1526  1.7596 -1.1582
 1379TIP3   OH225627   1.362   2.435  19.986 -0.5953  0.3128 -0.0530
 1379TIP3    H125628   1.321   2.386  20.057 -0.4349 -0.4656 -0.4866
 1379TIP3    H225629   1.321   2.401  19.907  0.8552 -0.4692 -0.5010
 1380TIP3   OH225630   3.309   1.712  46.165  0.0920  0.2370 -0.6017
 1380TIP3    H125631   3.252   1.634  46.167 -0.6000  0.7550  0.8707
 1380TIP3    H225632   3.260   1.779  46.212  1.0327  1.3506 -1.1489
 1381TIP3   OH225633   2.972   2.362  16.231 -0.2925  0.0605  0.3344
 1381TIP3    H125634   2.883   2.394  16.242 -0.4249  0.5195 -1.7588
 1381TIP3    H225635   2.962   2.272  16.201 -0.0347 -0.0396  0.5410
 1382TIP3   OH225636   0.844   1.553  13.658  0.2354  0.2122  0.4656
 1382TIP3    H125637   0.777   1.487  13.641 -0.9000  1.9056 -2.3217
 1382TIP3    H225638   0.920   1.502  13.688 -0.9611 -2.2181 -0.3118
 1383TIP3   OH225639   2.226   1.621  47.953 -0.1818  0.2891  0.2168
 1383TIP3    H125640   2.154   1.566  47.984  0.1884 -0.6174 -0.4784
 1383TIP3    H225641   2.264   1.572  47.880  1.1260  0.7512  0.5488
 1384TIP3   OH225642   3.421   1.599  63.881 -0.0596  0.1484  0.0803
 1384TIP3    H125643   3.512   1.603  63.851  0.3141 -2.6856  0.5608
 1384TIP3    H225644   3.405   1.506  63.895 -3.1293  0.5428 -0.1941
 1385TIP3   OH225645   2.647   2.785  55.535 -0.0152 -0.4212 -0.0025
 1385TIP3    H125646   2.631   2.701  55.492 -1.7510 -1.1112  1.8432
 1385TIP3    H225647   2.595   2.782  55.615  0.5718  2.0769  0.5760
 1386TIP3   OH225648   1.788   3.125  54.702 -0.0940  0.3704  0.3555
 1386TIP3    H125649   1.862   3.184  54.716  2.2537 -2.3257  0.3842
 1386TIP3    H225650   1.759   3.103  54.790  0.1256  0.2401  0.3977
 1387TIP3   OH225651   3.048   2.753  66.319 -0.1560 -0.1579  0.3402
 1387TIP3    H125652   3.015   2.755  66.409  0.4072 -0.4859  0.5636
 1387TIP3    H225653   3.015   2.672  66.282  0.4798 -0.5451  0.6030
 1388TIP3   OH225654   2.168   2.763   6.533 -0.4157 -0.1713 -0.2448
 1388TIP3    H125655   2.212   2.828   6.589  0.4720 -1.5032  0.6737
 1388TIP3    H225656   2.111   2.715   6.593 -0.3914 -0.8088 -0.7206
 1389TIP3   OH225657   2.977   0.846  12.542  0.4436 -0.1559  0.6366
 1389TIP3    H125658   2.918   0.771  12.538  2.0833 -1.5068  0.9663
 1389TIP3    H225659   2.951   0.900  12.467 -1.2297 -0.6583  0.8011
 1390TIP3   OH225660   1.702   2.487  14.872 -0.1388 -0.3973  0.5175
 1390TIP3    H125661   1.670   2.467  14.960  0.7082 -1.2632  0.6366
 1390TIP3    H225662   1.783   2.536  14.886  0.2503 -0.9467  0.2295
 1391TIP3   OH225663   0.193   0.320  13.258 -0.4263 -0.0365  0.0254
 1391TIP3    H125664   0.225   0.402  13.220  0.1789  0.0809  0.7740
 1391TIP3    H225665   0.134   0.285  13.192 -0.5391  0.9068 -0.3904
 1392TIP3   OH225666   1.789   1.243  46.724 -0.2057 -0.1439  0.5277
 1392TIP3    H125667   1.757   1.331  46.746 -0.3804 -0.0432 -0.1224
 1392TIP3    H225668   1.715   1.201  46.680  0.3196 -0.1525 -0.3638
 1393TIP3   OH225669   1.889   0.328  21.373 -0.1410 -0.3916 -0.8705
 1393TIP3    H125670   1.929   0.287  21.450 -0.5939 -0.2755 -0.5682
 1393TIP3    H225671   1.915   0.420  21.378 -0.8805 -0.2028 -0.3777
 1394TIP3   OH225672   2.440   1.896   7.682  0.7546 -0.6171  0.0114
 1394TIP3    H125673   2.361   1.891   7.736 -0.3559 -2.0871 -1.6354
 1394TIP3    H225674   2.454   1.806   7.652  2.3262 -0.1474 -0.7791
 1395TIP3   OH225675   0.587   0.391  66.944 -0.1327 -0.5443 -0.1514
 1395TIP3    H125676   0.497   0.409  66.972  0.4846  0.7893  1.1100
 1395TIP3    H225677   0.587   0.413  66.851 -0.5698  1.8983  0.3408
 1396TIP3   OH225678   1.227   1.735  36.041 -0.5016  1.0288 -0.5497
 1396TIP3    H125679   1.287   1.763  35.972  0.7246 -0.0274  0.0562
 1396TIP3    H225680   1.208   1.643  36.021  0.8817  0.3201  1.1889
 1397TIP3   OH225681   0.403   1.168  17.256 -0.5702  0.8171 -0.0748
 1397TIP3    H125682   0.473   1.111  17.224 -1.3501 -0.8919  1.1377
 1397TIP3    H225683   0.440   1.211  17.333 -1.1892 -1.0839  1.3647
 1398TIP3   OH225684   1.749   3.008   9.987 -0.4056 -0.0491  0.3299
 1398TIP3    H125685   1.789   2.927   9.953 -2.4614 -0.8420 -0.3557
 1398TIP3    H225686   1.797   3.078   9.944  0.4176 -0.9321 -0.2446
 1399TIP3   OH225687   3.381   3.438   2.188  0.0959 -0.1461  0.3243
 1399TIP3    H125688   3.368   3.430   2.093 -0.4190  1.9208  0.1784
 1399TIP3    H225689   3.363   3.350   2.221  0.1795 -0.8938 -1.4766
 1400TIP3   OH225690   2.277   1.593  60.864  0.5692  0.0743 -0.3098
 1400TIP3    H125691   2.339   1.565  60.797 -0.9417  0.5061 -1.9493
 1400TIP3    H225692   2.191   1.577  60.826 -0.3430  1.8784  0.8519
 1401TIP3   OH225693   2.951   1.620   1.692 -0.4408  0.2284 -0.2241
 1401TIP3    H125694   2.923   1.560   1.623  0.0195  0.0522 -0.2621
 1401TIP3    H225695   2.905   1.589   1.770  1.1429 -1.3003  0.1587
 1402TIP3   OH225696   1.648   0.765  17.090  0.4288 -0.6425 -0.1084
 1402TIP3    H125697   1.743   0.780  17.083  0.0942  0.8903 -2.7602
 1402TIP3    H225698   1.609   0.848  17.063 -1.7358 -1.0370  1.5420
 1403TIP3   OH225699   0.202   1.079  48.244  0.7713 -0.0318 -0.3142
 1403TIP3    H125700   0.244   1.004  48.287  2.4342  1.7882  1.4762
 1403TIP3    H225701   0.274   1.125  48.201  0.2555  1.8189  0.6977
 1404TIP3   OH225702   1.487   3.442  15.215  0.2323  0.3001 -0.6564
 1404TIP3    H125703   1.527   3.481  15.293  0.4807  0.8721 -1.0728
 1404TIP3    H225704   1.415   3.501  15.192  1.0559  0.9162 -1.7139
 1405TIP3   OH225705   1.281   1.524  52.467 -0.0705  0.2380 -0.1059
 1405TIP3    H125706   1.310   1.433  52.478  1.6962  0.6750 -0.9083
 1405TIP3    H225707   1.190   1.523  52.496  0.3128 -1.4991  1.2286
 1406TIP3   OH225708   0.712   0.272  56.337  0.5842  0.1785  0.4719
 1406TIP3    H125709   0.778   0.239  56.275 -0.2052  0.9601 -0.8464
 1406TIP3    H225710   0.759   0.337  56.389  1.1871 -0.2613  0.4894
 1407TIP3   OH225711   0.962   2.151  65.169 -0.1481  0.9848 -0.6335
 1407TIP3    H125712   0.885   2.100  65.143 -0.7199 -0.0056  2.6202
 1407TIP3    H225713   0.928   2.216  65.231  1.2604  2.5606 -1.4120
 1408TIP3   OH225714   2.817   3.277   7.312  0.5569 -0.3809 -0.4877
 1408TIP3    H125715   2.736   3.225   7.312  0.4658 -0.2486 -0.9787
 1408TIP3    H225716   2.790   3.364   7.342  0.8089 -0.7480  0.8646
 1409TIP3   OH225717   2.343   2.101  66.824 -0.3957  0.2480  0.3551
 1409TIP3    H125718   2.281   2.166  66.857 -0.0187 -0.5421  2.7976
 1409TIP3    H225719   2.335   2.027  66.884  0.6927 -1.1342 -1.1164
 1410TIP3   OH225720   0.319   0.719   7.171 -0.2192  0.0671 -0.6034
 1410TIP3    H125721   0.226   0.698   7.158 -1.3948  2.6288  2.4255
 1410TIP3    H225722   0.354   0.643   7.217 -1.4876  0.0224  0.3458
 1411TIP3   OH225723   0.945   1.569  60.299 -0.2241  0.4536  1.0693
 1411TIP3    H125724   1.033   1.533  60.293 -0.6361 -0.4086 -0.3332
 1411TIP3    H225725   0.901   1.515  60.365  0.2573  0.8176  1.6953
 1412TIP3   OH225726   2.823   0.492  52.087 -0.1832 -0.1639 -0.4754
 1412TIP3    H125727   2.865   0.439  52.020 -0.9574  0.0780 -1.1649
 1412TIP3    H225728   2.815   0.434  52.163 -1.3643 -1.1797 -1.3381
 1413TIP3   OH225729   3.102   0.107   9.201  0.1134  0.2999 -0.0089
 1413TIP3    H125730   3.184   0.101   9.252 -0.2515 -0.5241  0.5024
 1413TIP3    H225731   3.039   0.055   9.251 -0.5059  0.2392 -0.8364
 1414TIP3   OH225732   1.537   2.463  66.014 -0.2697 -0.2775  0.6880
 1414TIP3    H125733   1.540   2.440  66.107  0.8572 -1.1885  0.4433
 1414TIP3    H225734   1.509   2.384  65.970 -0.5615  0.0833  0.2168
 1415TIP3   OH225735   2.363   2.125  64.955  0.2044  0.3313 -0.5157
 1415TIP3    H125736   2.315   2.135  65.037 -0.5050  0.3813 -0.9264
 1415TIP3    H225737   2.411   2.207  64.945  0.0089  0.4688 -0.3355
 1416TIP3   OH225738   0.804   3.302  50.019  0.5475  0.6535  0.1672
 1416TIP3    H125739   0.744   3.291  50.093 -1.1380  1.4518 -1.0013
 1416TIP3    H225740   0.750   3.283  49.942  1.3070  3.0719 -1.0573
 1417TIP3   OH225741   3.349   1.258  47.794  0.2043 -0.1189 -0.8478
 1417TIP3    H125742   3.404   1.324  47.753  1.5972 -0.9097 -0.3097
 1417TIP3    H225743   3.387   1.174  47.768  0.8877 -0.6696  1.5968
 1418TIP3   OH225744   0.290   1.082  43.575  0.6680  0.0249 -0.2145
 1418TIP3    H125745   0.369   1.110  43.620  1.0638 -0.2109 -0.7450
 1418TIP3    H225746   0.283   0.989  43.593  1.4325 -0.3129 -1.4939
 1419TIP3   OH225747   0.340   2.721  16.644 -0.5870  0.2856  0.2851
 1419TIP3    H125748   0.391   2.640  16.642  0.8698  1.1835 -1.4675
 1419TIP3    H225749   0.250   2.692  16.628  0.0871 -0.9273 -1.7511
 1420TIP3   OH225750   2.466   1.810  50.376  0.5821  0.1639  0.0991
 1420TIP3    H125751   2.406   1.873  50.417 -0.5307 -1.3132  0.8214
 1420TIP3    H225752   2.494   1.853  50.295 -0.4239  1.4256  0.3868
 1421TIP3   OH225753   1.883   1.333  14.540 -0.1366 -0.2571 -0.5703
 1421TIP3    H125754   1.975   1.330  14.515  0.1780  0.5200  0.4423
 1421TIP3    H225755   1.882   1.307  14.632 -0.9091 -0.1388 -0.5409
 1422TIP3   OH225756   0.539   3.084  10.772  0.0608  0.4733 -0.0725
 1422TIP3    H125757   0.484   3.095  10.695 -3.8157  0.9387  2.5048
 1422TIP3    H225758   0.555   2.990  10.778 -0.0592  0.3783 -1.1062
 1423TIP3   OH225759   0.244   0.797  47.039 -0.1945  0.3531  0.4904
 1423TIP3    H125760   0.273   0.717  46.995  0.7583  0.9765 -0.0635
 1423TIP3    H225761   0.261   0.781  47.132  0.1873 -0.0091  0.3607
 1424TIP3   OH225762   3.350   1.882   1.885 -0.0336  0.2429 -0.1830
 1424TIP3    H125763   3.334   1.810   1.823 -1.8672  0.4691 -0.0236
 1424TIP3    H225764   3.358   1.839   1.970 -0.0809  0.1398 -0.2302
 1425TIP3   OH225765   3.061   0.609   6.456  0.4579  0.0421 -0.7597
 1425TIP3    H125766   3.118   0.542   6.418  1.4169  0.7262 -0.5568
 1425TIP3    H225767   3.026   0.656   6.380 -0.6648 -1.0143 -0.9319
 1426TIP3   OH225768   1.295   2.971  48.011  0.5382 -0.0449  0.4218
 1426TIP3    H125769   1.288   3.064  48.031 -2.5442  0.0179 -0.4926
 1426TIP3    H225770   1.329   2.968  47.922  1.6431  0.1282  0.8209
 1427TIP3   OH225771   0.657   0.994   8.809 -0.2185  0.1702 -0.1358
 1427TIP3    H125772   0.635   1.022   8.720  1.3516 -1.0579 -0.9920
 1427TIP3    H225773   0.603   0.917   8.824  0.1230 -0.1255 -0.3922
 1428TIP3   OH225774   0.735   1.133  49.361  0.4178 -0.3205 -0.4114
 1428TIP3    H125775   0.739   1.126  49.265  1.7069 -1.7324 -0.2867
 1428TIP3    H225776   0.770   1.220  49.380 -0.2950  0.1602 -1.2414
 1429TIP3   OH225777   1.984   0.953  12.293 -0.0602 -0.5766 -0.7953
 1429TIP3    H125778   2.051   0.888  12.311 -0.6265 -1.3008 -1.2216
 1429TIP3    H225779   1.903   0.902  12.285 -0.5638  0.2130 -0.8363
 1430TIP3   OH225780   2.985   0.806  42.777 -0.0283 -0.3565  0.0310
 1430TIP3    H125781   3.004   0.744  42.848  0.8870  0.1673  0.2491
 1430TIP3    H225782   3.068   0.848  42.758 -0.4055  0.0103 -0.8981
 1431TIP3   OH225783   1.026   2.600  47.154 -0.2960  0.3087  0.2500
 1431TIP3    H125784   1.121   2.609  47.161 -0.2915  0.8830 -0.4698
 1431TIP3    H225785   1.013   2.530  47.090 -0.3652 -1.1716  1.8197
 1432TIP3   OH225786   2.976   2.126   9.594  0.3325  0.0852  0.3528
 1432TIP3    H125787   2.903   2.087   9.641  0.4921  0.0591  0.5795
 1432TIP3    H225788   2.996   2.064   9.524 -0.4439  0.5136 -0.2646
 1433TIP3   OH225789   3.073   1.667  56.220 -0.1276 -0.2283  0.0186
 1433TIP3    H125790   3.037   1.580  56.239  1.5175 -1.2401 -1.2069
 1433TIP3    H225791   3.146   1.676  56.280 -0.3404  0.3535  0.1917
 1434TIP3   OH225792   2.175   0.286  26.323  0.0312  0.3314 -0.1791
 1434TIP3    H125793   2.099   0.333  26.287 -0.1371  0.1961 -0.0018
 1434TIP3    H225794   2.249   0.345  26.307 -0.1121  0.4669 -0.3478
 1435TIP3   OH225795   1.087   0.375  67.455 -0.4197  0.3265  0.3324
 1435TIP3    H125796   1.167   0.322  67.460  0.1150  1.2140  2.3149
 1435TIP3    H225797   1.067   0.380  67.362  1.3925 -0.5791 -0.1542
 1436TIP3   OH225798   2.807   1.057  59.630 -0.8115 -0.0277  0.3044
 1436TIP3    H125799   2.793   0.962  59.637 -1.3052 -0.0430 -0.7194
 1436TIP3    H225800   2.726   1.090  59.590  0.0499  0.5877 -0.9887
 1437TIP3   OH225801   2.248   1.787  15.604  0.4310 -0.1573  0.1283
 1437TIP3    H125802   2.184   1.859  15.601  0.5623  0.0650  1.7405
 1437TIP3    H225803   2.309   1.813  15.673  1.6044 -0.9205 -0.6034
 1438TIP3   OH225804   0.697   2.147   0.785  0.4787  0.3255  0.1446
 1438TIP3    H125805   0.790   2.127   0.782  0.3316 -0.3617 -0.0694
 1438TIP3    H225806   0.658   2.074   0.833  0.2452  1.4099  1.6707
 1439TIP3   OH225807   0.484   0.144  11.177  0.6907 -0.2912 -0.0183
 1439TIP3    H125808   0.399   0.163  11.138  0.3910  0.3073  0.8943
 1439TIP3    H225809   0.467   0.073  11.239  0.9068 -0.3266  0.0037
 1440TIP3   OH225810   1.677   2.800  51.139  0.1020  0.5743 -0.0145
 1440TIP3    H125811   1.655   2.740  51.069  1.0783  0.1421  0.0290
 1440TIP3    H225812   1.773   2.798  51.143  0.0720  0.7569  1.1755
 1441TIP3   OH225813   1.129   0.207   4.725 -0.4566 -0.0167 -0.4088
 1441TIP3    H125814   1.217   0.172   4.709 -1.2486 -1.1110 -2.7835
 1441TIP3    H225815   1.120   0.205   4.821  2.2548  0.6217 -0.0456
 1442TIP3   OH225816   2.234   0.660  59.327 -0.0591 -0.2716  0.2587
 1442TIP3    H125817   2.319   0.703  59.340  0.2047 -1.0713  1.3607
 1442TIP3    H225818   2.255   0.572  59.299 -0.5062 -0.5785  0.8527
 1443TIP3   OH225819   1.656   2.960   4.292  0.4007 -0.4465 -0.0798
 1443TIP3    H125820   1.657   2.943   4.198  1.5822 -0.0815 -0.1441
 1443TIP3    H225821   1.716   3.033   4.305 -1.2028  0.8024  0.7470
 1444TIP3   OH225822   1.672   1.476  57.054 -0.2601 -0.1114  0.7647
 1444TIP3    H125823   1.632   1.408  57.000  1.4872 -1.8611  1.5494
 1444TIP3    H225824   1.700   1.430  57.133  0.9366  1.5443  1.3453
 1445TIP3   OH225825   2.379   0.458  57.624  0.0398 -0.3202 -0.4307
 1445TIP3    H125826   2.389   0.522  57.695 -0.2686 -1.1439  0.3759
 1445TIP3    H225827   2.302   0.489  57.576  0.0596  0.0679 -0.2224
 1446TIP3   OH225828   3.015   0.439   9.690 -0.3853 -0.6202  0.2823
 1446TIP3    H125829   3.059   0.524   9.689  0.1986 -0.9014 -1.0898
 1446TIP3    H225830   3.023   0.409   9.780 -0.3361  0.6449  0.7219
 1447TIP3   OH225831   1.861   2.639  57.169 -0.6430  0.2071 -0.2088
 1447TIP3    H125832   1.918   2.611  57.097  2.3864 -0.0553  2.0818
 1447TIP3    H225833   1.853   2.562  57.225 -0.0175  1.2622  1.4231
 1448TIP3   OH225834   2.240   2.962  65.100 -0.1538 -0.4378 -0.4016
 1448TIP3    H125835   2.233   2.914  65.017  0.2131 -1.3205  0.0687
 1448TIP3    H225836   2.310   2.918  65.147 -0.3606  0.0611  0.3875
 1449TIP3   OH225837   0.649   2.671   6.954  0.4717 -0.0985 -0.0544
 1449TIP3    H125838   0.714   2.708   6.894  0.8918  0.5695  0.7949
 1449TIP3    H225839   0.644   2.734   7.025  0.2483 -1.0635  0.8019
 1450TIP3   OH225840   2.734   3.442  58.762 -0.0851  0.2282  0.1539
 1450TIP3    H125841   2.746   3.472  58.852 -0.1592  0.8138 -0.0311
 1450TIP3    H225842   2.820   3.452  58.721  0.9106 -3.2210  1.0609
 1451TIP3   OH225843   2.472   0.434  67.499  0.8364 -0.2330  0.4253
 1451TIP3    H125844   2.542   0.378  67.533 -2.0199 -2.7897  2.6585
 1451TIP3    H225845   2.404   0.373  67.471 -1.6898  2.0698  1.1301
 1452TIP3   OH225846   2.940   3.099  48.649  0.1436  0.1175  0.2316
 1452TIP3    H125847   3.005   3.077  48.583 -0.2959 -2.1007  0.4701
 1452TIP3    H225848   2.990   3.125  48.725  0.6705  1.5275 -0.5616
 1453TIP3   OH225849   0.299   1.202  16.995 -0.0729 -0.1141  0.3886
 1453TIP3    H125850   0.212   1.238  17.015  0.2532  0.7734  0.2635
 1453TIP3    H225851   0.332   1.172  17.080 -0.0213  0.6456  0.6436
 1454TIP3   OH225852   2.279   3.053  47.995  0.0349 -0.4346 -0.1586
 1454TIP3    H125853   2.205   3.079  48.049  0.5669  0.8868 -0.0253
 1454TIP3    H225854   2.354   3.097  48.034  0.5400 -0.0052 -1.5442
 1455TIP3   OH225855   2.184   1.223  21.559  0.1628 -0.0611 -0.1592
 1455TIP3    H125856   2.241   1.242  21.634  0.2146  0.2109 -0.2695
 1455TIP3    H225857   2.101   1.194  21.599  0.6388 -1.2642  0.0009
 1456TIP3   OH225858   3.031   1.905  19.806  0.0696  0.1791 -0.1417
 1456TIP3    H125859   2.962   1.846  19.837  0.3687 -0.0047  0.1822
 1456TIP3    H225860   3.017   1.911  19.712 -1.1162  1.0726  0.0604
 1457TIP3   OH225861   2.628   2.289  65.227  0.3216 -0.0375  0.3993
 1457TIP3    H125862   2.676   2.298  65.309  1.4521  1.4151 -0.3729
 1457TIP3    H225863   2.690   2.247  65.167 -0.5324 -1.1980  0.2877
 1458TIP3   OH225864   0.392   2.560  64.629  0.1444 -0.1951  0.1212
 1458TIP3    H125865   0.311   2.527  64.591  0.4248 -1.1656  0.3352
 1458TIP3    H225866   0.451   2.485  64.628  1.0377  0.4944 -0.0133
 1459TIP3   OH225867   0.602   1.606  13.843 -0.4489  0.2631  0.2225
 1459TIP3    H125868   0.615   1.664  13.768 -0.1131 -1.8046 -1.4041
 1459TIP3    H225869   0.651   1.527  13.820 -3.1622 -1.7752  1.0514
 1460TIP3   OH225870   2.254   2.827  27.167 -0.4904  0.0341 -0.6778
 1460TIP3    H125871   2.203   2.899  27.206  1.6619  0.6358  1.2434
 1460TIP3    H225872   2.230   2.828  27.075 -3.0099  1.0377 -0.0962
 1461TIP3   OH225873   2.821   1.513  50.615  0.4766 -0.2979  0.4914
 1461TIP3    H125874   2.776   1.592  50.584  1.5555 -0.5797 -1.9781
 1461TIP3    H225875   2.839   1.532  50.707 -2.3398  0.8700  0.9223
 1462TIP3   OH225876   2.748   2.343   5.368 -0.0473  0.2913 -0.4114
 1462TIP3    H125877   2.697   2.337   5.449  1.2652 -0.0467  0.4326
 1462TIP3    H225878   2.839   2.348   5.398  0.6190 -1.6461 -1.8659
 1463TIP3   OH225879   1.040   2.799  57.311  0.3214 -0.0503 -0.0557
 1463TIP3    H125880   1.032   2.860  57.384  1.6299 -0.5874  0.5719
 1463TIP3    H225881   0.992   2.840  57.240  2.1810  2.3218 -0.0517
 1464TIP3   OH225882   0.978   3.308   9.116  0.2470  0.4196 -0.1321
 1464TIP3    H125883   0.952   3.399   9.131 -1.6318 -0.3970  2.2140
 1464TIP3    H225884   1.064   3.315   9.075 -0.6687  3.2383 -1.8682
 1465TIP3   OH225885   0.482   2.754  45.866  0.1960  0.3977  0.3831
 1465TIP3    H125886   0.504   2.688  45.932 -0.7976  1.4941  1.8927
 1465TIP3    H225887   0.442   2.705  45.795  0.9235 -0.7856  0.7492
 1466TIP3   OH225888   0.832   2.538  56.468 -0.0485 -0.2856 -0.1285
 1466TIP3    H125889   0.820   2.484  56.389  0.6802  0.5493 -0.8388
 1466TIP3    H225890   0.901   2.494  56.517 -0.6819 -0.9491  0.1782
 1467TIP3   OH225891   2.521   0.326  19.823 -0.4946  0.6755 -0.3026
 1467TIP3    H125892   2.514   0.302  19.915 -0.1898  0.3650 -0.3563
 1467TIP3    H225893   2.432   0.315  19.788 -0.5570  0.5401 -0.1042
 1468TIP3   OH225894   0.100   0.585  20.414  0.4589  0.3145 -0.1247
 1468TIP3    H125895   0.112   0.653  20.347  2.0327  0.8917  0.6781
 1468TIP3    H225896   0.124   0.504  20.370  0.0822  0.4861 -0.6599
 1469TIP3   OH225897   2.539   3.333  50.039 -0.7473 -0.1386  0.3907
 1469TIP3    H125898   2.624   3.289  50.036 -1.7487 -2.1902  0.1418
 1469TIP3    H225899   2.506   3.327  49.949 -0.9675  1.0593  0.3809
 1470TIP3   OH225900   2.659   3.171  17.021 -0.2020  0.2708 -0.2311
 1470TIP3    H125901   2.568   3.200  17.022 -0.5031 -0.6432  1.4358
 1470TIP3    H225902   2.708   3.246  17.057 -0.0470  1.3637 -2.5578
 1471TIP3   OH225903   0.686   2.647  47.504 -0.4123  0.5744  0.1750
 1471TIP3    H125904   0.744   2.658  47.429 -0.4049 -0.9161 -0.0615
 1471TIP3    H225905   0.687   2.732  47.548  0.4771  1.1224 -0.8656
 1472TIP3   OH225906   2.527   0.466  57.966  0.9835  0.0313  0.1232
 1472TIP3    H125907   2.586   0.485  57.893  0.6148  0.3346 -0.1028
 1472TIP3    H225908   2.454   0.527  57.954  0.6463 -0.3069  0.4221
 1473TIP3   OH225909   1.901   3.205   9.585  0.4384  0.4080  0.1755
 1473TIP3    H125910   1.984   3.174   9.620  0.4026 -0.0060 -0.1011
 1473TIP3    H225911   1.850   3.230   9.663 -0.2782 -2.0805  0.5931
 1474TIP3   OH225912   2.398   0.983  10.380  0.0171 -0.1293  0.8893
 1474TIP3    H125913   2.320   0.930  10.393 -0.6262  0.5807  0.0196
 1474TIP3    H225914   2.392   1.012  10.289  1.5056 -0.3956  0.6815
 1475TIP3   OH225915   1.339   0.509  14.203  0.1278  0.3143 -0.0312
 1475TIP3    H125916   1.311   0.554  14.123 -1.6837  1.0837  0.9902
 1475TIP3    H225917   1.283   0.431  14.208  2.0552 -1.2330 -0.8558
 1476TIP3   OH225918   0.588   0.722  53.037  0.4233 -0.3434 -0.1042
 1476TIP3    H125919   0.625   0.792  53.092  0.9338  0.0841 -0.9773
 1476TIP3    H225920   0.499   0.752  53.016  0.1564 -0.5961  0.6252
 1477TIP3   OH225921   3.268   2.265  12.656  0.2649 -0.4319  0.3446
 1477TIP3    H125922   3.342   2.205  12.645  0.3017 -0.3417  0.1188
 1477TIP3    H225923   3.232   2.242  12.742  1.8940  1.0024  1.4794
 1478TIP3   OH225924   1.658   0.149   4.411  0.0464  0.0645  0.1080
 1478TIP3    H125925   1.630   0.067   4.450 -0.1218  0.5610  1.0584
 1478TIP3    H225926   1.711   0.123   4.335 -0.0317 -0.9098  0.3767
 1479TIP3   OH225927   2.288   2.359   8.227  0.4493  0.0444 -0.2134
 1479TIP3    H125928   2.215   2.318   8.181  1.7158  0.4787 -2.7528
 1479TIP3    H225929   2.247   2.413   8.295 -1.4478 -1.3714 -0.1570
 1480TIP3   OH225930   3.000   0.367  22.305 -0.2456 -0.8112 -0.2294
 1480TIP3    H125931   3.085   0.333  22.334 -0.0153  0.5763  0.8392
 1480TIP3    H225932   2.990   0.449  22.353 -2.5300 -1.2994  0.2502
 1481TIP3   OH225933   3.377   1.324  30.267  0.2043  0.2053 -0.7658
 1481TIP3    H125934   3.371   1.357  30.357 -1.1367 -0.0306 -0.7442
 1481TIP3    H225935   3.444   1.256  30.271 -0.2221 -0.1794  0.1928
 1482TIP3   OH225936   0.846   3.196  46.015  0.4052 -0.1901 -0.5475
 1482TIP3    H125937   0.911   3.208  46.084 -0.8981  1.8101  0.4494
 1482TIP3    H225938   0.795   3.119  46.042 -0.8016  1.2104  1.4174
 1483TIP3   OH225939   1.715   0.691  55.352 -0.3867 -0.6328 -0.0914
 1483TIP3    H125940   1.753   0.613  55.311 -0.6591 -1.1690  0.6628
 1483TIP3    H225941   1.780   0.760  55.339 -0.7038 -0.6264 -1.9351
 1484TIP3   OH225942   0.964   0.963  15.317 -0.6227 -0.2546  0.3686
 1484TIP3    H125943   1.040   0.905  15.318  0.2974  0.8846 -0.8027
 1484TIP3    H225944   0.913   0.936  15.240 -0.0068  0.6871 -0.3888
 1485TIP3   OH225945   0.512   2.471   4.508  0.3032 -0.1399 -0.6750
 1485TIP3    H125946   0.489   2.561   4.487 -0.4672 -0.3175 -0.6339
 1485TIP3    H225947   0.476   2.419   4.436 -1.4252 -0.6451  0.4812
 1486TIP3   OH225948   0.373   0.820  15.149 -0.8265  0.1480 -0.1606
 1486TIP3    H125949   0.308   0.779  15.207 -0.2889 -0.5376 -0.0223
 1486TIP3    H225950   0.451   0.766  15.159 -0.9893 -0.5712 -2.2322
 1487TIP3   OH225951   0.815   1.110  20.112  0.0658 -0.0753  0.9044
 1487TIP3    H125952   0.765   1.129  20.033  1.9087 -0.1430 -0.3403
 1487TIP3    H225953   0.777   1.168  20.179 -0.2938  1.4120 -0.5122
 1488TIP3   OH225954   3.106   0.057   2.939 -0.3515 -0.2231  0.2599
 1488TIP3    H125955   3.167   0.109   2.991 -0.8260  0.9337 -0.2958
 1488TIP3    H225956   3.023   0.105   2.944 -1.2462 -1.7755  1.0252
 1489TIP3   OH225957   3.308   2.827  47.748 -0.2526  0.5282 -0.4407
 1489TIP3    H125958   3.223   2.783  47.744  0.1778 -0.2836 -1.0200
 1489TIP3    H225959   3.288   2.914  47.783 -1.1323 -0.0918  0.6869
 1490TIP3   OH225960   0.667   1.192  15.540  0.1262  0.6822 -0.1856
 1490TIP3    H125961   0.672   1.098  15.555 -0.8825  0.8011  1.0582
 1490TIP3    H225962   0.754   1.216  15.508  0.5830 -0.5751  0.0681
 1491TIP3   OH225963   2.661   0.511  63.893  0.2401 -0.4036  0.3166
 1491TIP3    H125964   2.585   0.503  63.835  1.0403 -0.8533 -0.6940
 1491TIP3    H225965   2.691   0.601  63.881  0.1038 -0.3409  0.4347
 1492TIP3   OH225966   0.289   1.542  51.817 -0.1119 -0.0728 -0.4853
 1492TIP3    H125967   0.295   1.528  51.912  1.3440 -0.1319 -0.5635
 1492TIP3    H225968   0.334   1.467  51.779  1.5963  1.2121 -1.1225
 1493TIP3   OH225969   1.757   1.410  64.182  0.3662  0.0210  0.1290
 1493TIP3    H125970   1.832   1.469  64.195 -0.7949  1.8452 -1.1108
 1493TIP3    H225971   1.687   1.447  64.235  0.0393 -1.1284  0.5286
 1494TIP3   OH225972   0.827   1.122  16.494 -0.0475 -0.0631 -0.3719
 1494TIP3    H125973   0.869   1.141  16.578 -0.6502  1.4264 -0.3834
 1494TIP3    H225974   0.798   1.031  16.503  1.9352 -0.7136  0.1376
 1495TIP3   OH225975   3.167   2.006  10.834 -0.4608 -0.4725 -0.0267
 1495TIP3    H125976   3.198   2.074  10.892 -1.9503  1.0479 -0.9180
 1495TIP3    H225977   3.125   1.942  10.892  0.2716 -0.2669  0.7445
 1496TIP3   OH225978   1.041   0.204  58.293 -0.7410 -0.2379 -0.5014
 1496TIP3    H125979   1.060   0.278  58.351 -1.6515  0.1188 -0.6502
 1496TIP3    H225980   1.122   0.192  58.244 -0.5087  0.5232 -0.3250
 1497TIP3   OH225981   0.584   3.248  39.232 -0.2750  0.1156 -0.0146
 1497TIP3    H125982   0.539   3.238  39.316  0.4470  1.1813  0.5141
 1497TIP3    H225983   0.672   3.216  39.247 -0.7650 -1.8630 -1.0292
 1498TIP3   OH225984   2.049   2.914   7.826 -0.8896 -0.2456  0.4574
 1498TIP3    H125985   2.137   2.875   7.822 -1.4812 -1.5500 -0.7953
 1498TIP3    H225986   2.015   2.905   7.737 -3.2305 -2.0824  1.4379
 1499TIP3   OH225987   1.754   2.020  62.920 -0.3647  0.4842  0.2052
 1499TIP3    H125988   1.819   2.038  62.851 -0.4593  0.6222  0.1503
 1499TIP3    H225989   1.682   2.080  62.900 -0.4689  0.3977  0.3226
 1500TIP3   OH225990   0.884   2.190  35.148  0.4136  0.4568 -0.4128
 1500TIP3    H125991   0.871   2.097  35.167 -2.2675  0.9011  0.4630
 1500TIP3    H225992   0.901   2.230  35.233 -2.2822  1.1929 -0.1069
 1501TIP3   OH225993   1.831   3.300  53.776 -0.1087 -0.0730 -0.1503
 1501TIP3    H125994   1.887   3.336  53.707  0.6902  0.4733  0.7651
 1501TIP3    H225995   1.770   3.243  53.729  0.3799  0.3252 -1.3175
 1502TIP3   OH225996   0.237   2.157  50.546 -0.1418 -0.4941  0.3039
 1502TIP3    H125997   0.301   2.206  50.494  0.8974 -0.8529  1.2031
 1502TIP3    H225998   0.280   2.144  50.631 -0.9704 -1.7107  0.5663
 1503TIP3   OH225999   2.384   0.355  64.178 -0.1184 -0.3908 -0.0247
 1503TIP3    H126000   2.462   0.401  64.210 -1.2696  1.8509 -0.2322
 1503TIP3    H226001   2.314   0.384  64.237 -1.7243  1.6088 -2.7055
 1504TIP3   OH226002   1.164   1.353   5.623  0.5867  0.4126 -0.5434
 1504TIP3    H126003   1.145   1.445   5.641  0.7623  0.2554  0.5001
 1504TIP3    H226004   1.120   1.305   5.693 -0.0562 -0.3530 -1.4443
 1505TIP3   OH226005   2.304   2.178  54.292  0.1391 -0.1743  0.3916
 1505TIP3    H126006   2.245   2.253  54.300  0.8178  0.5185 -0.7548
 1505TIP3    H226007   2.248   2.105  54.265 -0.2476  0.4098 -0.4210
 1506TIP3   OH226008   0.391   3.381  11.314  0.1330 -0.6072  0.2103
 1506TIP3    H126009   0.428   3.381  11.402  0.7429 -2.6293 -0.0098
 1506TIP3    H226010   0.436   3.310  11.268 -1.2301 -0.5704 -1.2785
 1507TIP3   OH226011   2.559   2.591  27.200 -0.3698 -0.5100  0.4040
 1507TIP3    H126012   2.653   2.580  27.213 -0.1384 -0.8374 -1.3197
 1507TIP3    H226013   2.552   2.666  27.140 -1.1154 -1.2648 -0.4828
 1508TIP3   OH226014   1.023   2.732   5.584  0.5315  0.1322 -0.6025
 1508TIP3    H126015   1.049   2.708   5.495  0.7493 -1.7914 -0.0524
 1508TIP3    H226016   0.927   2.726   5.583  0.5159  0.3835 -0.7695
 1509TIP3   OH226017   3.015   0.758  59.921  0.4422  0.0093  0.7266
 1509TIP3    H126018   3.090   0.753  59.981 -0.4628 -2.1387  1.7853
 1509TIP3    H226019   2.974   0.672  59.928 -1.6174  0.8420 -0.5082
 1510TIP3   OH226020   2.628   0.486   2.795 -0.1641  0.0468 -0.1911
 1510TIP3    H126021   2.641   0.468   2.702 -0.1718  0.0525 -0.1933
 1510TIP3    H226022   2.624   0.399   2.835  0.6168  0.0470 -0.0943
 1511TIP3   OH226023   2.206   0.126  44.675 -0.3969  0.2574 -0.2267
 1511TIP3    H126024   2.162   0.134  44.759  0.1323  0.4137  0.0463
 1511TIP3    H226025   2.181   0.040  44.642 -0.0165 -0.1208  0.4492
 1512TIP3   OH226026   1.484   0.425  14.952 -0.3613  0.3461 -0.6647
 1512TIP3    H126027   1.405   0.408  14.900  0.4776  0.3212 -1.9792
 1512TIP3    H226028   1.556   0.400  14.894  0.6233  0.5209  0.4581
 1513TIP3   OH226029   0.375   0.607  43.808 -0.3307 -0.3205  0.2308
 1513TIP3    H126030   0.414   0.606  43.721 -1.0503  1.9044 -0.1738
 1513TIP3    H226031   0.449   0.612  43.868  0.1489 -1.2840 -0.2577
 1514TIP3   OH226032   0.518   2.595  21.630 -0.4104 -0.4897 -0.3001
 1514TIP3    H126033   0.587   2.529  21.636 -0.5598 -0.7242 -0.9888
 1514TIP3    H226034   0.552   2.671  21.677  0.9528 -0.0860 -1.8449
 1515TIP3   OH226035   1.969   1.579  14.969  0.2920 -0.1126  0.0054
 1515TIP3    H126036   1.931   1.656  14.926  0.1604 -0.2393 -0.1036
 1515TIP3    H226037   2.006   1.614  15.050  1.7195  0.3707 -0.8179
 1516TIP3   OH226038   2.670   3.282  53.902  0.1373 -0.1484  0.3902
 1516TIP3    H126039   2.735   3.349  53.878  2.3562 -0.8628  3.7437
 1516TIP3    H226040   2.692   3.207  53.848  0.7580  0.3024  0.0014
 1517TIP3   OH226041   0.007   1.643  62.867 -0.0181 -0.1806 -0.7503
 1517TIP3    H126042  -0.006   1.724  62.816 -0.7203  0.0170 -0.2703
 1517TIP3    H226043   0.041   1.580  62.803  0.6156  0.5098 -1.1130
 1518TIP3   OH226044   1.228   2.444  48.169 -0.0626  0.1889 -0.4024
 1518TIP3    H126045   1.310   2.403  48.197  0.2784  0.1043 -1.4812
 1518TIP3    H226046   1.256   2.518  48.115 -0.6826  1.3652  0.8357
 1519TIP3   OH226047   3.332   0.498   9.899 -0.1628 -0.3816 -0.3121
 1519TIP3    H126048   3.412   0.507   9.951  0.3181 -0.5921 -1.0060
 1519TIP3    H226049   3.363   0.475   9.811 -0.9166  1.0970 -0.9860
 1520TIP3   OH226050   1.969   1.329   3.520  0.5646 -0.1494 -0.0051
 1520TIP3    H126051   2.034   1.259   3.525  0.6596  0.0224  1.7355
 1520TIP3    H226052   2.015   1.406   3.555 -0.2690  0.2086  0.3208
 1521TIP3   OH226053   0.709   2.009  21.171  0.1719  0.4863  0.0412
 1521TIP3    H126054   0.773   1.947  21.137 -0.3795 -0.8367  1.3195
 1521TIP3    H226055   0.634   2.001  21.112  0.3248  0.3748 -0.1386
 1522TIP3   OH226056   0.422   2.380  67.390 -0.0709  0.1824  0.5115
 1522TIP3    H126057   0.344   2.326  67.390 -0.2131  0.3874 -0.1497
 1522TIP3    H226058   0.419   2.428  67.308 -0.3901  1.8289  1.4308
 1523TIP3   OH226059   2.166   3.002  18.158 -0.0482  0.2055  0.1413
 1523TIP3    H126060   2.233   3.062  18.125 -1.0933  1.3395  0.0157
 1523TIP3    H226061   2.159   2.936  18.089  2.2525 -1.0593  0.9904
 1524TIP3   OH226062   2.459   1.133  67.374 -0.2252 -0.2765  0.2395
 1524TIP3    H126063   2.472   1.210  67.430  1.7155 -1.1746  1.0783
 1524TIP3    H226064   2.455   1.059  67.435 -0.2531 -1.0474 -0.6827
 1525TIP3   OH226065   0.660   0.738  15.226 -0.4987 -0.5458  0.1707
 1525TIP3    H126066   0.639   0.779  15.309  0.4867 -0.7661  0.5466
 1525TIP3    H226067   0.750   0.707  15.237  0.5676  1.5433 -1.7953
 1526TIP3   OH226068   1.323   2.880  16.762  0.4964 -0.0370 -0.0767
 1526TIP3    H126069   1.375   2.839  16.692 -0.4358  0.0037 -0.8182
 1526TIP3    H226070   1.373   2.958  16.786  1.3957 -0.6475  0.0957
 1527TIP3   OH226071   1.275   1.306  54.740 -0.0199 -0.2344  0.0381
 1527TIP3    H126072   1.356   1.308  54.689  0.0055  0.0799  0.0884
 1527TIP3    H226073   1.274   1.390  54.786 -1.4184  0.6967 -1.5931
 1528TIP3   OH226074   1.618   0.138  50.611  0.1887  0.3967  0.2531
 1528TIP3    H126075   1.568   0.058  50.596  0.8700 -0.1753  0.9538
 1528TIP3    H226076   1.651   0.130  50.700  2.7921  0.0187 -0.6499
 1529TIP3   OH226077   1.744   3.003   3.485  0.6374 -0.0484  0.2901
 1529TIP3    H126078   1.799   2.930   3.454  0.3172  0.4135 -1.4736
 1529TIP3    H226079   1.670   3.005   3.424 -1.4471 -0.7026  2.6568
 1530TIP3   OH226080   0.234   1.885  55.000  0.6055 -0.0228  0.1206
 1530TIP3    H126081   0.219   1.861  55.092  0.7474  1.4666  0.5604
 1530TIP3    H226082   0.169   1.953  54.982 -0.5327 -1.4401 -1.4196
 1531TIP3   OH226083   0.200   0.387  18.775  0.4814  0.1745 -0.2348
 1531TIP3    H126084   0.133   0.337  18.729 -0.0424  1.9750 -1.5433
 1531TIP3    H226085   0.201   0.351  18.863 -1.2415 -0.8052 -0.5774
 1532TIP3   OH226086   2.094   0.607  57.803  0.0873  0.3315  0.2628
 1532TIP3    H126087   2.038   0.624  57.879 -0.8011 -0.6365 -0.1453
 1532TIP3    H226088   2.171   0.563  57.840  0.2569  1.0195  0.7472
 1533TIP3   OH226089   1.590   1.681  64.069 -0.2195 -0.5005 -0.6014
 1533TIP3    H126090   1.635   1.654  64.149 -0.2917 -0.5629 -0.5797
 1533TIP3    H226091   1.554   1.767  64.089 -0.5028 -0.6515 -0.4590
 1534TIP3   OH226092   1.061   3.146  10.255  0.6840 -0.1539 -0.0931
 1534TIP3    H126093   1.126   3.168  10.322  0.6032 -1.1256  0.3121
 1534TIP3    H226094   1.086   3.059  10.225  0.5991  0.1866 -1.1943
 1535TIP3   OH226095   1.380   2.496  38.013  0.4004  0.1851 -0.0001
 1535TIP3    H126096   1.306   2.557  38.011 -0.6303 -0.9652  1.0538
 1535TIP3    H226097   1.455   2.548  37.983 -0.6138  1.6926 -0.0466
 1536TIP3   OH226098   0.484   0.753  67.490  0.2846  0.2270  0.3540
 1536TIP3    H126099   0.492   0.680  67.552 -1.4524  0.7156  1.2194
 1536TIP3    H226100   0.573   0.786  67.480  0.5705  0.3981  2.9352
 1537TIP3   OH226101   1.155   1.925   8.035  0.3231  0.3004  1.2008
 1537TIP3    H126102   1.190   1.925   7.946 -1.5237 -1.8045  0.4001
 1537TIP3    H226103   1.229   1.899   8.090  0.3889 -3.1441 -0.3102
 1538TIP3   OH226104   0.381   2.665  13.419  0.1344 -0.7596  0.1863
 1538TIP3    H126105   0.455   2.612  13.389  0.3006 -0.4254 -0.0117
 1538TIP3    H226106   0.342   2.615  13.491  0.0973 -1.2917 -0.2004
 1539TIP3   OH226107   2.853   0.536   1.972  0.0211  0.1276 -0.3482
 1539TIP3    H126108   2.828   0.472   1.905 -0.1757 -0.8750  0.6495
 1539TIP3    H226109   2.777   0.594   1.980  1.0029  1.9291 -2.8269
 1540TIP3   OH226110   2.250   1.233  48.583  0.1118  0.0239  0.5638
 1540TIP3    H126111   2.182   1.283  48.627 -1.5858 -0.7053 -1.0785
 1540TIP3    H226112   2.257   1.152  48.634  0.3466  0.4367  1.2005
 1541TIP3   OH226113   0.483   1.478  66.225 -0.2013 -0.3161  0.0519
 1541TIP3    H126114   0.529   1.560  66.210  1.1687 -1.2279 -1.0380
 1541TIP3    H226115   0.536   1.432  66.290 -0.7394 -0.5034  0.3655
 1542TIP3   OH226116   2.787   2.730  28.823  0.2023 -0.4043  0.1682
 1542TIP3    H126117   2.752   2.789  28.756  0.9837 -1.2066 -0.9903
 1542TIP3    H226118   2.817   2.654  28.774 -1.4782 -2.1500  1.6947
 1543TIP3   OH226119   0.680   2.213  67.354  0.6996 -0.2771 -0.0464
 1543TIP3    H126120   0.673   2.259  67.438  0.9864 -0.4329  0.0684
 1543TIP3    H226121   0.625   2.136  67.365  0.7504 -0.3061  0.0065
 1544TIP3   OH226122   2.057   1.484   5.488  0.3423  0.4769 -0.3365
 1544TIP3    H126123   2.084   1.393   5.502 -1.3314 -0.0630 -0.3941
 1544TIP3    H226124   1.963   1.484   5.505  0.0467  1.9027 -1.7298
 1545TIP3   OH226125   2.100   3.320  53.545  0.5839 -0.1764  0.2177
 1545TIP3    H126126   2.194   3.311  53.560  0.9119  0.9965 -0.9647
 1545TIP3    H226127   2.093   3.376  53.468 -1.1005  0.3281  0.7015
 1546TIP3   OH226128   2.509   0.286   5.087 -0.2125 -0.4738  0.4622
 1546TIP3    H126129   2.447   0.214   5.098  0.2118 -1.3820 -2.2972
 1546TIP3    H226130   2.466   0.346   5.026  1.0412 -0.3840 -0.3630
 1547TIP3   OH226131   1.400   3.409  17.973  0.4614 -0.0318  0.1600
 1547TIP3    H126132   1.475   3.452  18.013  0.1181 -0.6472  1.5250
 1547TIP3    H226133   1.436   3.364  17.897  1.5372 -0.5373  0.9368
 1548TIP3   OH226134   0.075   1.854  22.628  0.0648 -0.3787  0.8332
 1548TIP3    H126135   0.116   1.812  22.552 -0.6051  2.2339 -1.1393
 1548TIP3    H226136  -0.013   1.816  22.631 -0.0409 -0.2158  0.0309
 1549TIP3   OH226137   0.058   1.422  64.345 -0.0003  0.5747 -0.2343
 1549TIP3    H126138  -0.024   1.378  64.325  0.7790 -1.0956  0.0776
 1549TIP3    H226139   0.108   1.358  64.396  0.7376  2.2498  1.2612
 1550TIP3   OH226140   2.366   0.105  20.640  0.0322  0.2447 -0.0766
 1550TIP3    H126141   2.375   0.158  20.719  2.3779 -0.5231  0.2515
 1550TIP3    H226142   2.276   0.119  20.612 -0.7683  0.8388  2.5017
 1551TIP3   OH226143   2.223   1.547   6.817 -0.4484 -0.4817 -0.0898
 1551TIP3    H126144   2.272   1.613   6.769  0.7027 -1.0760  0.2224
 1551TIP3    H226145   2.184   1.491   6.750 -0.0041 -0.4884 -0.3425
 1552TIP3   OH226146   1.266   0.425  61.845 -0.1418 -0.5146 -0.2633
 1552TIP3    H126147   1.221   0.362  61.901  0.8803 -0.1911  0.9635
 1552TIP3    H226148   1.319   0.372  61.785  1.8308 -0.8843  1.6881
 1553TIP3   OH226149   0.088   3.426  62.030 -0.1112  0.5747 -0.5020
 1553TIP3    H126150   0.066   3.342  61.988  2.3320 -0.1325 -0.5219
 1553TIP3    H226151   0.068   3.412  62.123 -0.0369  0.0845 -0.5528
 1554TIP3   OH226152   0.346   0.201  49.429  0.2736  0.4196  0.1604
 1554TIP3    H126153   0.261   0.200  49.472 -0.1541 -0.1984 -0.6878
 1554TIP3    H226154   0.334   0.149  49.349  1.4789  0.1918  0.1053
 1555TIP3   OH226155   0.650   2.366  58.031 -0.4244  0.2261  0.4031
 1555TIP3    H126156   0.715   2.297  58.046 -1.1171 -0.6350 -0.4576
 1555TIP3    H226157   0.589   2.357  58.104 -2.2128 -2.1219 -1.2236
 1556TIP3   OH226158   0.822   2.321  19.979 -0.7297 -0.2087  0.7235
 1556TIP3    H126159   0.745   2.278  20.017 -1.6940  1.1103  0.3369
 1556TIP3    H226160   0.803   2.414  19.988  0.6491  0.1288  0.2365
 1557TIP3   OH226161   2.164   2.371  63.467 -0.0927  0.4099  0.4777
 1557TIP3    H126162   2.158   2.465  63.449 -1.4082  0.4388  0.9083
 1557TIP3    H226163   2.093   2.355  63.529  0.9339 -0.6453  1.4157
 1558TIP3   OH226164   0.834   2.015  50.804 -0.1467 -0.5657  0.0055
 1558TIP3    H126165   0.890   2.055  50.737  1.1050 -0.4562  1.0680
 1558TIP3    H226166   0.823   1.925  50.774  2.3479 -1.2057  0.7260
 1559TIP3   OH226167   1.899   2.214  48.610 -0.0916  0.4677  0.3771
 1559TIP3    H126168   1.883   2.293  48.662  3.1820  1.7082 -0.2743
 1559TIP3    H226169   1.988   2.187  48.634 -0.2688 -1.7008 -1.1202
 1560TIP3   OH226170   2.509   0.447  18.844  0.5905  0.3025  0.1026
 1560TIP3    H126171   2.555   0.495  18.913  1.7570  0.7966 -0.9766
 1560TIP3    H226172   2.538   0.489  18.763 -1.7510  0.6108 -0.6568
 1561TIP3   OH226173   0.482   1.691  62.837  0.2597  0.1628  0.4368
 1561TIP3    H126174   0.427   1.689  62.915 -0.9760 -0.8440 -0.4051
 1561TIP3    H226175   0.572   1.681  62.870 -0.3301 -1.5134  1.6560
 1562TIP3   OH226176   0.028   1.391   5.939 -0.0892 -0.1278 -0.2329
 1562TIP3    H126177   0.027   1.302   5.904  2.2448 -0.9196  1.3988
 1562TIP3    H226178   0.052   1.380   6.032 -1.0557  2.1269  0.3599
 1563TIP3   OH226179   1.787   1.456  38.311  0.0923  0.4574 -0.0367
 1563TIP3    H126180   1.786   1.362  38.293 -0.0352  0.0128  1.9840
 1563TIP3    H226181   1.854   1.467  38.379 -0.5884  1.6513  0.4909
 1564TIP3   OH226182   1.800   1.517  15.720 -0.6550  0.4436  0.7721
 1564TIP3    H126183   1.870   1.512  15.785 -0.0684 -0.2208  0.1048
 1564TIP3    H226184   1.845   1.534  15.638 -0.8732 -3.1863 -0.2744
 1565TIP3   OH226185   1.137   1.543  54.855  0.1022  0.4856 -0.2066
 1565TIP3    H126186   1.065   1.483  54.835 -0.4093  1.0397 -0.0567
 1565TIP3    H226187   1.112   1.585  54.938  1.1306 -0.1279  0.4327
 1566TIP3   OH226188   3.117   0.957  63.348 -0.3583  0.3688  0.0234
 1566TIP3    H126189   3.051   0.922  63.288  0.6739  0.6992 -1.3530
 1566TIP3    H226190   3.098   1.050  63.353  1.0157  0.8097 -1.8136
 1567TIP3   OH226191   2.521   2.878   4.862  0.0587 -0.3965  0.1576
 1567TIP3    H126192   2.588   2.829   4.814 -0.3386  0.4032 -1.2893
 1567TIP3    H226193   2.441   2.865   4.811 -0.6524 -0.4683  1.2770
 1568TIP3   OH226194   2.980   1.880  49.727  0.8393  0.1542 -0.5726
 1568TIP3    H126195   3.056   1.832  49.695  0.0885 -1.3755 -0.1327
 1568TIP3    H226196   2.910   1.860  49.664  0.2380 -0.2092  0.1889
 1569TIP3   OH226197   3.394   3.310  21.319  0.1135  0.9305 -0.1895
 1569TIP3    H126198   3.470   3.368  21.313 -0.2802  1.3512 -1.2178
 1569TIP3    H226199   3.332   3.358  21.374  0.8706  0.2419  1.3389
 1570TIP3   OH226200   0.975   1.401  62.160 -0.4223  0.1204 -0.5186
 1570TIP3    H126201   0.882   1.385  62.170 -0.7848  0.2216 -3.0129
 1570TIP3    H226202   1.007   1.418  62.249 -3.4024  3.6493  0.0890
 1571TIP3   OH226203   2.226   2.818  66.603  0.1179  0.1493  0.0274
 1571TIP3    H126204   2.288   2.762  66.650  0.1811  0.3015  0.1298
 1571TIP3    H226205   2.142   2.773  66.611  0.3891 -0.5771 -0.9764
 1572TIP3   OH226206   2.221   3.372  60.439  0.3987 -0.3015 -0.3684
 1572TIP3    H126207   2.169   3.415  60.506  0.6760  0.3378 -0.5527
 1572TIP3    H226208   2.312   3.388  60.465  0.5245  0.6482 -1.3064
 1573TIP3   OH226209   0.145   1.374  50.624  0.4482 -0.3406  0.3147
 1573TIP3    H126210   0.228   1.421  50.609  0.7024 -0.4314  1.3507
 1573TIP3    H226211   0.151   1.344  50.714 -1.1388  0.4743  0.7129
 1574TIP3   OH226212   3.405   1.611  15.029 -0.7184  0.1262  0.5680
 1574TIP3    H126213   3.462   1.537  15.008 -0.4966  0.1653  1.0449
 1574TIP3    H226214   3.441   1.684  14.979 -0.4418  0.1142  0.7494
 1575TIP3   OH226215   2.088   0.973  15.666  0.0272 -0.3403  0.3018
 1575TIP3    H126216   2.083   0.946  15.574 -2.4111  0.9690 -0.0042
 1575TIP3    H226217   2.071   1.067  15.665 -0.7229 -0.4183  2.1523
 1576TIP3   OH226218   0.368   1.548  50.857  0.2986  0.0831 -0.2755
 1576TIP3    H126219   0.462   1.534  50.856  0.1324 -1.4527  1.0520
 1576TIP3    H226220   0.351   1.604  50.782  2.1116 -0.5875 -1.2422
 1577TIP3   OH226221   3.416   2.616  58.271  0.4357  0.3338 -0.3113
 1577TIP3    H126222   3.482   2.641  58.206  0.3843 -0.4456 -0.6733
 1577TIP3    H226223   3.360   2.554  58.225  0.1771  0.0541  0.3704
 1578TIP3   OH226224   2.884   0.486  15.833 -0.5186  0.1713  0.1116
 1578TIP3    H126225   2.847   0.401  15.809 -0.2370  0.3376 -0.9567
 1578TIP3    H226226   2.939   0.467  15.909  0.0473 -0.7253 -0.5044
 1579TIP3   OH226227   0.526   1.255  17.485 -0.3577  0.2114  0.3303
 1579TIP3    H126228   0.532   1.292  17.573 -0.1121 -1.7574  1.1831
 1579TIP3    H226229   0.615   1.258  17.451 -0.2556 -0.0162  0.5788
 1580TIP3   OH226230   0.051   3.363  63.999 -0.6227 -0.6068  0.0740
 1580TIP3    H126231  -0.012   3.311  63.949 -1.3243  1.3452 -1.1600
 1580TIP3    H226232   0.018   3.453  63.994 -0.0962 -0.1178  3.0898
 1581TIP3   OH226233   0.939   2.790  48.817 -0.0664  0.4429  0.3506
 1581TIP3    H126234   1.028   2.763  48.839  0.2482 -0.5564 -1.9259
 1581TIP3    H226235   0.920   2.861  48.878  2.2361  0.6035  0.9657
 1582TIP3   OH226236   0.955   0.945  62.967 -0.1963 -0.1880  0.1972
 1582TIP3    H126237   0.995   0.862  62.941 -0.5935 -0.1849 -0.4477
 1582TIP3    H226238   0.862   0.926  62.972 -0.3889  0.4055 -0.7678
 1583TIP3   OH226239   2.518   2.788   9.596  0.1829 -0.1993  0.0726
 1583TIP3    H126240   2.545   2.736   9.521  0.3909 -0.9081  0.6311
 1583TIP3    H226241   2.495   2.724   9.663  0.0848  0.4238  0.6459
 1584TIP3   OH226242   0.379   2.892  20.750 -0.0546 -0.1475 -0.3978
 1584TIP3    H126243   0.376   2.975  20.797 -2.3976  0.6231 -1.7518
 1584TIP3    H226244   0.420   2.912  20.666  0.0868 -0.5543 -0.4317
 1585TIP3   OH226245   0.372   2.275  20.551 -0.0883  0.0441  0.4408
 1585TIP3    H126246   0.317   2.212  20.598 -2.6351  1.4852 -0.4472
 1585TIP3    H226247   0.422   2.320  20.619 -0.0574 -1.2204  1.2827
 1586TIP3   OH226248   1.305   2.973  12.524 -0.3028  0.1998 -0.1200
 1586TIP3    H126249   1.332   2.970  12.432 -0.7153  0.3977 -0.2494
 1586TIP3    H226250   1.378   2.933  12.571 -0.9868 -1.8580 -0.7113
 1587TIP3   OH226251   0.113   2.122  10.725 -0.4154 -0.1026  0.3348
 1587TIP3    H126252   0.089   2.031  10.708 -2.2661  0.5798 -1.0386
 1587TIP3    H226253   0.090   2.136  10.817 -0.2038 -0.9919  0.5261
 1588TIP3   OH226254   0.835   3.022  11.587 -0.3480  0.2651 -0.2505
 1588TIP3    H126255   0.915   2.976  11.560  0.0350  1.0099 -0.4252
 1588TIP3    H226256   0.820   3.086  11.518 -1.0218  0.2348 -0.1400
 1589TIP3   OH226257   3.000   2.497  22.269 -0.2527  0.4799  0.3835
 1589TIP3    H126258   3.008   2.571  22.330 -0.9089  0.4902  0.4626
 1589TIP3    H226259   3.057   2.520  22.196  0.9518  0.2407  1.2020
 1590TIP3   OH226260   1.030   3.256   3.704  0.5917  0.2196 -0.0229
 1590TIP3    H126261   1.058   3.180   3.654  0.8359 -0.0784  0.5583
 1590TIP3    H226262   0.947   3.229   3.744 -0.1442  0.8240 -1.1069
 1591TIP3   OH226263   0.659   2.352  10.263  0.7441  0.5008 -0.5715
 1591TIP3    H126264   0.595   2.413  10.227  1.1849  2.0185  1.0925
 1591TIP3    H226265   0.714   2.329  10.188 -1.0552 -0.0113 -1.7937
 1592TIP3   OH226266   0.723   2.321   3.259 -0.5548 -0.0400  0.2923
 1592TIP3    H126267   0.737   2.266   3.182 -1.1132  0.5606 -0.2462
 1592TIP3    H226268   0.811   2.335   3.294 -0.3974 -1.2433  0.4300
 1593TIP3   OH226269   0.235   2.999  52.419 -0.1778  0.0777  0.2144
 1593TIP3    H126270   0.206   3.061  52.486 -0.7379  0.3058 -0.2337
 1593TIP3    H226271   0.314   3.039  52.382 -0.4246  0.4332  0.0632
 1594TIP3   OH226272   1.098   2.033  41.963  0.5058 -0.0198 -0.2338
 1594TIP3    H126273   1.010   2.011  41.932  0.3457  2.0452 -1.4597
 1594TIP3    H226274   1.155   2.019  41.887  0.6762  1.7254 -0.4891
 1595TIP3   OH226275   1.505   2.635   4.877  0.2955 -0.0961  0.7112
 1595TIP3    H126276   1.442   2.695   4.836  1.6660  0.2858 -0.9750
 1595TIP3    H226277   1.577   2.692   4.904  1.0954 -0.8101  0.1449
 1596TIP3   OH226278   1.602   1.161  44.149 -0.6009  0.5701 -0.1271
 1596TIP3    H126279   1.510   1.147  44.127 -0.1085 -2.8334 -0.5321
 1596TIP3    H226280   1.605   1.149  44.244 -0.4567 -0.2704 -0.2315
 1597TIP3   OH226281   1.255   0.897  19.732  0.4642 -0.4355 -0.5229
 1597TIP3    H126282   1.331   0.857  19.689  1.0850 -0.1396  0.2872
 1597TIP3    H226283   1.181   0.873  19.676  1.0799 -1.1508 -1.0509
 1598TIP3   OH226284   0.511   0.331  59.258 -0.0990 -0.4687 -0.0944
 1598TIP3    H126285   0.510   0.285  59.342  0.8103  1.8718  1.2851
 1598TIP3    H226286   0.597   0.310  59.220 -1.6889 -4.2686 -2.2384
 1599TIP3   OH226287   1.776   2.757  49.161 -0.1326 -0.2410 -0.2917
 1599TIP3    H126288   1.786   2.662  49.173  0.7609 -0.0560  0.6090
 1599TIP3    H226289   1.788   2.770  49.067  0.4324 -0.9622 -0.3329
 1600TIP3   OH226290   3.346   0.845  47.917  0.4433 -0.4473 -0.1545
 1600TIP3    H126291   3.324   0.906  47.988 -1.5497 -1.9570  0.5880
 1600TIP3    H226292   3.431   0.808  47.943 -0.3138 -1.0769  1.5665
 1601TIP3   OH226293   0.472   0.679   8.814  0.1240 -0.1216  0.4850
 1601TIP3    H126294   0.389   0.712   8.780  0.0137 -0.2038  0.6749
 1601TIP3    H226295   0.454   0.589   8.840  0.9081 -1.0364 -1.8738
 1602TIP3   OH226296   2.918   1.581  48.132 -0.3137  0.4372  0.0416
 1602TIP3    H126297   2.937   1.561  48.040  1.0615 -0.1546  0.4316
 1602TIP3    H226298   2.847   1.522  48.156 -1.4312  1.3352 -0.9150
 1603TIP3   OH226299   2.395   1.775  51.663 -0.0833  0.2714 -0.1137
 1603TIP3    H126300   2.452   1.813  51.729  0.9868 -0.2300 -0.7253
 1603TIP3    H226301   2.448   1.774  51.583 -0.3775 -1.6424 -0.3291
 1604TIP3   OH226302   3.181   1.428  15.325  0.3102 -0.0834 -0.1534
 1604TIP3    H126303   3.265   1.469  15.343  1.2035 -1.5419 -0.7834
 1604TIP3    H226304   3.170   1.363  15.394 -0.3135  0.1046 -0.0681
 1605TIP3   OH226305   0.476   0.873  38.318 -0.2485 -0.4111 -0.0105
 1605TIP3    H126306   0.457   0.889  38.226 -0.8057 -0.0963  0.1560
 1605TIP3    H226307   0.458   0.780  38.330  1.9952 -1.0202 -0.7326
 1606TIP3   OH226308   1.028   3.086  21.161 -0.0924 -0.1363 -0.6320
 1606TIP3    H126309   1.073   3.064  21.079  0.2592 -1.8946 -0.0111
 1606TIP3    H226310   1.028   3.004  21.211 -0.0349  0.9586  1.2496
 1607TIP3   OH226311   1.174   2.603  16.678  1.2706 -0.0179 -0.2099
 1607TIP3    H126312   1.227   2.560  16.611 -0.4212  2.1195 -3.1412
 1607TIP3    H226313   1.230   2.675  16.710  1.3659  0.2203 -0.8843
 1608TIP3   OH226314   2.249   1.075   5.426 -0.0231  0.3665  0.2661
 1608TIP3    H126315   2.287   1.035   5.505 -0.8449  0.2107  0.5893
 1608TIP3    H226316   2.169   1.117   5.456 -0.6731 -0.2258 -0.5948
 1609TIP3   OH226317   0.490   2.297  54.580 -0.3619 -0.2398 -0.0232
 1609TIP3    H126318   0.532   2.220  54.541  0.4288  0.3955 -0.4302
 1609TIP3    H226319   0.439   2.261  54.653  2.6701 -0.8571  2.0018
 1610TIP3   OH226320   0.179   2.734  45.722 -0.2274  0.1978  0.1184
 1610TIP3    H126321   0.092   2.771  45.707 -0.2176  0.1426 -0.0808
 1610TIP3    H226322   0.163   2.642  45.742 -0.1203 -0.1608 -1.3761
 1611TIP3   OH226323   2.014   0.629  59.017  0.2719 -0.1754 -1.1212
 1611TIP3    H126324   1.958   0.623  58.939 -1.1576 -1.1717 -0.0861
 1611TIP3    H226325   1.954   0.612  59.090  1.9572 -1.4469  0.0499
 1612TIP3   OH226326   2.497   2.525  63.058 -0.9758  0.5629 -0.0479
 1612TIP3    H126327   2.496   2.443  63.009  1.2170  1.2050 -1.3155
 1612TIP3    H226328   2.461   2.590  62.996  3.6191  1.7672 -1.8481
 1613TIP3   OH226329   2.652   0.928  62.850 -0.1152  0.8667 -0.4650
 1613TIP3    H126330   2.654   0.846  62.900 -1.1326  0.5147 -0.9772
 1613TIP3    H226331   2.740   0.963  62.858  0.1765  0.0069  0.2387
 1614TIP3   OH226332   0.539   1.052  22.402  0.5329  0.7112  0.1793
 1614TIP3    H126333   0.541   0.958  22.386  1.4792  0.6567  0.5295
 1614TIP3    H226334   0.455   1.068  22.445 -0.2389  0.2478 -1.1091
 1615TIP3   OH226335   1.902   2.084  65.314 -0.1057  0.0874 -0.5159
 1615TIP3    H126336   1.906   2.120  65.403 -0.3070  1.3142 -0.9747
 1615TIP3    H226337   1.817   2.112  65.282 -1.0570 -2.3281 -0.3142
 1616TIP3   OH226338   3.142   0.775  19.621 -0.2458  0.5637  0.0629
 1616TIP3    H126339   3.223   0.724  19.621  0.4455  1.6280  0.6844
 1616TIP3    H226340   3.154   0.840  19.552 -0.9463  0.1835 -0.4333
 1617TIP3   OH226341   3.006   2.366  11.388  0.0875 -0.1407  0.4458
 1617TIP3    H126342   2.973   2.287  11.345  1.5934 -0.7889  0.4127
 1617TIP3    H226343   3.029   2.424  11.315  0.5810 -0.3703  0.4107
 1618TIP3   OH226344   1.791   3.195  16.807  0.4484 -0.1372 -0.0109
 1618TIP3    H126345   1.750   3.143  16.876  0.3973  0.1553  0.1829
 1618TIP3    H226346   1.769   3.149  16.726 -3.3309  1.8066 -0.3294
 1619TIP3   OH226347   1.335   2.043  57.657  0.1814  0.0615  0.1413
 1619TIP3    H126348   1.358   2.135  57.642 -0.8953  0.7048  2.1489
 1619TIP3    H226349   1.370   2.023  57.744 -0.3677 -1.1649  0.0999
 1620TIP3   OH226350   3.000   3.118  21.647 -0.0488 -0.5260 -0.4011
 1620TIP3    H126351   3.081   3.070  21.661 -0.2449 -0.4156  1.2552
 1620TIP3    H226352   2.959   3.075  21.572  1.2522 -0.9422 -0.8952
 1621TIP3   OH226353   2.043   0.919   1.710  0.3418 -0.5866  0.0426
 1621TIP3    H126354   1.988   0.997   1.714  0.9340 -0.2042  1.1691
 1621TIP3    H226355   2.003   0.864   1.642 -2.2212 -0.9241  1.6837
 1622TIP3   OH226356   2.398   0.182  46.369 -0.4527 -0.2142 -0.5415
 1622TIP3    H126357   2.391   0.273  46.341  0.2020 -0.5826 -2.0383
 1622TIP3    H226358   2.438   0.137  46.294  2.2296 -1.1407  1.2767
 1623TIP3   OH226359   2.214   3.360  61.243  0.0917  0.1830 -0.5041
 1623TIP3    H126360   2.165   3.415  61.304 -0.2667 -0.1711 -0.4766
 1623TIP3    H226361   2.306   3.377  61.265 -0.0352 -0.0033  0.1887
 1624TIP3   OH226362   1.188   2.463  13.448  0.8281 -0.0492  1.0703
 1624TIP3    H126363   1.181   2.376  13.409  0.9057  0.4555 -0.1205
 1624TIP3    H226364   1.168   2.523  13.377  2.4063  0.9654  1.4152
 1625TIP3   OH226365   0.267   1.589   1.266 -0.0967  0.0943  0.0996
 1625TIP3    H126366   0.232   1.672   1.300 -0.0842  0.9128 -1.7657
 1625TIP3    H226367   0.264   1.599   1.171  3.9942 -0.2525 -0.2402
 1626TIP3   OH226368   0.630   1.026  18.479 -0.1433  0.0214 -0.3138
 1626TIP3    H126369   0.618   0.938  18.514  0.5131  0.3842  0.8973
 1626TIP3    H226370   0.722   1.029  18.452  0.2972  0.8140  1.1625
 1627TIP3   OH226371   1.700   3.134  14.913  0.1706  0.1243  0.5782
 1627TIP3    H126372   1.733   3.044  14.907 -0.9865 -0.3076  0.4550
 1627TIP3    H226373   1.737   3.167  14.995  1.7730  0.0450 -0.0848
 1628TIP3   OH226374   0.557   0.198  21.436  0.4136 -0.7457 -0.1528
 1628TIP3    H126375   0.506   0.260  21.383  0.4024 -0.3429  0.3231
 1628TIP3    H226376   0.491   0.143  21.478  0.3901 -0.5631  0.0518
 1629TIP3   OH226377   3.256   0.975  63.060 -0.5711  0.2049  0.0311
 1629TIP3    H126378   3.230   1.025  62.983 -0.6947  0.3192  0.1469
 1629TIP3    H226379   3.321   1.030  63.103 -1.4396  0.7292  0.6990
 1630TIP3   OH226380   0.425   1.957  10.906 -0.2955  0.3864 -0.6267
 1630TIP3    H126381   0.517   1.944  10.929 -0.7964 -2.3138  0.2418
 1630TIP3    H226382   0.390   2.013  10.975  0.8971  2.3987 -1.5841
 1631TIP3   OH226383   1.186   2.792  62.919  0.0852  0.3207  0.5326
 1631TIP3    H126384   1.200   2.704  62.883  1.0416  0.7485 -0.1844
 1631TIP3    H226385   1.115   2.781  62.982 -0.5864 -0.7571 -0.3732
 1632TIP3   OH226386   2.842   0.663  59.456  0.6573 -0.1470  0.5804
 1632TIP3    H126387   2.905   0.680  59.386  0.7999  2.0266  1.1565
 1632TIP3    H226388   2.761   0.704  59.426  0.6953  0.7311  1.5894
 1633TIP3   OH226389   1.161   2.617   4.320  0.4284  0.2134 -0.1966
 1633TIP3    H126390   1.250   2.586   4.336  1.3068  2.5355 -0.1869
 1633TIP3    H226391   1.110   2.582   4.392  1.7024  0.2610  0.7621
 1634TIP3   OH226392   0.216   1.333  60.539 -0.0220  0.5806  0.2483
 1634TIP3    H126393   0.157   1.350  60.613 -0.1950 -0.0727  0.2648
 1634TIP3    H226394   0.162   1.347  60.462 -0.1722  0.0837  0.2625
 1635TIP3   OH226395   3.210   2.808  48.067  0.5946  0.0910 -0.2939
 1635TIP3    H126396   3.204   2.878  48.002  1.2134  1.5062  1.1283
 1635TIP3    H226397   3.268   2.842  48.135  1.6496 -2.1569  0.0226
 1636TIP3   OH226398   1.791   0.594  48.694  0.2307  0.3561  0.3545
 1636TIP3    H126399   1.841   0.538  48.634  1.2388 -0.4794  1.8936
 1636TIP3    H226400   1.811   0.559  48.781 -0.8956  1.7480  1.2164
 1637TIP3   OH226401   1.012   0.672  63.412 -0.7614  0.2355 -0.0969
 1637TIP3    H126402   0.979   0.740  63.353  1.9801  1.5577 -0.2467
 1637TIP3    H226403   1.067   0.718  63.474  0.2584 -1.7239  0.5474
 1638TIP3   OH226404   1.042   0.592  19.906 -0.1074  0.3040 -0.0824
 1638TIP3    H126405   1.100   0.545  19.846 -2.2893 -1.5487 -0.9124
 1638TIP3    H226406   0.999   0.523  19.956 -1.3194  1.6076  0.7380
 1639TIP3   OH226407   0.619   1.805  15.340 -0.4756 -0.2977 -0.4449
 1639TIP3    H126408   0.542   1.860  15.347 -0.2653 -0.0487 -0.0444
 1639TIP3    H226409   0.642   1.783  15.430 -0.5361 -1.0148 -0.5987
 1640TIP3   OH226410   3.425   3.114  21.148 -0.1679 -0.1009 -0.0741
 1640TIP3    H126411   3.519   3.131  21.145  0.1627 -1.5163  1.2850
 1640TIP3    H226412   3.388   3.192  21.188  0.1675  1.2106 -2.1276
 1641TIP3   OH226413   3.023   1.967  27.687  0.0576 -0.1081 -0.0152
 1641TIP3    H126414   3.101   1.928  27.726  1.5906  1.2670 -1.5238
 1641TIP3    H226415   3.002   2.041  27.743 -0.6976 -0.9387  0.8402
 1642TIP3   OH226416   1.863   3.419  62.390  0.2899  0.0115  0.0281
 1642TIP3    H126417   1.793   3.449  62.331 -0.2901 -1.5408 -0.1169
 1642TIP3    H226418   1.819   3.360  62.451  0.9749  1.2105  1.7434
 1643TIP3   OH226419   2.428   2.508  19.035 -0.3059 -0.4837  0.0424
 1643TIP3    H126420   2.364   2.445  19.070  0.1246 -0.3161  1.1700
 1643TIP3    H226421   2.382   2.592  19.036 -0.2279 -0.4462  0.3871
 1644TIP3   OH226422   2.170   1.303  66.646 -0.3873  0.7962 -0.0864
 1644TIP3    H126423   2.156   1.368  66.577 -1.5304  1.6946  0.9521
 1644TIP3    H226424   2.198   1.354  66.722 -0.1008 -0.0705  0.4025
 1645TIP3   OH226425   2.688   0.557  60.970  0.4614 -0.9973 -0.1458
 1645TIP3    H126426   2.766   0.507  60.994  0.9580 -0.3967 -0.4788
 1645TIP3    H226427   2.705   0.646  61.000  0.4898 -0.5562 -1.3851
 1646TIP3   OH226428   2.301   3.158  57.719 -0.1877 -0.7241  0.1758
 1646TIP3    H126429   2.207   3.145  57.709  0.1561 -1.8114 -2.6780
 1646TIP3    H226430   2.335   3.157  57.629  2.1596  3.0391  0.7982
 1647TIP3   OH226431   2.609   1.873  44.361 -0.2599 -0.5535  0.1894
 1647TIP3    H126432   2.628   1.850  44.452 -0.7018 -1.0006  0.1705
 1647TIP3    H226433   2.534   1.932  44.366 -1.0546 -1.5315  0.0447
 1648TIP3   OH226434   0.652   3.211  38.966 -0.9940 -0.1137  0.4028
 1648TIP3    H126435   0.603   3.239  39.043 -0.7466  2.2536 -0.2348
 1648TIP3    H226436   0.628   3.272  38.897  1.4365  0.0368 -0.4372
 1649TIP3   OH226437   0.706   2.651  55.833 -0.3266 -0.0102  0.4797
 1649TIP3    H126438   0.639   2.655  55.764 -2.3179 -1.9966  2.1138
 1649TIP3    H226439   0.759   2.729  55.819 -1.7063  0.5937 -2.1977
 1650TIP3   OH226440   0.657   2.283  19.510 -0.3443 -0.0137  0.2128
 1650TIP3    H126441   0.590   2.274  19.442 -0.6465 -1.2013  0.6355
 1650TIP3    H226442   0.661   2.377  19.527 -2.8657  0.0198  1.0882
 1651TIP3   OH226443   1.994   2.413  55.407  0.0987  0.2628 -0.4942
 1651TIP3    H126444   2.020   2.460  55.486  0.3115 -0.4123 -0.1547
 1651TIP3    H226445   1.935   2.344  55.439 -1.5312  1.2818 -1.1566
 1652TIP3   OH226446   3.302   2.714   4.428 -0.0415  0.4658 -0.8837
 1652TIP3    H126447   3.305   2.620   4.412  2.2775  0.5673 -1.3685
 1652TIP3    H226448   3.211   2.732   4.451 -0.3952 -1.9821 -0.1786
 1653TIP3   OH226449   1.692   1.709  65.728 -0.1809  0.1620 -0.0146
 1653TIP3    H126450   1.748   1.761  65.786  0.2790  0.3602 -0.6277
 1653TIP3    H226451   1.641   1.653  65.787  2.1771 -1.6061  0.5068
 1654TIP3   OH226452   2.079   0.987  61.920  0.2119 -0.3898 -0.6740
 1654TIP3    H126453   2.062   0.894  61.904 -0.2191 -0.4282 -0.0261
 1654TIP3    H226454   1.992   1.025  61.932  0.3670  0.1571 -1.2304
 1655TIP3   OH226455   0.782   3.105  45.478  0.5926 -0.6894 -0.2880
 1655TIP3    H126456   0.863   3.156  45.471  1.2803 -1.5577  0.9345
 1655TIP3    H226457   0.788   3.063  45.564 -2.2122  0.9782  0.8583
 1656TIP3   OH226458   2.562   0.097  56.700  0.2067 -0.5862 -0.7259
 1656TIP3    H126459   2.506   0.090  56.777  0.3809 -0.4309 -0.5843
 1656TIP3    H226460   2.526   0.171  56.651 -0.3393 -1.1223 -1.1519
 1657TIP3   OH226461   2.086   0.287  20.758  0.5373  0.5170 -0.4507
 1657TIP3    H126462   2.175   0.289  20.794  1.6588  0.5505 -3.0579
 1657TIP3    H226463   2.049   0.205  20.789  1.8622  0.0034 -0.1917
 1658TIP3   OH226464   3.310   1.809  57.303 -0.1009 -0.4716  0.8665
 1658TIP3    H126465   3.384   1.749  57.314 -0.3114 -0.8225  0.4062
 1658TIP3    H226466   3.350   1.894  57.291  0.2712 -0.8180 -0.4436
 1659TIP3   OH226467   0.059   1.040  42.364 -0.6521 -0.4856  0.0445
 1659TIP3    H126468  -0.033   1.032  42.339 -0.9619  0.2555  0.9011
 1659TIP3    H226469   0.085   1.126  42.331 -0.0871 -0.9157 -0.6864
 1660TIP3   OH226470   3.000   1.842  13.051 -0.5840 -0.7687  0.1803
 1660TIP3    H126471   2.932   1.799  13.103 -0.6744  0.7312  1.3958
 1660TIP3    H226472   3.082   1.821  13.094 -0.7538  1.4431  1.7697
 1661TIP3   OH226473   1.171   1.666  48.005 -0.0010  0.0025 -0.3183
 1661TIP3    H126474   1.178   1.760  48.021  1.3931  0.0151 -0.8940
 1661TIP3    H226475   1.144   1.628  48.089  0.7540  0.7661  0.2722
 1662TIP3   OH226476   2.525   1.615  45.811  0.2891 -0.3563 -0.1088
 1662TIP3    H126477   2.538   1.557  45.736 -0.9517  0.6883 -1.1920
 1662TIP3    H226478   2.450   1.669  45.787  0.9431  1.2201  1.1429
 1663TIP3   OH226479   1.063   1.161  43.584  0.0350  0.1942  0.1487
 1663TIP3    H126480   1.039   1.071  43.563 -3.1550  0.7978  0.6136
 1663TIP3    H226481   1.086   1.201  43.500  0.6749 -0.8327 -0.1731
 1664TIP3   OH226482   0.074   1.169  29.611 -0.1908  0.4236  0.3626
 1664TIP3    H126483   0.039   1.198  29.696 -0.9447  0.2850  0.1107
 1664TIP3    H226484  -0.004   1.161  29.555  0.5490  4.1211 -1.4795
 1665TIP3   OH226485   2.282   3.013  12.246 -0.4045  0.1927 -0.9725
 1665TIP3    H126486   2.254   2.972  12.164  1.1614  0.1785 -1.5302
 1665TIP3    H226487   2.377   2.999  12.248 -0.2206  1.4934  0.1235
 1666TIP3   OH226488   3.065   2.996   7.506 -0.1302  0.2277  0.5704
 1666TIP3    H126489   3.076   3.078   7.459  1.2532 -0.5066 -0.4789
 1666TIP3    H226490   3.006   3.017   7.578  0.3024  2.1622  0.4150
 1667TIP3   OH226491   0.689   1.631  62.024  0.8313 -0.7652 -0.3845
 1667TIP3    H126492   0.705   1.576  61.947 -0.9486  1.8614 -2.8253
 1667TIP3    H226493   0.598   1.612  62.048  0.6446  0.0893 -0.4058
 1668TIP3   OH226494   2.381   3.362   0.199 -0.0231 -0.1407  0.2861
 1668TIP3    H126495   2.475   3.380   0.190  0.0864 -1.1969 -1.2096
 1668TIP3    H226496   2.377   3.277   0.242 -0.3335  0.2501  1.0474
 1669TIP3   OH226497   1.076   1.133   3.699  0.1160  0.5658 -0.5252
 1669TIP3    H126498   1.028   1.084   3.766 -1.1358  1.9938 -0.3287
 1669TIP3    H226499   1.148   1.075   3.673 -1.9959 -1.9302 -1.2049
 1670TIP3   OH226500   1.324   1.511  64.063 -0.1206 -0.4755 -0.1185
 1670TIP3    H126501   1.383   1.576  64.102  0.6564 -0.1939 -1.6470
 1670TIP3    H226502   1.271   1.479  64.136  0.2899  1.0186  0.8967
 1671TIP3   OH226503   1.946   2.139  55.174 -0.1074  0.8056  0.1327
 1671TIP3    H126504   1.903   2.162  55.256  1.5316  0.4241  1.1438
 1671TIP3    H226505   1.874   2.129  55.111 -1.2659  3.1854  0.9585
 1672TIP3   OH226506   1.653   1.003  18.330 -0.4656  0.2597  0.0624
 1672TIP3    H126507   1.587   1.071  18.318 -0.7711  0.1611  1.1138
 1672TIP3    H226508   1.623   0.931  18.276 -1.9998 -0.3135  1.5819
 1673TIP3   OH226509   3.366   0.873  66.301  0.0038  0.0385 -0.4121
 1673TIP3    H126510   3.348   0.834  66.386  0.6935 -0.1826 -0.3675
 1673TIP3    H226511   3.421   0.809  66.256 -1.8653 -0.7064 -1.7622
 1674TIP3   OH226512   2.278   2.558  45.040  0.1503  0.3811 -0.6428
 1674TIP3    H126513   2.202   2.537  44.986 -1.1148  0.1474  1.1203
 1674TIP3    H226514   2.260   2.646  45.073  0.0678 -0.1082  0.6740
 1675TIP3   OH226515   1.983   0.529  14.563 -0.2074  0.6496  0.0179
 1675TIP3    H126516   1.915   0.542  14.496  0.2197  1.2693 -0.3061
 1675TIP3    H226517   2.054   0.486  14.516 -0.0335  0.7896  0.1553
 1676TIP3   OH226518   2.655   1.278  54.222 -0.0714  0.1732  0.6961
 1676TIP3    H126519   2.653   1.228  54.140  0.0321  0.8531  0.2713
 1676TIP3    H226520   2.568   1.316  54.230 -0.7589 -1.5047  1.9504
 1677TIP3   OH226521   2.298   2.391  12.959 -0.5073  0.3112  0.0827
 1677TIP3    H126522   2.241   2.383  12.883  2.5304 -0.3935 -2.3445
 1677TIP3    H226523   2.315   2.301  12.986 -0.2291  0.4873  0.5149
 1678TIP3   OH226524   3.231   0.747  11.186  0.5643  0.5993 -0.0004
 1678TIP3    H126525   3.228   0.842  11.202 -0.9076  0.4371  0.8003
 1678TIP3    H226526   3.150   0.714  11.223  1.1029 -1.0069 -0.2017
 1679TIP3   OH226527   2.931   1.330  12.213  0.3681 -0.5688  0.6875
 1679TIP3    H126528   2.836   1.321  12.216  0.3351 -0.0555  1.2506
 1679TIP3    H226529   2.959   1.267  12.146 -0.5057  0.4166 -0.6452
 1680TIP3   OH226530   0.494   2.272  21.620  0.6205  0.5642  0.4749
 1680TIP3    H126531   0.404   2.298  21.604  1.0268  2.3740  0.8872
 1680TIP3    H226532   0.536   2.276  21.533  0.1963 -0.9139  0.1685
 1681TIP3   OH226533   2.034   2.337  22.724  0.3790  0.7009 -0.0742
 1681TIP3    H126534   2.125   2.338  22.693  0.1279  0.8196 -0.8453
 1681TIP3    H226535   2.021   2.248  22.757  0.7763  0.6819  0.0373
 1682TIP3   OH226536   3.038   1.691   6.540  0.2211 -0.6368  0.0263
 1682TIP3    H126537   3.066   1.600   6.546  0.4228 -0.6495 -0.9352
 1682TIP3    H226538   3.100   1.731   6.479 -0.2974 -0.0378 -0.1185
 1683TIP3   OH226539   0.479   0.837   8.190 -0.4363 -0.2602 -0.8943
 1683TIP3    H126540   0.395   0.806   8.156 -1.4707  1.1050  0.2927
 1683TIP3    H226541   0.464   0.929   8.211  0.6982 -0.5369  1.3972
 1684TIP3   OH226542   2.187   2.484  52.110 -0.0153 -0.0592 -0.1834
 1684TIP3    H126543   2.281   2.475  52.092  0.2384  0.9070  0.6068
 1684TIP3    H226544   2.180   2.562  52.165 -0.7730 -2.7045  3.8696
 1685TIP3   OH226545   1.402   1.846  56.818 -0.0131  0.2057  0.1380
 1685TIP3    H126546   1.414   1.941  56.811  1.8357  0.0382  0.4547
 1685TIP3    H226547   1.320   1.829  56.772  0.5843  1.7319 -1.6277
 1686TIP3   OH226548   0.119   0.306  66.214  0.1534  0.4751  0.2076
 1686TIP3    H126549   0.047   0.258  66.255  1.0113 -0.5092  0.5802
 1686TIP3    H226550   0.107   0.290  66.120  0.4862 -0.5663  0.3344
 1687TIP3   OH226551   0.298   3.303  53.328  0.6773 -0.5824 -0.3283
 1687TIP3    H126552   0.286   3.299  53.423  0.2417 -1.3751 -0.4016
 1687TIP3    H226553   0.335   3.389  53.312 -0.9145  0.2938  0.3936
 1688TIP3   OH226554   0.300   1.559  16.730  0.4526  0.0771  0.5758
 1688TIP3    H126555   0.238   1.489  16.746  0.4860  0.1082  0.8462
 1688TIP3    H226556   0.316   1.598  16.816  0.3228  0.5100  0.4099
 1689TIP3   OH226557   0.904   1.130  13.607  0.3824  0.1296  0.2737
 1689TIP3    H126558   0.979   1.167  13.654  0.6559  0.7667 -0.6391
 1689TIP3    H226559   0.906   1.037  13.627  1.1038  0.2294  0.6886
 1690TIP3   OH226560   0.822   0.600  10.613  0.3971  0.8698  0.1099
 1690TIP3    H126561   0.904   0.620  10.568  0.8735  2.9286  1.7170
 1690TIP3    H226562   0.822   0.505  10.623  1.1187  0.5188 -2.5140
 1691TIP3   OH226563   2.080   1.445  63.641  0.2115 -0.1911  0.2457
 1691TIP3    H126564   2.010   1.507  63.661  1.0597  1.0555 -0.5488
 1691TIP3    H226565   2.035   1.372  63.599 -1.0015 -0.8767  2.5342
 1692TIP3   OH226566   2.798   2.196  56.833  0.0213  0.2232  0.4532
 1692TIP3    H126567   2.767   2.284  56.810 -0.7705 -0.1846 -0.0591
 1692TIP3    H226568   2.839   2.164  56.753  3.2914  1.3374  1.5042
 1693TIP3   OH226569   0.177   1.718   7.727  0.0814 -0.0753 -0.3482
 1693TIP3    H126570   0.123   1.649   7.688 -2.6041  1.6071  0.1770
 1693TIP3    H226571   0.184   1.785   7.658  0.2180  0.3852  0.1102
 1694TIP3   OH226572   1.478   2.123   4.426  0.2474  0.1647 -0.1941
 1694TIP3    H126573   1.384   2.136   4.442  0.5122 -0.3475  2.1043
 1694TIP3    H226574   1.509   2.208   4.393 -0.9101  0.4981 -0.4768
 1695TIP3   OH226575   2.792   2.560  51.307  0.1496 -0.1910 -0.0998
 1695TIP3    H126576   2.708   2.600  51.284  0.5639  0.2552 -0.8314
 1695TIP3    H226577   2.774   2.517  51.391 -0.6897  0.2902 -0.0108
 1696TIP3   OH226578   1.381   1.541  34.692 -0.2325  0.2274  0.0725
 1696TIP3    H126579   1.286   1.547  34.691 -0.3490 -1.1432 -0.7761
 1696TIP3    H226580   1.399   1.447  34.699  1.0644  0.4845  0.5055
 1697TIP3   OH226581   2.246   2.355  57.323 -0.1030  0.2607 -0.4929
 1697TIP3    H126582   2.259   2.447  57.299 -0.4324  0.1475 -1.1145
 1697TIP3    H226583   2.296   2.344  57.404  2.5814  0.2013 -2.0469
 1698TIP3   OH226584   2.883   0.041  18.345  0.0601  0.2824  0.2844
 1698TIP3    H126585   2.853   0.008  18.429  2.3963 -0.6825  0.8301
 1698TIP3    H226586   2.917  -0.036  18.299 -0.1637  0.9651 -1.0941
 1699TIP3   OH226587   0.739   1.239   4.289 -0.0128 -0.3562 -0.0210
 1699TIP3    H126588   0.669   1.190   4.334  0.5097 -1.1772 -0.0752
 1699TIP3    H226589   0.777   1.294   4.356 -2.1078  1.7616 -0.4472
 1700TIP3   OH226590   1.050   2.527  36.989  0.1521 -0.3309  0.5702
 1700TIP3    H126591   1.061   2.442  36.947  1.9488 -0.8764  2.0005
 1700TIP3    H226592   1.072   2.591  36.922 -1.9165 -0.8984 -0.7424
 1701TIP3   OH226593   1.175   2.790  57.021 -0.3944 -0.1371 -0.0034
 1701TIP3    H126594   1.197   2.802  57.114  1.0706 -0.1964 -0.3180
 1701TIP3    H226595   1.138   2.874  56.995  2.0244  1.0004 -0.0845
 1702TIP3   OH226596   0.580   1.626  47.187  0.4037 -0.0821 -0.3647
 1702TIP3    H126597   0.503   1.583  47.150 -0.2827  0.3099  0.5814
 1702TIP3    H226598   0.623   1.557  47.239  0.1686 -0.0397 -0.1150
 1703TIP3   OH226599   0.249   1.369  18.093  0.5453  0.3605  0.8233
 1703TIP3    H126600   0.316   1.335  18.152 -0.6776 -0.4543  1.8042
 1703TIP3    H226601   0.230   1.457  18.126  0.8616  0.4389  0.7917
 1704TIP3   OH226602   3.421   0.906  61.589  0.1742 -0.3239 -0.2765
 1704TIP3    H126603   3.394   0.957  61.513  1.5850  0.5075 -0.2644
 1704TIP3    H226604   3.467   0.831  61.551 -0.9669 -1.0408 -0.2713
 1705TIP3   OH226605   2.942   0.684  60.665 -0.2996  0.7458 -0.0207
 1705TIP3    H126606   3.031   0.711  60.687  0.6679 -2.7760  0.9360
 1705TIP3    H226607   2.886   0.753  60.701  1.8384  0.8291  3.6003
 1706TIP3   OH226608   0.225   0.099   0.839 -0.1941  0.2892 -0.1058
 1706TIP3    H126609   0.216   0.190   0.867 -0.2704  0.9773 -2.2030
 1706TIP3    H226610   0.135   0.067   0.832 -0.1628 -0.0273  0.7968
 1707TIP3   OH226611   0.014   0.691  55.562 -0.0020 -0.2329 -0.2052
 1707TIP3    H126612  -0.056   0.728  55.508  1.2121  1.4171 -0.7666
 1707TIP3    H226613   0.081   0.759  55.563 -0.0009 -0.0460  3.5786
 1708TIP3   OH226614   2.102   1.123  53.856  0.0667 -0.6258 -0.6608
 1708TIP3    H126615   2.023   1.173  53.874  0.2622  0.2730 -2.1655
 1708TIP3    H226616   2.076   1.031  53.870 -0.5365 -0.2210  1.2262
 1709TIP3   OH226617   3.372   0.576  10.697  0.1223 -0.0637  0.0739
 1709TIP3    H126618   3.283   0.543  10.693  0.6297 -1.5191  0.2815
 1709TIP3    H226619   3.377   0.624  10.779 -0.9862  1.7033 -0.8271
 1710TIP3   OH226620   0.411   0.236  15.420  0.3734  0.4823  0.1751
 1710TIP3    H126621   0.497   0.197  15.439  0.4571  0.4289 -0.2952
 1710TIP3    H226622   0.355   0.162  15.401 -0.0816  0.4368  1.6215
 1711TIP3   OH226623   3.029   1.327  61.992  0.5718 -0.0225  0.4066
 1711TIP3    H126624   2.954   1.275  61.964  1.3317 -0.1926 -1.4239
 1711TIP3    H226625   3.105   1.271  61.974  1.3141  1.1517 -0.2367
 1712TIP3   OH226626   3.341   0.416  12.680  0.3169 -0.1052  0.0201
 1712TIP3    H126627   3.249   0.389  12.671 -0.1139  1.1983  0.3128
 1712TIP3    H226628   3.355   0.423  12.774  0.2646  1.1029 -0.0428
 1713TIP3   OH226629   3.134   2.193   6.926 -0.4289 -0.0878  0.5354
 1713TIP3    H126630   3.195   2.175   6.854 -0.4874 -0.0198  0.4686
 1713TIP3    H226631   3.077   2.262   6.892  0.0824  0.5480  0.9570
 1714TIP3   OH226632   0.745   1.997  13.469 -0.0895 -0.0301 -0.0842
 1714TIP3    H126633   0.834   2.028  13.455 -0.7210  2.3941  0.7315
 1714TIP3    H226634   0.743   1.911  13.428  2.1790  0.4988 -1.4879
 1715TIP3   OH226635   3.270   1.766   6.921 -0.3957  0.0269  0.0610
 1715TIP3    H126636   3.350   1.718   6.900 -1.7451 -1.8999 -1.0273
 1715TIP3    H226637   3.235   1.794   6.836 -1.7848 -0.7500  0.3401
 1716TIP3   OH226638   2.737   0.463   4.705  0.5622 -0.0671 -0.2153
 1716TIP3    H126639   2.824   0.501   4.720  0.1708  1.3657 -1.3100
 1716TIP3    H226640   2.677   0.537   4.715 -0.4271 -0.8105 -0.5415
 1717TIP3   OH226641   0.566   0.984  42.917  0.1563  0.1614 -0.4818
 1717TIP3    H126642   0.537   0.900  42.882  0.5342 -0.6761  1.1085
 1717TIP3    H226643   0.630   0.961  42.985  0.9871  1.7773 -0.6681
 1718TIP3   OH226644   2.578   3.396  64.321  0.7299  0.4782  0.7836
 1718TIP3    H126645   2.495   3.372  64.362  0.4444 -0.3142 -0.2220
 1718TIP3    H226646   2.624   3.448  64.388  0.0087 -0.2026  1.8348
 1719TIP3   OH226647   1.053   3.302  64.727  0.5882 -0.0308  0.4770
 1719TIP3    H126648   1.115   3.251  64.675  0.4967  0.5161 -0.1713
 1719TIP3    H226649   0.968   3.263  64.708  0.5364  0.2624  0.0945
 1720TIP3   OH226650   0.474   0.415  64.196 -0.2524  0.4275  0.1713
 1720TIP3    H126651   0.421   0.478  64.147 -1.3575 -0.6427 -0.0500
 1720TIP3    H226652   0.497   0.461  64.277  0.4329  1.7178 -0.7107
 1721TIP3   OH226653   2.314   0.810  46.449  0.1427 -0.5941  0.2085
 1721TIP3    H126654   2.326   0.747  46.378 -0.0503  0.6779 -0.9730
 1721TIP3    H226655   2.261   0.880  46.412  0.0074  0.0934  1.6169
 1722TIP3   OH226656   1.610   2.072  49.412 -0.2943  0.6713 -0.1484
 1722TIP3    H126657   1.630   2.105  49.500  1.6621 -2.3430  0.6756
 1722TIP3    H226658   1.693   2.039  49.379 -1.1590  0.9479 -2.8515
 1723TIP3   OH226659   2.690   3.316  14.599  0.0052  0.1951  0.0446
 1723TIP3    H126660   2.685   3.258  14.523 -1.9508  0.0763  0.1988
 1723TIP3    H226661   2.600   3.320  14.632 -0.0444  3.6203 -0.1585
 1724TIP3   OH226662   0.085   2.914  62.872  0.2535  0.3695 -0.1081
 1724TIP3    H126663   0.093   3.004  62.842  1.5398  0.4963  0.5298
 1724TIP3    H226664   0.130   2.913  62.957  1.1050 -1.0663 -0.5391
 1725TIP3   OH226665   0.170   0.649  52.977  0.0237  0.1532  0.0596
 1725TIP3    H126666   0.185   0.586  53.047  0.7393 -2.4469 -2.2598
 1725TIP3    H226667   0.075   0.651  52.966  0.0174 -1.1813 -0.3305
 1726TIP3   OH226668   1.003   0.900  59.745 -0.0475 -0.1127  0.0483
 1726TIP3    H126669   1.074   0.923  59.685 -0.2619 -0.8026 -0.4710
 1726TIP3    H226670   0.939   0.854  59.691  0.0310 -1.2689  0.9236
 1727TIP3   OH226671   1.274   1.571   1.519  0.6281 -0.6399 -0.2781
 1727TIP3    H126672   1.311   1.657   1.535  0.4745 -0.5516 -0.3947
 1727TIP3    H226673   1.179   1.584   1.524  0.5836 -0.6707 -0.9388
 1728TIP3   OH226674   3.412   0.874   4.773 -0.4062  0.5398 -0.2212
 1728TIP3    H126675   3.457   0.946   4.728  0.0159  0.6412  0.3484
 1728TIP3    H226676   3.408   0.902   4.864  3.1352 -1.6989  0.8324
 1729TIP3   OH226677   3.399   2.833  16.933  0.0438 -0.0255  0.1303
 1729TIP3    H126678   3.327   2.888  16.964  1.3476  1.4532  0.6774
 1729TIP3    H226679   3.475   2.891  16.930  0.8816 -1.1002 -2.0725
 1730TIP3   OH226680   3.069   0.317  61.099 -0.1895 -0.3028 -0.9144
 1730TIP3    H126681   3.114   0.400  61.090 -2.1520  0.8773 -0.3783
 1730TIP3    H226682   2.979   0.340  61.121 -0.5662 -2.5744  0.2992
 1731TIP3   OH226683   0.787   1.918   1.917  0.1363 -0.5268  0.2997
 1731TIP3    H126684   0.858   1.956   1.968  0.3465 -1.0568  0.4093
 1731TIP3    H226685   0.816   1.829   1.897 -0.8141 -1.0106  0.9823
 1732TIP3   OH226686   1.219   0.823  47.252 -0.1637 -0.7101  0.1614
 1732TIP3    H126687   1.222   0.880  47.175 -0.6991 -0.3104  0.4252
 1732TIP3    H226688   1.290   0.761  47.239 -0.1369 -0.5343 -0.5688
 1733TIP3   OH226689   0.205   0.549  45.412  0.5501  0.5831 -0.2763
 1733TIP3    H126690   0.253   0.630  45.396  2.3269 -0.2423  0.6255
 1733TIP3    H226691   0.227   0.525  45.502 -0.1640 -0.7669 -0.4303
 1734TIP3   OH226692   0.673   0.379  66.491 -0.4643 -0.2530  0.3478
 1734TIP3    H126693   0.606   0.410  66.551  0.1284  0.4263  0.6849
 1734TIP3    H226694   0.710   0.302  66.533  0.5181  0.6979  1.2835
 1735TIP3   OH226695   2.161   1.978  63.969 -0.5487 -0.3425  0.2749
 1735TIP3    H126696   2.255   1.995  63.973 -0.8737  2.5559 -1.9396
 1735TIP3    H226697   2.126   2.020  64.048 -0.1016 -0.6990  0.6700
 1736TIP3   OH226698   1.379   0.597  34.452 -0.3869  0.0075 -0.3047
 1736TIP3    H126699   1.404   0.650  34.376 -0.7131  0.3286 -0.1925
 1736TIP3    H226700   1.302   0.549  34.423 -0.7165  0.3893 -0.0695
 1737TIP3   OH226701   2.949   0.597  47.071 -0.3059 -0.1762 -1.0985
 1737TIP3    H126702   3.039   0.618  47.048  0.7583 -0.7189  2.0575
 1737TIP3    H226703   2.937   0.636  47.158 -1.6832 -3.6095  0.4064
 1738TIP3   OH226704   3.049   2.937  27.151 -0.1412 -0.6120  0.0161
 1738TIP3    H126705   3.011   2.980  27.228 -1.2072 -0.9437 -0.3094
 1738TIP3    H226706   2.976   2.927  27.090  0.9008  0.7789 -1.5874
 1739TIP3   OH226707   0.188   3.310  21.865 -0.7091 -0.2660 -0.0583
 1739TIP3    H126708   0.214   3.362  21.941  1.0940  2.0037 -2.0509
 1739TIP3    H226709   0.271   3.278  21.829 -1.1020  1.3934 -2.7540
 1740TIP3   OH226710   1.737   1.229  67.417 -0.5242 -0.5013 -0.4698
 1740TIP3    H126711   1.692   1.308  67.446  0.3525  0.1380 -0.8090
 1740TIP3    H226712   1.673   1.185  67.361 -1.4737 -0.6916  0.7137
 1741TIP3   OH226713   2.135   1.692   3.001 -0.7602  0.6022 -0.5796
 1741TIP3    H126714   2.110   1.749   2.928  0.7536  0.9101 -0.8897
 1741TIP3    H226715   2.226   1.715   3.020 -0.1730 -1.5098 -0.5397
 1742TIP3   OH226716   0.743   0.762   7.539 -0.3962 -0.2919 -0.0723
 1742TIP3    H126717   0.661   0.776   7.585 -0.4480 -0.5034 -0.1020
 1742TIP3    H226718   0.768   0.849   7.508 -0.9243 -0.3217 -0.6020
 1743TIP3   OH226719   3.138   3.195  15.671  0.2764 -0.0262  0.2184
 1743TIP3    H126720   3.197   3.213  15.745  1.3906  0.1011 -0.6753
 1743TIP3    H226721   3.180   3.124  15.623  0.0682  0.5437 -0.8370
 1744TIP3   OH226722   0.132   1.779  49.516  0.7018 -0.0320 -0.5295
 1744TIP3    H126723   0.173   1.725  49.448  1.0075 -0.6823  0.1547
 1744TIP3    H226724   0.206   1.825  49.557  0.5712  0.0144 -0.3455
 1745TIP3   OH226725   1.337   0.979  59.032  0.1127  0.4722 -0.0340
 1745TIP3    H126726   1.275   0.990  58.960  1.0327  1.0289 -0.7605
 1745TIP3    H226727   1.367   0.888  59.023  0.5330  0.6640 -0.6138
 1746TIP3   OH226728   1.485   0.126  37.751  0.4777  0.3270 -0.4915
 1746TIP3    H126729   1.394   0.116  37.720 -0.3816  1.4511  1.4737
 1746TIP3    H226730   1.494   0.220  37.767  1.2456 -0.0309  1.4061
 1747TIP3   OH226731   2.950   2.024  60.187 -0.4056 -0.0859  0.2686
 1747TIP3    H126732   2.857   2.007  60.203 -0.1460 -1.9683 -0.0032
 1747TIP3    H226733   2.958   2.030  60.092 -0.0801 -1.1182  0.2215
 1748TIP3   OH226734   0.233   1.006  61.293 -0.6538  0.7100  0.4801
 1748TIP3    H126735   0.259   0.945  61.362  1.9313  0.4415 -0.6215
 1748TIP3    H226736   0.219   1.089  61.339  0.3568  0.3750  1.4346
 1749TIP3   OH226737   0.842   1.817   3.419  0.0661  0.1127  0.3313
 1749TIP3    H126738   0.878   1.816   3.330 -2.6702 -1.9920 -0.8974
 1749TIP3    H226739   0.900   1.759   3.469 -0.6191 -1.9649 -1.1830
 1750TIP3   OH226740   2.959   1.665  16.871  0.0977  0.5932  0.3619
 1750TIP3    H126741   3.011   1.691  16.795 -1.5956 -0.0755 -1.0821
 1750TIP3    H226742   2.944   1.571  16.859  0.9400  0.1562  2.2770
 1751TIP3   OH226743   2.243   3.109  62.771 -0.1112 -0.2603  0.6437
 1751TIP3    H126744   2.331   3.085  62.802  0.6177  0.2330 -0.9256
 1751TIP3    H226745   2.254   3.199  62.739 -1.0539 -0.4109 -0.1116
 1752TIP3   OH226746   0.662   3.329  66.764  0.1520  0.0609  0.6981
 1752TIP3    H126747   0.677   3.410  66.812  1.8764  1.4901 -1.9897
 1752TIP3    H226748   0.575   3.339  66.726  0.5455  0.9078 -0.0146
 1753TIP3   OH226749   0.220   1.949   8.333 -0.2567  0.1399 -0.0698
 1753TIP3    H126750   0.191   2.005   8.262 -2.5458 -2.5916 -1.5053
 1753TIP3    H226751   0.242   1.866   8.291 -0.1673 -1.1142  2.2442
 1754TIP3   OH226752   0.385   2.488  48.839  0.2587  0.1474  0.4805
 1754TIP3    H126753   0.435   2.481  48.757  1.8539  1.0165  1.3346
 1754TIP3    H226754   0.346   2.401  48.850 -0.3241  0.1143 -1.3802
 1755TIP3   OH226755   2.444   1.887   5.983  0.1461  0.0056  0.2572
 1755TIP3    H126756   2.379   1.838   5.932 -0.6723 -0.2130  1.4594
 1755TIP3    H226757   2.497   1.932   5.918 -0.0182 -1.3148 -0.8342
 1756TIP3   OH226758   1.689   1.930  61.318  0.3858  0.0350 -0.1297
 1756TIP3    H126759   1.651   1.918  61.231  0.8173  0.2595 -0.3495
 1756TIP3    H226760   1.665   1.851  61.366 -0.9726  0.4746 -0.0369
 1757TIP3   OH226761   1.609   0.222   3.283  0.4956  0.4462  0.0236
 1757TIP3    H126762   1.544   0.175   3.230 -0.4925  0.8277  0.8678
 1757TIP3    H226763   1.625   0.303   3.235 -1.3065  1.3518  0.8499
 1758TIP3   OH226764   1.140   2.166  54.830 -0.1450 -0.7408 -0.3173
 1758TIP3    H126765   1.178   2.165  54.918 -0.9325 -0.9848  0.0376
 1758TIP3    H226766   1.215   2.170  54.771  0.4236 -1.1703  0.3522
 1759TIP3   OH226767   1.124   0.396   1.996 -0.7244 -0.0534 -0.3486
 1759TIP3    H126768   1.071   0.387   2.076 -0.4294  1.0056 -0.0234
 1759TIP3    H226769   1.196   0.454   2.021  1.0964 -2.0971 -0.5508
 1760TIP3   OH226770   0.589   1.902  66.008 -0.1238  0.4109  0.4513
 1760TIP3    H126771   0.509   1.938  65.969 -0.6717 -1.9470 -0.7630
 1760TIP3    H226772   0.653   1.903  65.938 -0.6417 -2.3509 -0.1946
 1761TIP3   OH226773   3.001   0.545  29.186 -0.3961 -0.6962  0.2337
 1761TIP3    H126774   3.009   0.458  29.145  1.1540 -0.5380  0.1441
 1761TIP3    H226775   3.006   0.606  29.112  1.3928 -0.4508  0.5042
 1762TIP3   OH226776   1.766   2.143   2.916 -0.8977 -0.2711 -0.6998
 1762TIP3    H126777   1.771   2.076   2.983 -1.6775 -0.8588 -1.2133
 1762TIP3    H226778   1.672   2.155   2.900 -0.7739  0.8298 -0.7282
 1763TIP3   OH226779   2.166   0.579  15.669  0.1718  0.2136  0.7197
 1763TIP3    H126780   2.229   0.651  15.664 -1.0298  1.2277 -1.3033
 1763TIP3    H226781   2.087   0.619  15.705 -0.4036 -0.1437 -0.1029
 1764TIP3   OH226782   0.687   1.507  50.025  0.0528 -0.1972  0.1730
 1764TIP3    H126783   0.630   1.467  49.959 -0.4990  0.7701  0.0537
 1764TIP3    H226784   0.762   1.447  50.030  0.5897  0.1851 -2.0567
 1765TIP3   OH226785   0.624   3.257  20.756  0.3572 -0.2306  0.2803
 1765TIP3    H126786   0.644   3.211  20.674 -0.5533  2.3658 -1.5152
 1765TIP3    H226787   0.620   3.349  20.732 -1.9137  0.4815  2.8741
 1766TIP3   OH226788   1.313   1.951  14.961 -0.6900  0.3250 -0.0552
 1766TIP3    H126789   1.252   2.024  14.974 -1.4188 -0.2163 -0.3926
 1766TIP3    H226790   1.259   1.880  14.926  0.1642 -0.1165 -0.5100
 1767TIP3   OH226791   2.912   1.446  45.833 -0.3780  0.2154  0.1550
 1767TIP3    H126792   2.925   1.479  45.921 -0.7242 -1.2350  0.7751
 1767TIP3    H226793   2.896   1.352  45.844  0.4832 -0.1740 -1.5097
 1768TIP3   OH226794   3.443   1.118  63.417  0.3908 -0.3353 -0.3244
 1768TIP3    H126795   3.390   1.197  63.430  0.5431 -0.2410 -0.2842
 1768TIP3    H226796   3.447   1.108  63.322  3.0097  1.4970 -0.5306
 1769TIP3   OH226797   0.620   1.812  55.049 -0.2293  0.1868 -0.3826
 1769TIP3    H126798   0.569   1.748  55.099  0.0146 -1.6890 -2.3387
 1769TIP3    H226799   0.621   1.891  55.103 -0.3881 -1.5107  2.2553
 1770TIP3   OH226800   2.314   1.049  16.447 -0.0379  0.0207  0.3537
 1770TIP3    H126801   2.305   1.139  16.414 -0.1109 -0.4606 -1.0130
 1770TIP3    H226802   2.393   1.015  16.404 -0.2917 -0.7267  0.4553
 1771TIP3   OH226803   2.864   1.503   6.937  0.3729 -0.5281  0.4599
 1771TIP3    H126804   2.945   1.514   6.987  0.9116 -0.8906 -0.3227
 1771TIP3    H226805   2.803   1.464   7.000  1.3322 -1.8917  0.5904
 1772TIP3   OH226806   0.596   2.216  48.364 -0.3090 -0.1095  0.0296
 1772TIP3    H126807   0.626   2.269  48.290  0.9202 -0.6731  0.1105
 1772TIP3    H226808   0.534   2.273  48.410  0.4151  0.9790 -0.3098
 1773TIP3   OH226809   2.332   3.241  61.930 -0.0711 -0.0466 -0.1637
 1773TIP3    H126810   2.291   3.281  61.853 -1.2928 -0.4169  0.2706
 1773TIP3    H226811   2.385   3.311  61.968 -1.2359  0.8189 -0.0823
 1774TIP3   OH226812   3.420   0.238  11.165 -0.2264  0.3645 -0.7223
 1774TIP3    H126813   3.393   0.207  11.252 -0.7720  0.0016 -1.0190
 1774TIP3    H226814   3.339   0.244  11.115  0.3559 -2.8854 -2.3492
 1775TIP3   OH226815   1.142   1.678   5.596 -0.2446 -0.5351 -0.3960
 1775TIP3    H126816   1.137   1.708   5.505 -0.2010  0.2745 -0.1384
 1775TIP3    H226817   1.080   1.734   5.643 -0.2490 -0.9378  0.0761
 1776TIP3   OH226818   0.269   2.093  49.160 -0.1239  0.1100  0.1224
 1776TIP3    H126819   0.194   2.137  49.122 -0.5271 -1.0297 -0.4343
 1776TIP3    H226820   0.323   2.067  49.085 -0.3975 -1.2119  0.3567
 1777TIP3   OH226821   2.962   1.350   4.872  0.0384 -0.0304 -0.0295
 1777TIP3    H126822   2.911   1.342   4.953  0.4957 -0.1684  0.2509
 1777TIP3    H226823   2.959   1.263   4.833 -1.5902  0.4275 -1.0437
 1778TIP3   OH226824   0.090   2.447  47.900 -0.7399 -0.2789  0.1934
 1778TIP3    H126825   0.016   2.407  47.854  0.5786 -2.8380  0.0732
 1778TIP3    H226826   0.094   2.536  47.868 -2.1700 -0.8631 -1.7824
 1779TIP3   OH226827   1.821   2.119   4.198  0.5166 -0.0781  0.6271
 1779TIP3    H126828   1.850   2.200   4.240 -1.2803 -0.3832  2.6297
 1779TIP3    H226829   1.782   2.068   4.268 -1.5379 -1.1796 -1.1782
 1780TIP3   OH226830   3.038   1.167   7.931 -0.5444 -0.0989  0.0034
 1780TIP3    H126831   2.989   1.205   7.859  0.2973  0.1694 -0.4438
 1780TIP3    H226832   3.076   1.087   7.895  0.3363  0.3207 -0.0345
 1781TIP3   OH226833   0.994   2.353  37.318  0.5680 -0.4674 -0.2038
 1781TIP3    H126834   0.903   2.381  37.330  0.2754 -1.0953 -0.8936
 1781TIP3    H226835   0.988   2.263  37.287  1.3179  0.2157 -2.5458
 1782TIP3   OH226836   2.491   0.141  58.007  0.4844  0.3837  0.3730
 1782TIP3    H126837   2.460   0.051  58.020 -1.4543  0.7142 -1.3634
 1782TIP3    H226838   2.420   0.183  57.958  1.3026  2.9002  1.2257
 1783TIP3   OH226839   0.478   2.931  13.362 -0.3732  0.1809  0.5721
 1783TIP3    H126840   0.444   2.856  13.410 -0.0373 -1.0489 -1.0068
 1783TIP3    H226841   0.570   2.910  13.347 -0.0003  1.4232  1.0326
 1784TIP3   OH226842   1.389   0.291  46.538 -0.4964  0.1322 -0.4718
 1784TIP3    H126843   1.463   0.245  46.579 -0.7887 -0.0502 -0.1401
 1784TIP3    H226844   1.349   0.340  46.610 -0.4305  0.5880 -0.7428
 1785TIP3   OH226845   2.691   2.011  51.301 -0.1733  0.1528 -0.3794
 1785TIP3    H126846   2.778   2.031  51.267  0.3907  0.4427  1.1631
 1785TIP3    H226847   2.639   2.089  51.283  0.6031  1.0184  0.9684
 1786TIP3   OH226848   2.173   2.644  26.605 -0.1234 -0.2594  0.2211
 1786TIP3    H126849   2.104   2.709  26.616  1.1542  1.2315 -0.1805
 1786TIP3    H226850   2.172   2.594  26.687 -1.7137 -0.3593  0.1801
 1787TIP3   OH226851   2.663   0.566  60.693 -0.0922  0.5660  0.1231
 1787TIP3    H126852   2.733   0.502  60.680  0.2157  0.7395  0.8040
 1787TIP3    H226853   2.662   0.580  60.788  0.3928  2.1438 -0.0706
 1788TIP3   OH226854   2.528   2.901  66.805 -0.4121 -0.5714 -0.0468
 1788TIP3    H126855   2.550   2.917  66.713 -0.3436 -1.0949 -0.1202
 1788TIP3    H226856   2.492   2.985  66.835 -0.1052 -0.2874 -0.4474
 1789TIP3   OH226857   2.069   1.312  26.581 -0.3473 -0.0507 -0.2947
 1789TIP3    H126858   2.046   1.245  26.517 -1.9502 -0.5247  0.6961
 1789TIP3    H226859   2.025   1.391  26.550 -1.4868 -0.3869  0.4028
 1790TIP3   OH226860   0.398   0.435  11.091  0.8917  0.1659  0.4227
 1790TIP3    H126861   0.412   0.485  11.171  2.8943 -0.4991  0.5686
 1790TIP3    H226862   0.451   0.480  11.025  0.5809 -0.2277 -0.1032
 1791TIP3   OH226863   3.018   1.740  47.395  0.4705 -0.1588  0.0384
 1791TIP3    H126864   2.945   1.684  47.367 -0.8479 -0.6345  3.7533
 1791TIP3    H226865   3.004   1.822  47.349 -1.1262 -0.9703 -1.0341
 1792TIP3   OH226866   3.422   1.050  64.633  0.1164 -0.8809 -0.4396
 1792TIP3    H126867   3.481   1.110  64.588  0.1173 -0.2257  0.4015
 1792TIP3    H226868   3.454   1.049  64.724 -0.9114 -0.8406 -0.0609
 1793TIP3   OH226869   2.529   0.799  27.691 -0.5386  0.1774  0.1622
 1793TIP3    H126870   2.612   0.753  27.694 -0.9522 -0.6634 -0.9078
 1793TIP3    H226871   2.519   0.835  27.780  0.6988 -0.1467  0.4525
 1794TIP3   OH226872   1.515   2.369  49.928  0.3260 -0.7499 -0.3969
 1794TIP3    H126873   1.464   2.313  49.987 -0.5842 -1.2729 -1.6385
 1794TIP3    H226874   1.527   2.450  49.977 -1.6415 -0.6463 -0.0027
 1795TIP3   OH226875   0.323   3.445  58.939 -0.0253 -0.6690 -0.0771
 1795TIP3    H126876   0.272   3.489  59.007  0.8611 -0.3910  0.4320
 1795TIP3    H226877   0.295   3.354  58.943 -1.1387 -0.3495 -0.4399
 1796TIP3   OH226878   0.720   2.936  61.685 -0.2425  0.0652  0.5042
 1796TIP3    H126879   0.719   2.868  61.752  1.9451 -0.9396 -0.3645
 1796TIP3    H226880   0.706   2.889  61.603 -0.0980  0.8512  0.0163
 1797TIP3   OH226881   1.194   1.911  60.655  0.4770 -0.6733 -0.0002
 1797TIP3    H126882   1.103   1.932  60.632  0.1086 -0.3436  1.6229
 1797TIP3    H226883   1.223   1.852  60.586 -0.2435  0.9312 -1.7491
 1798TIP3   OH226884   1.264   2.542  66.327  0.0620  0.5018  0.1503
 1798TIP3    H126885   1.194   2.552  66.392 -1.3109  1.9379 -1.4743
 1798TIP3    H226886   1.327   2.609  66.350  0.2021  0.1737  0.7416
 1799TIP3   OH226887   0.854   2.906  37.155  0.7015  0.0627  0.5107
 1799TIP3    H126888   0.886   2.993  37.177  0.3187  0.1454  0.7594
 1799TIP3    H226889   0.869   2.897  37.061  1.9420 -0.1140  0.7044
 1800TIP3   OH226890   2.437   1.126  66.192 -0.5612  0.3180  0.1021
 1800TIP3    H126891   2.492   1.170  66.128  2.4758 -0.2894  2.0623
 1800TIP3    H226892   2.430   1.036  66.160  1.2446 -0.0769  0.6837
 1801TIP3   OH226893   0.247   0.237   4.170  0.0201 -0.2638  0.1156
 1801TIP3    H126894   0.209   0.310   4.218  0.9546  0.7496 -0.6520
 1801TIP3    H226895   0.264   0.170   4.237  3.9366  2.1386  1.8359
 1802TIP3   OH226896   1.906   2.264  21.102  0.5003 -0.0785 -0.2141
 1802TIP3    H126897   1.812   2.273  21.087  0.0302 -3.0677  0.1733
 1802TIP3    H226898   1.936   2.351  21.127 -2.4261  0.6826  1.0155
 1803TIP3   OH226899   0.014   0.437  49.502 -0.1184 -0.0508  0.4771
 1803TIP3    H126900  -0.055   0.461  49.564  0.7221  1.2877  0.9370
 1803TIP3    H226901   0.072   0.513  49.500 -0.4287  0.2138 -2.4033
 1804TIP3   OH226902   0.591   1.888  44.922 -0.2377  0.2379 -0.7337
 1804TIP3    H126903   0.561   1.978  44.917  0.8980  0.6920  0.1915
 1804TIP3    H226904   0.605   1.862  44.831 -0.3508  1.0677 -0.9887
 1805TIP3   OH226905   3.206   1.563  57.135 -0.4253 -0.0583  0.0367
 1805TIP3    H126906   3.275   1.620  57.169 -0.5839  0.3013 -0.2464
 1805TIP3    H226907   3.127   1.616  57.138 -0.4491 -0.0229 -0.8853
 1806TIP3   OH226908   1.104   1.840  57.980 -0.4289 -0.0032  0.5949
 1806TIP3    H126909   1.114   1.773  58.048 -3.6933 -0.6963  0.5752
 1806TIP3    H226910   1.161   1.812  57.909 -1.4136 -2.6557  0.7304
 1807TIP3   OH226911   1.089   1.740  66.154  0.3522 -0.2715  0.2135
 1807TIP3    H126912   1.137   1.821  66.138  0.8811 -0.7626 -0.7915
 1807TIP3    H226913   0.997   1.763  66.139  0.0972  0.8610  2.8639
 1808TIP3   OH226914   0.654   3.027   7.741  0.3091  0.1910  0.1495
 1808TIP3    H126915   0.713   3.019   7.666  0.5728  1.7436  0.1594
 1808TIP3    H226916   0.582   2.967   7.721  0.7076  0.0625 -1.0046
 1809TIP3   OH226917   0.780   0.747  62.246 -0.4758 -0.5849  0.3976
 1809TIP3    H126918   0.861   0.729  62.198 -1.5448  0.0471 -1.7791
 1809TIP3    H226919   0.806   0.813  62.312  1.0821 -1.6379  0.8972
 1810TIP3   OH226920   0.495   1.845  12.868 -0.3080 -0.3022  0.4447
 1810TIP3    H126921   0.424   1.879  12.814  0.7304  0.2971 -0.5834
 1810TIP3    H226922   0.574   1.856  12.815  0.5487 -1.0847  1.4938
 1811TIP3   OH226923   0.524   2.268  56.959 -0.3998  0.1956 -0.3140
 1811TIP3    H126924   0.578   2.336  56.999  0.0988 -0.2446 -0.2174
 1811TIP3    H226925   0.440   2.310  56.943 -0.4190  0.5489  0.6606
 1812TIP3   OH226926   0.779   0.431  16.989  0.4570 -0.5098 -0.6195
 1812TIP3    H126927   0.852   0.374  17.013 -0.9842 -1.5405  1.7368
 1812TIP3    H226928   0.758   0.479  17.068 -0.8299  0.4614 -1.4972
 1813TIP3   OH226929   1.893   2.099  44.169  0.3745 -0.1893  0.2467
 1813TIP3    H126930   1.859   2.103  44.258  1.5879  0.6309  0.6851
 1813TIP3    H226931   1.940   2.181  44.157 -2.5898  1.3734 -2.3723
 1814TIP3   OH226932   0.951   0.264  35.013 -1.1540 -0.3375  0.1031
 1814TIP3    H126933   0.942   0.355  34.982  0.2134 -0.0701  0.4372
 1814TIP3    H226934   1.038   0.237  34.983 -0.7078 -0.8313  1.7496
 1815TIP3   OH226935   0.772   2.009   6.705 -0.2513 -0.3022  0.5549
 1815TIP3    H126936   0.800   2.097   6.679  0.2851 -0.7896 -0.5905
 1815TIP3    H226937   0.694   2.024   6.760 -0.6937  0.8508 -0.3374
 1816TIP3   OH226938   2.857   1.494   0.068  0.4363 -0.1245 -0.5645
 1816TIP3    H126939   2.829   1.542   0.146  1.8999 -1.8264  1.1021
 1816TIP3    H226940   2.782   1.439   0.046  0.0671  0.2489 -0.2643
 1817TIP3   OH226941   1.088   1.911  63.243  0.0269  0.6321 -0.4178
 1817TIP3    H126942   1.106   1.991  63.293 -0.0438  1.0446 -1.0338
 1817TIP3    H226943   0.997   1.920  63.215 -0.2916 -0.1338  0.3349
 1818TIP3   OH226944   1.119   0.455  58.368 -0.7115 -0.1365  0.4529
 1818TIP3    H126945   1.146   0.503  58.290 -0.1853  0.1434  0.8009
 1818TIP3    H226946   1.077   0.521  58.424 -0.1576 -0.1171  0.8506
 1819TIP3   OH226947   2.596   1.857  43.574  0.2792  0.8250 -0.1973
 1819TIP3    H126948   2.686   1.838  43.601  0.7924  1.5966 -1.2928
 1819TIP3    H226949   2.606   1.907  43.493 -1.1616 -1.0226 -1.6068
 1820TIP3   OH226950   1.263   1.165  11.985 -0.2050  0.0898  0.0909
 1820TIP3    H126951   1.200   1.134  12.050 -0.1915 -0.6875 -0.2636
 1820TIP3    H226952   1.310   1.086  11.957 -0.2180  0.4133 -0.8760
 1821TIP3   OH226953   0.223   1.267  45.919  0.8522 -0.5640 -0.5515
 1821TIP3    H126954   0.178   1.351  45.935  2.2620  0.1674 -0.2725
 1821TIP3    H226955   0.311   1.280  45.953  0.5191 -2.9164  1.5083
 1822TIP3   OH226956   0.419   0.685  66.586  0.3288 -0.8581 -0.0595
 1822TIP3    H126957   0.324   0.687  66.600  0.5210 -0.7396  1.3270
 1822TIP3    H226958   0.433   0.745  66.512 -0.4692  0.8768  1.1161
 1823TIP3   OH226959   3.421   1.697  12.958 -0.3439 -0.4729  0.1425
 1823TIP3    H126960   3.351   1.727  13.016  0.3071  1.1280  0.1421
 1823TIP3    H226961   3.446   1.611  12.993 -2.3880 -1.1748  0.0437
 1824TIP3   OH226962   2.625   0.310  19.575  0.6477 -0.7320  0.7136
 1824TIP3    H126963   2.604   0.315  19.668 -0.0722 -0.1502  0.5279
 1824TIP3    H226964   2.577   0.383  19.535 -2.6971 -3.4851 -0.7912
 1825TIP3   OH226965   1.869   3.006  48.748  0.7932 -0.0022  0.5280
 1825TIP3    H126966   1.817   3.056  48.685  1.5728  0.3766  0.1622
 1825TIP3    H226967   1.944   2.975  48.697  1.0949 -0.2456  1.1162
 1826TIP3   OH226968   3.156   2.356  46.852  0.0159  0.2574  0.2274
 1826TIP3    H126969   3.217   2.379  46.783 -0.6875  2.1536  0.1734
 1826TIP3    H226970   3.163   2.261  46.860  0.0044 -0.0738 -2.5654
 1827TIP3   OH226971   1.249   0.085  16.604  0.2415 -0.3251  0.4879
 1827TIP3    H126972   1.307   0.066  16.531 -0.3431 -1.7782  0.3555
 1827TIP3    H226973   1.280   0.028  16.675 -0.6593 -0.7176  0.5832
 1828TIP3   OH226974   1.996   1.074  48.099 -0.2536  0.2517  0.1238
 1828TIP3    H126975   1.999   1.065  48.194 -0.6975 -0.8760  0.0478
 1828TIP3    H226976   1.911   1.113  48.081 -1.2596 -1.8393  0.0704
 1829TIP3   OH226977   1.105   3.165  15.787 -0.1762  0.2419 -0.2342
 1829TIP3    H126978   1.091   3.081  15.743 -1.0024  0.6047 -0.6874
 1829TIP3    H226979   1.126   3.226  15.716 -2.1134  0.9676 -0.2617
 1830TIP3   OH226980   3.204   2.524   2.430  0.0575  0.9648 -0.1234
 1830TIP3    H126981   3.260   2.484   2.496 -0.5210  2.3839  1.2975
 1830TIP3    H226982   3.120   2.479   2.439 -0.2166  1.5880  0.6066
 1831TIP3   OH226983   1.501   2.411  13.178 -0.3451  0.5184 -0.0854
 1831TIP3    H126984   1.482   2.357  13.254  1.3002  0.2898  0.1891
 1831TIP3    H226985   1.492   2.351  13.103  0.5620  0.0707  0.1472
 1832TIP3   OH226986   2.159   2.425   5.880  0.0892 -0.0684 -0.5343
 1832TIP3    H126987   2.127   2.488   5.815 -1.5342  2.7655  2.6384
 1832TIP3    H226988   2.079   2.391   5.920  1.0045 -1.0256  0.5380
 1833TIP3   OH226989   1.237   0.071  46.480 -0.2265 -0.1385  0.0199
 1833TIP3    H126990   1.301   0.141  46.489 -0.5773  0.1163  0.6013
 1833TIP3    H226991   1.211   0.073  46.388 -1.1677  1.3338  0.2886
 1834TIP3   OH226992   0.248   1.321  51.581  0.0582 -0.0217  0.6415
 1834TIP3    H126993   0.245   1.243  51.524 -0.9821  0.7432 -0.3893
 1834TIP3    H226994   0.167   1.317  51.631  0.2266  0.1592  0.9313
 1835TIP3   OH226995   0.110   2.250  20.199 -0.0055  0.2200 -0.0678
 1835TIP3    H126996   0.140   2.337  20.226 -1.1310  0.5696  0.1475
 1835TIP3    H226997   0.084   2.261  20.108  0.6207 -0.1026 -0.2866
 1836TIP3   OH226998   1.818   1.073  51.444  0.0636  0.0654 -0.2585
 1836TIP3    H126999   1.907   1.108  51.436 -0.4968  2.3377  1.9643
 1836TIP3    H227000   1.819   0.993  51.392  3.4391 -0.0707 -0.2260
 1837TIP3   OH227001   0.547   2.779  58.408  0.3330 -0.4911 -0.3557
 1837TIP3    H127002   0.519   2.800  58.497 -1.4284  2.8013 -1.5218
 1837TIP3    H227003   0.642   2.792  58.409  0.0042  2.3628  0.4527
 1838TIP3   OH227004   0.517   3.189  62.861  0.0125  0.1489  0.6129
 1838TIP3    H127005   0.480   3.107  62.828 -0.2354  1.1273 -1.7620
 1838TIP3    H227006   0.580   3.161  62.929  0.4248 -2.0543 -0.5561
 1839TIP3   OH227007   1.778   2.959  26.068  0.1644  0.2545  0.2290
 1839TIP3    H127008   1.824   2.992  26.145 -0.2823 -1.2832  1.2079
 1839TIP3    H227009   1.770   3.035  26.010  2.5229  0.9260  0.6933
 1840TIP3   OH227010   1.091   1.849  59.131  0.0842  0.1178 -0.3751
 1840TIP3    H127011   1.142   1.810  59.060  1.8578  0.1998  0.8216
 1840TIP3    H227012   1.092   1.943  59.113 -0.5054  0.0329 -0.8859
 1841TIP3   OH227013   0.673   2.262  38.004 -0.1973 -0.1651  0.3360
 1841TIP3    H127014   0.583   2.246  38.030 -0.1562  0.4988  0.9291
 1841TIP3    H227015   0.703   2.331  38.064  0.7059 -0.3988  0.1682
 1842TIP3   OH227016   1.960   1.103   8.324 -0.4393  0.1631 -0.4142
 1842TIP3    H127017   1.988   1.019   8.360 -2.6140 -0.0925  0.8649
 1842TIP3    H227018   1.953   1.161   8.400  0.5461  1.3875 -1.2161
 1843TIP3   OH227019   2.317   1.119  25.804 -0.1690 -0.0331 -0.9054
 1843TIP3    H127020   2.351   1.196  25.758 -2.5310  1.0070 -1.0227
 1843TIP3    H227021   2.226   1.112  25.776 -1.2849 -0.2617  2.4268
 1844TIP3   OH227022   0.791   1.224  56.304  0.9690  0.1814 -0.1453
 1844TIP3    H127023   0.837   1.263  56.231  0.7255 -0.5292 -0.6955
 1844TIP3    H227024   0.818   1.132  56.304 -0.4995 -0.2913 -0.5683
 1845TIP3   OH227025   1.588   2.993   1.056  0.3001 -0.2899 -0.3219
 1845TIP3    H127026   1.681   2.974   1.065  0.2852 -0.0399  0.4543
 1845TIP3    H227027   1.552   2.981   1.144 -0.1386  0.9730 -0.3020
 1846TIP3   OH227028   1.802   0.348  52.663 -0.3399 -0.1872  0.2063
 1846TIP3    H127029   1.769   0.402  52.735 -0.0493  2.5770 -1.6024
 1846TIP3    H227030   1.893   0.329  52.687 -0.7775 -0.9073  1.3902
 1847TIP3   OH227031   0.684   2.567  51.457  0.0944 -0.2412  0.0550
 1847TIP3    H127032   0.667   2.644  51.511 -2.3040 -1.3745  1.0486
 1847TIP3    H227033   0.737   2.510  51.513  0.6974  0.0755 -0.1791
 1848TIP3   OH227034   0.357   3.385  13.028  0.7400  0.6876 -0.1157
 1848TIP3    H127035   0.448   3.415  13.029  0.8260  0.4283  0.2339
 1848TIP3    H227036   0.307   3.460  12.995  1.0093  1.0433  0.2758
 1849TIP3   OH227037   2.842   0.585  42.894  0.0349  0.2459  0.0338
 1849TIP3    H127038   2.775   0.529  42.855 -0.8372  1.8981 -0.9536
 1849TIP3    H227039   2.794   0.638  42.958  1.1022 -1.0745  2.0615
 1850TIP3   OH227040   0.272   0.388  64.821 -0.8032  0.2412  0.1973
 1850TIP3    H127041   0.324   0.446  64.876  0.5147 -1.7914  1.2274
 1850TIP3    H227042   0.333   0.318  64.796 -2.0544 -0.2074 -1.8033
 1851TIP3   OH227043   0.910   3.334  21.260 -0.1207  0.7188 -0.1135
 1851TIP3    H127044   0.987   3.377  21.297  0.1751  0.3127 -0.2448
 1851TIP3    H227045   0.928   3.240  21.270 -2.3479  0.4879  3.6070
 1852TIP3   OH227046   1.691   0.160  65.082  0.2759  0.8083  0.2556
 1852TIP3    H127047   1.688   0.250  65.049 -0.1245  0.0311 -2.0523
 1852TIP3    H227048   1.600   0.131  65.080  0.3437  0.4720  1.4217
 1853TIP3   OH227049   2.842   0.297   1.822 -0.3296  0.1520 -0.3375
 1853TIP3    H127050   2.776   0.248   1.871 -0.1321  0.6934  0.5069
 1853TIP3    H227051   2.909   0.233   1.801 -0.2727 -0.0344  0.3848
 1854TIP3   OH227052   0.545   2.432  13.077  0.8690  0.7737  0.2170
 1854TIP3    H127053   0.563   2.436  13.170 -1.5594 -1.2655  0.8824
 1854TIP3    H227054   0.450   2.422  13.071  1.0028  0.2528 -2.4529
 1855TIP3   OH227055   0.059   0.642  46.117  0.4568  0.3661  0.0577
 1855TIP3    H127056   0.123   0.662  46.049  2.6907  0.3077  2.0144
 1855TIP3    H227057   0.035   0.727  46.153  0.1087  0.3276 -0.0795
 1856TIP3   OH227058   2.252   0.503  25.934  0.2555 -0.1217 -0.1161
 1856TIP3    H127059   2.164   0.484  25.967  0.7606 -0.8830  0.8262
 1856TIP3    H227060   2.292   0.558  26.001 -0.4778  2.8068 -1.8785
 1857TIP3   OH227061   2.554   3.271  13.906  0.3424  0.1338 -0.2718
 1857TIP3    H127062   2.609   3.335  13.952 -0.0046 -0.6066  1.2405
 1857TIP3    H227063   2.587   3.186  13.934 -1.0704 -0.3257  0.0693
 1858TIP3   OH227064   3.219   0.623   3.474  0.2916 -0.2079 -0.4404
 1858TIP3    H127065   3.297   0.573   3.453  1.2664  1.2812 -0.5080
 1858TIP3    H227066   3.147   0.560   3.469  1.5906 -1.8211  0.6085
 1859TIP3   OH227067   2.859   2.070  45.441  0.5307  0.1833  0.4570
 1859TIP3    H127068   2.777   2.030  45.412  0.6316  0.5258 -0.3302
 1859TIP3    H227069   2.858   2.061  45.536 -1.0878  1.4329  0.6128
 1860TIP3   OH227070   1.223   1.169   7.045  0.0615 -0.2116  0.1717
 1860TIP3    H127071   1.227   1.244   6.986 -0.2010  0.7023  1.2687
 1860TIP3    H227072   1.301   1.177   7.099 -0.4027 -0.2145  0.8616
 1861TIP3   OH227073   0.093   2.948  50.674 -0.2637  0.3161 -0.6792
 1861TIP3    H127074   0.175   2.902  50.691 -0.4016  0.0502 -0.7159
 1861TIP3    H227075   0.037   2.882  50.632 -1.5227 -0.4317  1.9149
 1862TIP3   OH227076   0.757   3.109  46.790 -0.2200  0.4284 -0.0501
 1862TIP3    H127077   0.790   3.184  46.841 -0.3358 -0.5686  1.5801
 1862TIP3    H227078   0.677   3.083  46.836  0.6983 -1.7056  0.4432
 1863TIP3   OH227079   1.222   0.029  39.086  0.3581  0.3189  0.4599
 1863TIP3    H127080   1.249   0.107  39.134 -0.7395 -0.0244  1.6717
 1863TIP3    H227081   1.299   0.007  39.033  0.9846  1.7157  0.7227
 1864TIP3   OH227082   0.891   3.333  57.619  0.0074 -0.0323  0.1802
 1864TIP3    H127083   0.889   3.428  57.608 -1.1561 -0.0684 -0.1424
 1864TIP3    H227084   0.980   3.313  57.646  1.6982  0.6391 -4.1314
 1865TIP3   OH227085   2.513   2.887  58.573 -0.1477 -0.0521  0.6893
 1865TIP3    H127086   2.573   2.939  58.627  1.9778 -0.2976 -1.3234
 1865TIP3    H227087   2.518   2.928  58.486  0.2264 -2.5084 -0.5148
 1866TIP3   OH227088   1.261   0.038  37.247 -0.1299  0.2198  0.5604
 1866TIP3    H127089   1.237   0.111  37.190  0.5193  0.7557  0.9650
 1866TIP3    H227090   1.206   0.050  37.325  0.9407  1.0677  1.2050
 1867TIP3   OH227091   1.014   2.099  50.598 -0.0637 -0.7921  0.0352
 1867TIP3    H127092   1.009   2.015  50.552  2.4489 -1.9307  1.6333
 1867TIP3    H227093   1.076   2.151  50.547 -1.4629  0.1136 -0.8390
 1868TIP3   OH227094   2.907   2.753  65.095  0.3076 -0.1226  0.3848
 1868TIP3    H127095   2.869   2.840  65.105  1.2711  0.2543  0.8929
 1868TIP3    H227096   2.939   2.730  65.182  1.4570 -0.3173 -0.0723
 1869TIP3   OH227097   2.985   1.114   9.170  0.4046 -0.0428 -0.4493
 1869TIP3    H127098   2.920   1.083   9.233 -1.1052  3.3158 -0.1262
 1869TIP3    H227099   3.065   1.126   9.221 -0.2324  0.7370  0.3896
 1870TIP3   OH227100   0.396   2.727  60.240  0.3610  0.4719  0.2383
 1870TIP3    H127101   0.309   2.762  60.261  0.0584 -0.0422 -0.1128
 1870TIP3    H227102   0.385   2.632  60.244  1.0339  0.4069  0.6627
 1871TIP3   OH227103   1.940   2.420   8.327 -0.3752  0.6133  0.1508
 1871TIP3    H127104   1.946   2.325   8.335 -0.0600  0.6634  0.5540
 1871TIP3    H227105   1.859   2.435   8.278  0.0093  0.1032 -0.6785
 1872TIP3   OH227106   1.137   1.944  18.788 -0.1289 -0.0880 -0.4260
 1872TIP3    H127107   1.110   2.031  18.758 -0.8131 -0.7179 -1.7179
 1872TIP3    H227108   1.064   1.914  18.842 -0.3316 -0.2473 -0.7847
 1873TIP3   OH227109   1.011   0.515  61.834 -0.5904  0.3933 -0.1637
 1873TIP3    H127110   0.949   0.443  61.842 -0.7031 -0.0472 -3.4497
 1873TIP3    H227111   1.097   0.474  61.847 -0.7012 -0.2000 -1.2102
 1874TIP3   OH227112   3.385   2.840  21.150 -0.3555 -0.5982  0.5892
 1874TIP3    H127113   3.472   2.806  21.173 -0.2474  0.0836  1.2166
 1874TIP3    H227114   3.395   2.935  21.155 -1.3391 -0.5268  1.3970
 1875TIP3   OH227115   2.270   0.791  19.517 -0.5207  0.3122  0.2318
 1875TIP3    H127116   2.316   0.758  19.440 -0.2768  1.7160 -0.2649
 1875TIP3    H227117   2.219   0.865  19.484  0.9007  2.0237  1.6869
 1876TIP3   OH227118   0.108   2.102  10.049  0.4311 -0.2627  0.4689
 1876TIP3    H127119   0.021   2.141  10.059  1.0234  1.2931 -0.1383
 1876TIP3    H227120   0.150   2.116  10.133  0.5858  0.3021  0.3039
 1877TIP3   OH227121   3.433   1.099  26.500  0.1583  0.9359  0.0821
 1877TIP3    H127122   3.394   1.187  26.505  0.1197  1.0096 -1.0832
 1877TIP3    H227123   3.509   1.103  26.557  0.1641  1.7351  0.0339
 1878TIP3   OH227124   0.334   1.100  63.860  0.3115 -0.3202 -0.1873
 1878TIP3    H127125   0.265   1.145  63.908 -0.6951 -1.8629 -0.1505
 1878TIP3    H227126   0.413   1.153  63.878 -0.5434  0.6292  0.9731
 1879TIP3   OH227127   2.159   2.310  50.244 -0.1240 -0.1501 -0.3254
 1879TIP3    H127128   2.205   2.348  50.169 -0.9630 -0.9131 -1.2531
 1879TIP3    H227129   2.161   2.216  50.228 -0.0638 -0.3492  0.7782
 1880TIP3   OH227130   2.534   2.166  13.948  0.1644  0.5086  0.0666
 1880TIP3    H127131   2.448   2.192  13.915 -0.9627  0.5503  2.7564
 1880TIP3    H227132   2.550   2.079  13.911 -2.1431 -0.4982  1.2421
 1881TIP3   OH227133   2.303   0.390  46.209  0.7616  0.3154 -0.2245
 1881TIP3    H127134   2.292   0.430  46.295  1.8209 -0.2487  0.1954
 1881TIP3    H227135   2.340   0.459  46.155  1.0867  0.3692  0.0639
 1882TIP3   OH227136   2.225   0.591  56.048 -0.0820 -0.8162  0.1429
 1882TIP3    H127137   2.161   0.591  56.120 -0.6943 -0.1245 -0.3821
 1882TIP3    H227138   2.177   0.556  55.973 -0.0771  0.3617 -0.4328
 1883TIP3   OH227139   3.035   0.039  20.523 -0.3154  0.0051 -0.1005
 1883TIP3    H127140   3.048   0.026  20.617  1.9127 -1.8103 -0.5649
 1883TIP3    H227141   3.120   0.017  20.484 -0.4072  3.0473 -2.3885
 1884TIP3   OH227142   2.452   0.281  20.389  0.4676  0.1846  0.0291
 1884TIP3    H127143   2.451   0.317  20.477  1.2127 -0.4969  0.3363
 1884TIP3    H227144   2.367   0.238  20.378 -1.0052  3.0606 -0.8303
 1885TIP3   OH227145   0.056   1.109  21.311  0.1530  0.6711  0.5268
 1885TIP3    H127146  -0.011   1.045  21.334  0.4026  0.9151  2.0901
 1885TIP3    H227147   0.033   1.187  21.363  1.4089  0.8757  0.8101
 1886TIP3   OH227148   1.444   3.314  53.119 -0.3189  0.3725 -0.1922
 1886TIP3    H127149   1.355   3.294  53.146 -0.1028 -0.5578 -0.1188
 1886TIP3    H227150   1.482   3.228  53.098  0.3862  0.8064 -0.7338
 1887TIP3   OH227151   1.122   0.097  61.168 -0.4392  0.6810 -0.0730
 1887TIP3    H127152   1.089   0.067  61.084 -0.7809 -1.4348  0.7423
 1887TIP3    H227153   1.047   0.092  61.227  0.4486 -0.8504  1.0090
 1888TIP3   OH227154   0.474   0.657  30.384 -0.4498 -0.5215  0.3490
 1888TIP3    H127155   0.547   0.606  30.349  0.3942  2.6986 -3.2861
 1888TIP3    H227156   0.500   0.678  30.474  3.9451  1.5233 -1.1143
 1889TIP3   OH227157   1.193   3.195  21.836  0.3576 -0.2165  0.2941
 1889TIP3    H127158   1.172   3.137  21.909  0.3868  0.4730  0.8665
 1889TIP3    H227159   1.188   3.283  21.873 -0.3649  0.1946 -0.7152
 1890TIP3   OH227160   1.901   2.434  43.202  0.7150  0.1172  0.0263
 1890TIP3    H127161   1.902   2.364  43.268  0.2766  1.5702  1.6290
 1890TIP3    H227162   1.966   2.497  43.232 -0.6747  1.6163 -0.0169
 1891TIP3   OH227163   3.086   1.241  64.963 -0.4155 -0.0384  0.4438
 1891TIP3    H127164   3.061   1.175  65.027  1.0997  1.6344  2.9301
 1891TIP3    H227165   3.007   1.256  64.911 -2.1255 -0.5918  2.7498
 1892TIP3   OH227166   1.306   2.797  14.831  0.1091 -0.1624  0.1094
 1892TIP3    H127167   1.319   2.793  14.926  0.3174 -1.6236  0.0448
 1892TIP3    H227168   1.348   2.879  14.804 -1.8001  1.3875  1.5289
 1893TIP3   OH227169   1.572   1.687  59.755  0.3437  0.5422  0.1936
 1893TIP3    H127170   1.490   1.718  59.715  0.4325  0.4435 -0.0681
 1893TIP3    H227171   1.591   1.752  59.823 -0.9791 -0.4722  1.6035
 1894TIP3   OH227172   1.264   2.392   8.326  0.6935  0.0203  0.1656
 1894TIP3    H127173   1.341   2.350   8.287 -0.2427 -0.3898 -1.3012
 1894TIP3    H227174   1.204   2.320   8.345 -0.5373  0.5250 -1.5027
 1895TIP3   OH227175   3.039   1.790  22.906  0.1131  0.2989 -0.4568
 1895TIP3    H127176   3.083   1.705  22.916  0.5568  0.6550  0.7145
 1895TIP3    H227177   3.109   1.855  22.912 -0.2199  0.7687 -1.4002
 1896TIP3   OH227178   0.677   0.749  64.198  0.2009 -0.2887  0.1228
 1896TIP3    H127179   0.640   0.675  64.246 -0.2116 -0.0464  0.1880
 1896TIP3    H227180   0.768   0.725  64.183  0.0002 -0.9184 -0.0880
 1897TIP3   OH227181   2.512   2.066  48.770  0.0619 -0.8101  0.1807
 1897TIP3    H127182   2.573   2.046  48.841  2.0079 -0.1254 -1.1912
 1897TIP3    H227183   2.538   2.007  48.699  1.2355  1.5184 -1.4695
 1898TIP3   OH227184   0.988   2.396  10.301  0.5588  0.0139 -0.1646
 1898TIP3    H127185   0.973   2.313  10.347 -1.2149  0.4974  0.2430
 1898TIP3    H227186   0.952   2.382  10.214 -0.0690  0.4187  0.0129
 1899TIP3   OH227187   2.993   0.251   5.962 -0.2839  0.1219 -0.1934
 1899TIP3    H127188   3.013   0.251   5.868  0.2545 -1.9734 -0.1503
 1899TIP3    H227189   2.967   0.160   5.980  0.0382  0.3769  1.7542
 1900TIP3   OH227190   2.580   0.279  47.660  0.0291 -0.0475 -0.2975
 1900TIP3    H127191   2.514   0.348  47.669 -1.0476 -1.0291 -0.4224
 1900TIP3    H227192   2.596   0.274  47.566  0.9363  0.7710 -0.1986
 1901TIP3   OH227193   2.106   1.276  18.755 -0.1020 -0.1392 -0.1697
 1901TIP3    H127194   2.122   1.183  18.739 -0.6387 -0.5621  1.4938
 1901TIP3    H227195   2.011   1.283  18.763 -0.0258  0.4209  0.3559
 1902TIP3   OH227196   3.229   0.276  11.631 -0.2633  0.8234 -0.1016
 1902TIP3    H127197   3.271   0.362  11.632  0.2499  0.5662  0.7895
 1902TIP3    H227198   3.196   0.264  11.720  0.8283 -0.4536  0.1658
 1903TIP3   OH227199   2.106   1.904  47.990  0.1854 -0.1126 -0.1433
 1903TIP3    H127200   2.113   1.829  47.931  0.0690  0.1025 -0.4286
 1903TIP3    H227201   2.190   1.949  47.981  0.8419 -1.0063  1.1138
 1904TIP3   OH227202   2.824   0.622  56.255  0.3131 -0.0323  0.1890
 1904TIP3    H127203   2.772   0.691  56.214 -0.4236 -1.9073 -2.2681
 1904TIP3    H227204   2.888   0.597  56.188  0.0901 -2.1795  0.6976
 1905TIP3   OH227205   1.995   1.549  56.237  0.3192  0.0547 -0.3725
 1905TIP3    H127206   2.066   1.612  56.223  0.1710  0.3927  0.3446
 1905TIP3    H227207   2.038   1.464  56.230  1.1751  0.2496  1.6843
 1906TIP3   OH227208   0.636   0.591   0.188  0.7454 -0.1716 -0.1729
 1906TIP3    H127209   0.678   0.557   0.266 -1.4563 -0.6489  0.9004
 1906TIP3    H227210   0.542   0.575   0.203  0.0800  1.6268 -1.9701
 1907TIP3   OH227211   1.834   2.599  15.752 -0.4537  0.5474 -0.8661
 1907TIP3    H127212   1.911   2.545  15.764 -0.4266  0.4632 -1.4028
 1907TIP3    H227213   1.865   2.689  15.765 -0.6228  0.4083  0.6190
 1908TIP3   OH227214   0.430   3.085  67.201  0.1533 -0.8491 -0.1262
 1908TIP3    H127215   0.430   3.076  67.297 -1.2743  1.2204  0.1106
 1908TIP3    H227216   0.343   3.057  67.174 -1.3029  3.2168 -0.2165
 1909TIP3   OH227217   1.881   0.486  53.571  0.0315  0.5294 -0.1657
 1909TIP3    H127218   1.968   0.447  53.560 -0.9637 -1.4203 -1.8456
 1909TIP3    H227219   1.845   0.441  53.648  0.4401  1.2554  0.4643
 1910TIP3   OH227220   1.444   0.924  43.751  0.1814  0.6628  0.0414
 1910TIP3    H127221   1.487   0.994  43.702 -0.8402  2.0018  0.9866
 1910TIP3    H227222   1.515   0.871  43.786  0.9593  0.6071 -1.5279
 1911TIP3   OH227223   0.384   1.117  59.691 -0.1469 -0.2297 -0.5848
 1911TIP3    H127224   0.368   1.201  59.649  1.8144  0.0767 -0.7925
 1911TIP3    H227225   0.354   1.130  59.782 -1.8533 -0.0408 -1.1284
 1912TIP3   OH227226   1.792   1.195  10.157  0.1202  0.4971  0.7692
 1912TIP3    H127227   1.732   1.136  10.203  0.3837  0.1948  0.7244
 1912TIP3    H227228   1.790   1.166  10.066  0.5246  0.3281  0.8129
 1913TIP3   OH227229   1.370   0.110  18.898  0.7914  0.1260 -0.2158
 1913TIP3    H127230   1.443   0.074  18.947  1.0985 -0.1007 -0.8212
 1913TIP3    H227231   1.305   0.039  18.898  1.4473 -0.5184 -1.5173
 1914TIP3   OH227232   2.242   0.383  10.398 -0.2836 -0.2536 -0.0125
 1914TIP3    H127233   2.199   0.461  10.363  2.4477  0.1808 -2.9365
 1914TIP3    H227234   2.279   0.411  10.481 -1.8867  0.5893  0.4672
 1915TIP3   OH227235   3.176   1.993  64.734  0.4324 -0.2154  0.2680
 1915TIP3    H127236   3.261   1.952  64.748  0.8262  0.9327  1.4415
 1915TIP3    H227237   3.184   2.079  64.776 -1.1205  0.1345 -0.1003
 1916TIP3   OH227238   3.224   3.184  18.982  0.1031  0.3629  0.5836
 1916TIP3    H127239   3.192   3.207  19.070 -0.4212  2.8364 -0.1783
 1916TIP3    H227240   3.150   3.139  18.941  0.4036 -0.9592  1.3957
 1917TIP3   OH227241   1.306   2.069   7.081 -0.3206 -0.3563  0.0265
 1917TIP3    H127242   1.294   2.001   7.148  0.7524 -1.1774 -0.5584
 1917TIP3    H227243   1.393   2.105   7.100 -0.3785  0.0126 -0.4022
 1918TIP3   OH227244   0.251   0.042  66.971  0.5105 -0.0634  0.2203
 1918TIP3    H127245   0.180  -0.019  66.951  0.8790 -0.3243 -0.3090
 1918TIP3    H227246   0.208   0.127  66.977 -0.1926 -0.4875  2.0439
 1919TIP3   OH227247   1.020   1.384  34.574  0.0294  0.2579 -0.2156
 1919TIP3    H127248   1.034   1.322  34.503 -1.3446 -1.4366  0.8685
 1919TIP3    H227249   0.927   1.407  34.568  0.8247  3.6795 -1.6129
 1920TIP3   OH227250   1.014   0.995  59.002 -0.6587 -0.0966 -0.1266
 1920TIP3    H127251   1.037   1.047  59.080 -0.0870 -1.2705  0.5225
 1920TIP3    H227252   1.058   1.039  58.930 -1.9879  1.5784  0.0319
 1921TIP3   OH227253   0.536   3.242  56.691  0.0177 -0.0953 -0.1302
 1921TIP3    H127254   0.455   3.224  56.643 -1.1009 -2.6463  2.4017
 1921TIP3    H227255   0.574   3.318  56.646 -3.1004  0.4492 -2.2074
 1922TIP3   OH227256   1.686   1.186  38.250 -0.6076  0.4566 -0.0645
 1922TIP3    H127257   1.777   1.154  38.250 -0.7477  0.0308 -1.2565
 1922TIP3    H227258   1.640   1.125  38.309  0.0400  1.2180  1.2787
 1923TIP3   OH227259   1.446   2.192  59.771 -0.3522 -0.0031 -0.3885
 1923TIP3    H127260   1.357   2.227  59.769 -0.4669 -0.1894  0.5801
 1923TIP3    H227261   1.442   2.120  59.834  0.2857 -0.5901 -1.0022
 1924TIP3   OH227262   0.831   1.668  18.255 -0.1105 -0.3961  0.3737
 1924TIP3    H127263   0.805   1.753  18.219 -0.2728 -0.8002 -0.4798
 1924TIP3    H227264   0.845   1.685  18.348 -0.6427  0.4517  0.3101
 1925TIP3   OH227265   1.817   1.770  52.609  0.0668 -0.4332 -0.0516
 1925TIP3    H127266   1.747   1.727  52.560 -0.4597  1.7347 -1.3560
 1925TIP3    H227267   1.773   1.814  52.681  0.5440 -1.6148  1.0050
 1926TIP3   OH227268   0.293   1.364  44.146  0.7718 -0.5102 -0.2803
 1926TIP3    H127269   0.333   1.451  44.139  1.5188 -0.6172  1.9302
 1926TIP3    H227270   0.213   1.379  44.197  0.0833 -0.9249 -1.2032
 1927TIP3   OH227271   3.071   2.711  61.566  0.1047  0.2021  0.2978
 1927TIP3    H127272   3.110   2.670  61.643 -0.2925 -1.7041 -0.4724
 1927TIP3    H227273   2.985   2.742  61.596  0.2571  0.1433  0.7980
 1928TIP3   OH227274   1.823   0.438   9.902  0.1170  0.5126  0.3341
 1928TIP3    H127275   1.735   0.476   9.902  0.2409  0.9328 -1.5956
 1928TIP3    H227276   1.809   0.344   9.912 -0.4181  0.7323  1.7865
 1929TIP3   OH227277   2.170   2.310  50.555  0.1684  0.1812 -0.3913
 1929TIP3    H127278   2.148   2.314  50.462 -1.0684 -1.5181 -0.2215
 1929TIP3    H227279   2.092   2.273  50.597  0.8072  0.6293  1.2901
 1930TIP3   OH227280   0.876   0.978  67.499 -0.5607 -0.0582  0.3583
 1930TIP3    H127281   0.828   0.980  67.581 -1.7814 -1.3967 -0.2811
 1930TIP3    H227282   0.810   0.955  67.433  0.8276 -1.4395 -0.6337
 1931TIP3   OH227283   2.203   2.539  15.488  0.3876  0.1455  0.1596
 1931TIP3    H127284   2.168   2.627  15.502 -0.3519 -0.3618  1.7545
 1931TIP3    H227285   2.171   2.514  15.401  1.1659  1.6793 -0.6036
 1932TIP3   OH227286   1.339   1.385  64.498 -0.1383 -0.4934 -0.2010
 1932TIP3    H127287   1.396   1.404  64.423  0.3042 -0.1433  0.2190
 1932TIP3    H227288   1.319   1.470  64.536 -1.4066 -0.5570 -0.6639
 1933TIP3   OH227289   1.081   1.456  46.360 -0.3364  0.3092  0.4117
 1933TIP3    H127290   1.001   1.508  46.364 -0.9782 -0.6423  0.3946
 1933TIP3    H227291   1.114   1.457  46.450 -0.2905  0.8191  0.3901
 1934TIP3   OH227292   2.605   0.984  48.269 -0.9273 -0.1778 -0.1012
 1934TIP3    H127293   2.542   1.049  48.300  1.7077  1.7713  1.6046
 1934TIP3    H227294   2.649   1.026  48.195 -0.4002 -0.7643 -0.1330
 1935TIP3   OH227295   3.445   1.944  63.248  0.5243 -0.7571  0.9506
 1935TIP3    H127296   3.530   1.986  63.241  0.3422 -0.5312 -0.2032
 1935TIP3    H227297   3.395   1.979  63.173  0.7050 -3.7878 -0.7297
 1936TIP3   OH227298   0.305   3.422  10.605 -0.5336 -0.0634  0.1332
 1936TIP3    H127299   0.338   3.511  10.590 -0.4883 -0.1804 -0.4943
 1936TIP3    H227300   0.289   3.418  10.699 -1.2717  0.8695  0.0647
 1937TIP3   OH227301   3.037   0.617  11.422 -0.0931  0.1297  0.6598
 1937TIP3    H127302   3.068   0.527  11.431 -0.3784  0.0697  1.0500
 1937TIP3    H227303   3.087   0.666  11.487 -0.0942  0.2144  0.5965
 1938TIP3   OH227304   2.204   0.475  12.801 -0.1631  0.5065 -0.6159
 1938TIP3    H127305   2.212   0.475  12.897 -0.6048 -0.6700 -0.5671
 1938TIP3    H227306   2.143   0.547  12.783  1.8294  2.4158 -0.2334
 1939TIP3   OH227307   1.750   1.910  53.523 -0.3390 -0.0065  0.4504
 1939TIP3    H127308   1.764   1.978  53.457  0.1690  0.4720  1.0507
 1939TIP3    H227309   1.655   1.910  53.537 -0.3593  0.4558  0.3273
 1940TIP3   OH227310   0.093   3.175  65.422 -0.0048  0.1955  0.6081
 1940TIP3    H127311   0.111   3.115  65.495  1.0581 -0.6878 -0.3562
 1940TIP3    H227312   0.150   3.145  65.351 -0.6937  1.3176 -0.4508
 1941TIP3   OH227313   0.870   2.041  10.051 -0.0957 -0.2822  0.0727
 1941TIP3    H127314   0.934   1.974  10.079  0.5309 -0.5712 -1.9324
 1941TIP3    H227315   0.785   2.001  10.067  0.2725 -1.5866 -1.0594
 1942TIP3   OH227316   1.057   1.894  45.047  0.7353 -0.3468  0.1467
 1942TIP3    H127317   0.969   1.868  45.073  1.3233 -2.5123  0.1735
 1942TIP3    H227318   1.098   1.926  45.127 -0.0947  0.9993  0.0642
 1943TIP3   OH227319   2.516   1.695  20.023  0.5390 -0.0459 -0.3703
 1943TIP3    H127320   2.606   1.696  20.055  0.7688  1.2263 -0.9944
 1943TIP3    H227321   2.506   1.777  19.976 -0.7028 -0.5381 -1.0258
 1944TIP3   OH227322   0.646   3.267  56.946 -0.2713 -0.3534  0.0292
 1944TIP3    H127323   0.608   3.283  56.860  0.3797 -0.9879 -0.3874
 1944TIP3    H227324   0.668   3.353  56.980 -0.5810 -0.0975 -0.4148
 1945TIP3   OH227325   2.665   3.357  55.610 -0.2646  0.4437 -0.8813
 1945TIP3    H127326   2.743   3.409  55.630 -0.1304  0.0883 -0.4585
 1945TIP3    H227327   2.694   3.296  55.542  0.2013 -0.5470  0.1558
 1946TIP3   OH227328   1.523   0.060  58.979  0.0516  0.1760 -0.1572
 1946TIP3    H127329   1.616   0.063  59.004 -0.0571 -1.4931  0.6030
 1946TIP3    H227330   1.494  -0.027  59.007 -1.7987  0.7429 -0.2053
 1947TIP3   OH227331   2.737   0.654  22.590 -0.5541 -0.4021 -0.1952
 1947TIP3    H127332   2.726   0.575  22.644 -2.8453 -2.2415 -3.0163
 1947TIP3    H227333   2.821   0.641  22.546 -0.6703 -1.0323 -0.2470
 1948TIP3   OH227334   1.519   0.874   5.474  0.4538  0.4518 -0.4987
 1948TIP3    H127335   1.427   0.898   5.485  0.5642  1.3403 -1.3271
 1948TIP3    H227336   1.546   0.919   5.394  2.0681  1.6013  0.6259
 1949TIP3   OH227337   2.635   2.921  48.294  0.1154  0.1088  0.1664
 1949TIP3    H127338   2.592   2.990  48.243 -1.1008 -1.2560 -0.7488
 1949TIP3    H227339   2.728   2.945  48.294 -0.3056  1.8821  0.1354
 1950TIP3   OH227340   0.150   1.414  61.770 -0.5990  0.0240 -0.5271
 1950TIP3    H127341   0.151   1.485  61.835 -0.2173 -1.3543  1.0385
 1950TIP3    H227342   0.233   1.369  61.783 -0.5338 -0.3050 -1.9964
 1951TIP3   OH227343   2.680   0.062   3.912  0.9022  0.3638 -0.2650
 1951TIP3    H127344   2.599   0.109   3.895  0.7527  0.0611 -0.4122
 1951TIP3    H227345   2.661  -0.029   3.886  0.7839 -0.0425  1.1409
 1952TIP3   OH227346   0.344   0.680   3.898 -0.5910 -0.2043  0.3724
 1952TIP3    H127347   0.388   0.689   3.813 -1.9391  0.8632 -0.2405
 1952TIP3    H227348   0.348   0.586   3.916  1.9056 -0.1758  0.3673
 1953TIP3   OH227349   2.009   0.713   0.606 -0.0166  0.2582 -0.1516
 1953TIP3    H127350   1.986   0.620   0.614 -1.1562  0.2844 -2.4437
 1953TIP3    H227351   2.095   0.713   0.564  0.3166  0.2610  0.5112
 1954TIP3   OH227352   3.034   1.983  14.110 -0.2684 -0.5107 -0.1585
 1954TIP3    H127353   3.011   2.061  14.161  1.3536  0.1773 -0.4006
 1954TIP3    H227354   3.130   1.981  14.112 -0.2942 -2.8189  0.2720
 1955TIP3   OH227355   1.987   3.407  10.820  0.1413  0.3714 -0.4656
 1955TIP3    H127356   1.987   3.451  10.735  0.3717 -0.1225 -0.7243
 1955TIP3    H227357   2.076   3.420  10.853 -0.2375  1.4598  0.1790
 1956TIP3   OH227358   1.885   1.321  11.487  0.1321 -0.1672 -0.7922
 1956TIP3    H127359   1.884   1.383  11.415  1.0574 -0.0665 -0.7247
 1956TIP3    H227360   1.955   1.351  11.545 -0.4554 -0.3632  0.0493
 1957TIP3   OH227361   2.727   3.234  16.773  0.6102 -0.1891  0.1925
 1957TIP3    H127362   2.685   3.196  16.851  1.9315 -0.9726  0.5622
 1957TIP3    H227363   2.732   3.327  16.792 -2.8197  0.3480 -0.7820
 1958TIP3   OH227364   3.186   3.184   5.967  0.5700 -0.3797  0.0878
 1958TIP3    H127365   3.111   3.185   5.907  1.6915 -1.5667 -1.4225
 1958TIP3    H227366   3.245   3.251   5.933  2.2689 -2.5908 -1.7073
 1959TIP3   OH227367   2.537   2.512  17.567 -0.7776  0.0059 -0.4326
 1959TIP3    H127368   2.538   2.473  17.480 -1.8620 -1.3207  0.1070
 1959TIP3    H227369   2.598   2.586  17.562  0.0067 -0.7193 -1.9882
 1960TIP3   OH227370   2.826   1.260  12.471  0.1700 -0.7090 -0.5365
 1960TIP3    H127371   2.869   1.250  12.386 -2.1163 -2.0877 -1.6384
 1960TIP3    H227372   2.798   1.351  12.473 -1.1483 -1.0347 -2.0364
 1961TIP3   OH227373   2.848   0.537  19.577 -0.2005  0.7326  0.4685
 1961TIP3    H127374   2.839   0.591  19.498  0.3947 -1.3653 -1.1504
 1961TIP3    H227375   2.846   0.447  19.544 -2.1240 -0.3292  3.1107
 1962TIP3   OH227376   0.953   2.841  16.561 -0.3996 -1.0947  0.2902
 1962TIP3    H127377   0.987   2.764  16.513  2.6780  0.4874 -0.3315
 1962TIP3    H227378   0.926   2.901  16.492 -0.6582 -0.7372  0.7030
 1963TIP3   OH227379   1.380   2.474  16.055  1.0692  0.1415  0.8474
 1963TIP3    H127380   1.359   2.399  16.111 -0.0455 -1.6084 -1.7151
 1963TIP3    H227381   1.467   2.455  16.020  0.6647 -0.1741 -0.0371
 1964TIP3   OH227382   2.487   3.027  10.120  0.2737  0.2515  0.1660
 1964TIP3    H127383   2.464   2.934  10.120 -0.1112  0.3255 -1.3865
 1964TIP3    H227384   2.530   3.041  10.035 -0.3179  1.6373  0.0783
 1965TIP3   OH227385   1.391   1.857  65.465  0.0141  0.4794  0.1946
 1965TIP3    H127386   1.305   1.849  65.423  0.7567 -1.5499 -1.0479
 1965TIP3    H227387   1.429   1.936  65.427 -0.3044  0.0181 -1.1149
 1966TIP3   OH227388   0.120   2.766  18.672 -0.1319 -0.3841  0.0715
 1966TIP3    H127389   0.168   2.688  18.644 -1.0664 -0.5164 -1.2916
 1966TIP3    H227390   0.082   2.742  18.756  1.1333 -0.7067  0.5816
 1967TIP3   OH227391   1.246   1.527  50.484 -0.0042 -0.1542 -0.2345
 1967TIP3    H127392   1.209   1.594  50.542  0.8775  0.3422 -0.2364
 1967TIP3    H227393   1.249   1.568  50.398 -0.0251 -0.4119 -0.3593
 1968TIP3   OH227394   0.080   2.846  55.893  0.0010 -0.2026  0.1301
 1968TIP3    H127395   0.060   2.822  55.984  0.5024  0.2403  0.3631
 1968TIP3    H227396   0.060   2.940  55.889 -1.0131 -0.4380 -0.5072
 1969TIP3   OH227397   3.314   3.097  51.238  1.0820 -0.5426  0.0736
 1969TIP3    H127398   3.257   3.175  51.233 -0.4568 -1.6065  0.1426
 1969TIP3    H227399   3.403   3.132  51.240  0.5461  1.1528 -1.9566
 1970TIP3   OH227400   1.857   0.261  62.762 -0.2506  0.2362 -0.1715
 1970TIP3    H127401   1.862   0.340  62.709  0.8311 -0.0983 -0.5890
 1970TIP3    H227402   1.913   0.198  62.717  1.8843  0.3746  2.0886
 1971TIP3   OH227403   0.802   0.505  66.285 -0.5224  0.7144  0.1810
 1971TIP3    H127404   0.736   0.574  66.286 -2.1451 -0.7088 -1.4288
 1971TIP3    H227405   0.764   0.435  66.337  0.1570  0.2290  0.0318
 1972TIP3   OH227406   1.914   2.003  50.148  0.3991  0.2628  0.0979
 1972TIP3    H127407   2.008   1.994  50.132  0.4014  1.6182 -0.7908
 1972TIP3    H227408   1.884   2.066  50.083 -1.0247  0.3253  0.7691
 1973TIP3   OH227409   1.047   0.865   8.535 -0.2086 -0.3617 -0.3649
 1973TIP3    H127410   1.137   0.838   8.520  0.0250  0.8434 -1.3676
 1973TIP3    H227411   1.054   0.936   8.598 -0.2506  0.8128 -1.6195
 1974TIP3   OH227412   3.168   2.749  18.240 -0.4316 -0.4785 -0.1977
 1974TIP3    H127413   3.184   2.714  18.328 -1.3226  1.9892  1.0493
 1974TIP3    H227414   3.252   2.788  18.214  0.3105 -2.5897 -1.2252
 1975TIP3   OH227415   1.103   1.213  13.753  0.3746 -0.6131  0.1064
 1975TIP3    H127416   1.113   1.308  13.748 -0.6356 -0.4933 -0.0124
 1975TIP3    H227417   1.190   1.178  13.735  0.5419  0.2712 -0.8813
 1976TIP3   OH227418   3.035   2.775  14.478 -0.1846 -0.4776  0.3032
 1976TIP3    H127419   3.013   2.861  14.443 -1.8614 -1.2827 -0.7265
 1976TIP3    H227420   3.130   2.767  14.466 -0.1999  0.7036 -0.7788
 1977TIP3   OH227421   0.361   0.972  46.385  0.3682 -0.3460  0.5415
 1977TIP3    H127422   0.352   0.881  46.413 -0.5891  0.2756  2.3805
 1977TIP3    H227423   0.315   1.023  46.451  2.8297  1.6972  0.8631
 1978TIP3   OH227424   0.659   0.548  14.731  0.2509  0.9739 -0.2103
 1978TIP3    H127425   0.661   0.476  14.668  3.8271 -0.4443  1.2294
 1978TIP3    H227426   0.616   0.511  14.808  3.0231 -0.1835  0.9149
 1979TIP3   OH227427   0.556   2.197  13.338 -0.5963 -0.0926 -0.3360
 1979TIP3    H127428   0.523   2.151  13.261  1.6477 -0.6453 -1.0368
 1979TIP3    H227429   0.619   2.137  13.377 -0.5072  0.8311  1.0046
 1980TIP3   OH227430   1.528   3.104  50.368  0.0217 -0.5060 -0.7968
 1980TIP3    H127431   1.447   3.054  50.379 -0.3406  0.0335 -1.0171
 1980TIP3    H227432   1.595   3.037  50.355 -0.1231 -1.0341  0.8884
 1981TIP3   OH227433   2.554   1.724  21.708 -0.0886  0.2576 -0.5379
 1981TIP3    H127434   2.601   1.662  21.764 -0.2629  1.0686  0.5562
 1981TIP3    H227435   2.551   1.805  21.760 -0.9325  0.8165 -1.4220
 1982TIP3   OH227436   0.964   2.041  57.486 -0.2314 -0.3775  0.5624
 1982TIP3    H127437   0.968   2.134  57.507 -0.7561 -0.5021  1.2657
 1982TIP3    H227438   0.875   2.014  57.511 -0.1350 -1.0334  0.2299
 1983TIP3   OH227439   2.318   2.391  11.772 -0.5970  0.2761 -0.4116
 1983TIP3    H127440   2.378   2.455  11.732 -0.2272 -0.1777 -0.5921
 1983TIP3    H227441   2.297   2.429  11.857  0.2109  0.2912 -0.2111
 1984TIP3   OH227442   3.014   2.357   4.081 -0.3050 -0.3657 -0.3686
 1984TIP3    H127443   3.051   2.297   4.017  0.8068 -1.6380  1.3846
 1984TIP3    H227444   2.931   2.318   4.107 -0.7031  0.0919 -0.9343
 1985TIP3   OH227445   0.988   0.334  61.592 -0.2515  0.2467 -0.0903
 1985TIP3    H127446   1.071   0.358  61.550 -0.4886  1.7012  0.2099
 1985TIP3    H227447   0.998   0.365  61.682  0.1894 -2.6715  0.9762
 1986TIP3   OH227448   0.941   3.121  18.783  0.4680 -0.0795 -0.5712
 1986TIP3    H127449   0.941   3.108  18.878  1.6867 -0.5872 -0.6327
 1986TIP3    H227450   0.887   3.199  18.770  2.0874  1.3411  0.7339
 1987TIP3   OH227451   3.385   3.217  57.365  0.4655 -0.2798 -0.4236
 1987TIP3    H127452   3.375   3.145  57.302  0.2975 -1.5145  0.9654
 1987TIP3    H227453   3.305   3.215  57.417  0.1886  1.3249 -0.7440
 1988TIP3   OH227454   1.070   2.757  51.742 -0.4311  0.1345 -0.0447
 1988TIP3    H127455   1.147   2.789  51.788  0.6468 -1.3883 -0.7495
 1988TIP3    H227456   0.996   2.784  51.797  0.5949  1.4111  0.7471
 1989TIP3   OH227457   1.023   3.069  18.114  0.3072 -0.0079 -0.2951
 1989TIP3    H127458   1.063   3.035  18.034  1.1048 -0.4800  0.2901
 1989TIP3    H227459   0.999   3.159  18.092  2.2378  0.4995 -0.5174
 1990TIP3   OH227460   0.248   2.985  21.679 -0.6876  0.2562  0.2620
 1990TIP3    H127461   0.310   2.914  21.699  2.1106  2.8808  1.7782
 1990TIP3    H227462   0.264   3.005  21.586 -0.5260 -0.2224  0.1827
 1991TIP3   OH227463   0.960   3.052  13.197 -0.4513 -0.4466  0.1480
 1991TIP3    H127464   0.916   3.043  13.282  0.7889  0.5688  0.9288
 1991TIP3    H227465   1.014   2.973  13.189  1.1146  0.4637  1.3504
 1992TIP3   OH227466   1.136   2.884  46.969  0.3991 -0.6478  0.6212
 1992TIP3    H127467   1.189   2.812  46.935  1.0194  0.4178 -0.7943
 1992TIP3    H227468   1.134   2.948  46.897  0.3263  0.9664  2.0017
 1993TIP3   OH227469   1.202   3.040  50.181  0.0311  0.2278  0.6483
 1993TIP3    H127470   1.255   3.005  50.109  1.2808  2.5236  0.3242
 1993TIP3    H227471   1.113   3.043  50.146  0.4149  0.1729 -0.3882
 1994TIP3   OH227472   0.523   2.494  53.040 -0.0964  0.3870  0.0800
 1994TIP3    H127473   0.565   2.579  53.029 -0.0859  0.3517 -0.1564
 1994TIP3    H227474   0.429   2.513  53.039 -0.0902  0.4271  0.2841
 1995TIP3   OH227475   0.396   1.064  50.601  0.1289 -0.2335  0.5995
 1995TIP3    H127476   0.315   1.100  50.565 -0.2017 -0.0089  1.5549
 1995TIP3    H227477   0.448   1.041  50.523 -0.9524 -0.6371 -0.0281
 1996TIP3   OH227478   3.039   1.325  43.269 -0.1730 -0.2762  0.1210
 1996TIP3    H127479   3.081   1.288  43.191 -0.1353  2.0382 -1.0699
 1996TIP3    H227480   3.073   1.275  43.342  1.6580 -0.9843 -1.1673
 1997TIP3   OH227481   1.910   2.604  50.796  0.1237  0.2416 -1.0835
 1997TIP3    H127482   1.901   2.518  50.838 -0.3860  0.5242 -0.6144
 1997TIP3    H227483   2.003   2.622  50.799  0.1638 -0.0227 -0.6387
 1998TIP3   OH227484   0.791   2.212  67.095  0.0783  0.5399  1.0405
 1998TIP3    H127485   0.832   2.161  67.165 -1.5547  0.9336  2.3326
 1998TIP3    H227486   0.711   2.247  67.134 -0.6244  1.2001 -0.8821
 1999TIP3   OH227487   2.283   1.539  60.074  0.2864  0.2359 -0.0322
 1999TIP3    H127488   2.278   1.506  59.985  0.8184  0.7107 -0.2479
 1999TIP3    H227489   2.289   1.634  60.064  2.4312  0.2052  0.3894
 2000TIP3   OH227490   0.410   3.072  56.945 -0.5864  0.3781  0.2662
 2000TIP3    H127491   0.497   3.111  56.951 -1.2617  2.0483 -0.0398
 2000TIP3    H227492   0.402   3.047  56.853  0.0875 -1.1186  0.5958
 2001TIP3   OH227493   2.989   1.136  11.318 -0.8241 -0.6584  0.2370
 2001TIP3    H127494   2.905   1.162  11.355 -0.4919  2.4774 -0.8763
 2001TIP3    H227495   2.968   1.106  11.229 -0.7470  1.8456 -0.7261
 2002TIP3   OH227496   2.175   0.446  65.248  0.2267 -0.0162  0.5415
 2002TIP3    H127497   2.227   0.525  65.259 -0.4853  0.2435  2.3329
 2002TIP3    H227498   2.182   0.401  65.332  0.1723 -1.6085 -0.2664
 2003TIP3   OH227499   1.625   1.510  45.464  0.1221 -0.0661  0.8251
 2003TIP3    H127500   1.653   1.588  45.511  0.6571 -0.6953  1.5856
 2003TIP3    H227501   1.666   1.518  45.378 -0.3907  0.8134  0.6527
 2004TIP3   OH227502   1.822   0.314  12.662 -0.0866 -0.4996 -0.6548
 2004TIP3    H127503   1.899   0.353  12.620  0.4736  1.2169  1.7419
 2004TIP3    H227504   1.824   0.348  12.751 -3.0031 -1.3436 -0.1704
 2005TIP3   OH227505   3.287   1.883   1.023 -0.1407 -0.3931 -0.0746
 2005TIP3    H127506   3.304   1.868   1.116 -0.4742 -0.3965 -0.0116
 2005TIP3    H227507   3.252   1.972   1.019 -2.5054 -1.2449  0.1305
 2006TIP3   OH227508   0.450   1.812  44.581 -0.0823  0.1850  0.1611
 2006TIP3    H127509   0.528   1.850  44.621  0.1593 -0.1218 -0.0152
 2006TIP3    H227510   0.457   1.833  44.488  0.4108 -0.8819 -0.0531
 2007TIP3   OH227511   0.530   0.191  58.955  0.1709 -0.1609  0.0510
 2007TIP3    H127512   0.456   0.248  58.975 -0.9544 -1.1226 -1.2039
 2007TIP3    H227513   0.491   0.111  58.921  1.7966 -0.5742 -0.9712
 2008TIP3   OH227514   2.742   2.408   8.910 -0.0622 -0.2107  0.4508
 2008TIP3    H127515   2.711   2.460   8.985 -1.1928  0.5276 -0.4750
 2008TIP3    H227516   2.729   2.466   8.835  0.0304 -1.3268 -0.4416
 2009TIP3   OH227517   2.200   2.125  61.028 -1.1243 -0.5177  0.0275
 2009TIP3    H127518   2.139   2.075  60.974 -0.8733 -0.5792 -0.2035
 2009TIP3    H227519   2.273   2.065  61.044 -0.9796 -0.3421  0.0359
 2010TIP3   OH227520   1.480   0.458  18.673  0.2037 -0.1458 -0.0549
 2010TIP3    H127521   1.562   0.410  18.665  0.4382  0.1219  0.6030
 2010TIP3    H227522   1.474   0.479  18.767  0.7209  2.1591 -0.4839
 2011TIP3   OH227523   3.433   1.109   0.834  0.0848 -0.2766 -0.3195
 2011TIP3    H127524   3.390   1.184   0.876 -0.0176 -0.1914 -0.5725
 2011TIP3    H227525   3.389   1.100   0.750  0.5669 -0.1861 -0.5872
 2012TIP3   OH227526   2.229   0.514  49.753 -0.7209  0.1394  0.1730
 2012TIP3    H127527   2.263   0.514  49.663 -2.3849 -0.1064 -0.4866
 2012TIP3    H227528   2.302   0.548  49.806  0.1989  0.5519 -1.2940
 2013TIP3   OH227529   1.977   3.311   1.708  0.0163  0.2381 -0.2983
 2013TIP3    H127530   1.955   3.221   1.735  1.0407 -0.1032 -0.5410
 2013TIP3    H227531   1.897   3.344   1.669 -0.5670 -0.3525  0.3488
 2014TIP3   OH227532   0.771   1.360   5.860 -0.0021 -0.1496  0.1924
 2014TIP3    H127533   0.833   1.434   5.858  1.0096 -0.9619  0.3683
 2014TIP3    H227534   0.688   1.399   5.887  0.7299  0.7815  1.1861
 2015TIP3   OH227535   2.661   0.534  10.854  0.0750 -0.0506 -0.1654
 2015TIP3    H127536   2.625   0.605  10.908 -0.1011 -0.2734  0.0153
 2015TIP3    H227537   2.651   0.564  10.764 -0.8670 -0.2351 -0.1358
 2016TIP3   OH227538   3.336   2.940  48.271 -0.3265 -0.6677 -0.2113
 2016TIP3    H127539   3.370   2.901  48.351 -0.6632  2.0473  1.4012
 2016TIP3    H227540   3.394   3.015  48.255 -2.5525  1.1887 -0.1532
 2017TIP3   OH227541   2.086   0.933  49.167 -0.0150 -0.0041 -0.4262
 2017TIP3    H127542   2.070   1.002  49.103  2.3347 -0.1751 -1.3296
 2017TIP3    H227543   2.051   0.967  49.249 -0.3915  1.5333 -1.1841
 2018TIP3   OH227544   0.149   3.087  52.164  0.3294 -0.2386  0.0326
 2018TIP3    H127545   0.187   3.035  52.234  1.2023 -1.4085 -1.2527
 2018TIP3    H227546   0.191   3.173  52.172 -0.1395 -0.1225  1.3720
 2019TIP3   OH227547   2.305   2.625   2.326  0.2372 -0.6022  0.0293
 2019TIP3    H127548   2.301   2.619   2.231 -1.2243  0.3171  0.0206
 2019TIP3    H227549   2.215   2.614   2.356  0.5758 -0.2407  1.2777
 2020TIP3   OH227550   0.171   3.385  47.914  0.0097  0.4100 -0.7994
 2020TIP3    H127551   0.100   3.399  47.978  0.7591  2.0638 -0.2811
 2020TIP3    H227552   0.247   3.363  47.968  0.0256 -1.0039 -1.3400
 2021TIP3   OH227553   0.177   1.091  54.692 -0.7571 -0.4981 -0.6101
 2021TIP3    H127554   0.237   1.027  54.652 -1.1798  0.0801 -2.2649
 2021TIP3    H227555   0.185   1.076  54.786  3.0298  0.4507 -0.6067
 2022TIP3   OH227556   2.246   2.065  43.476  0.1956 -0.4883  0.8275
 2022TIP3    H127557   2.311   2.129  43.505 -0.7420 -0.2204  2.4373
 2022TIP3    H227558   2.163   2.095  43.514 -1.3583  0.2833 -2.7090
 2023TIP3   OH227559   1.249   0.495  66.308 -0.3828  0.3089  0.4471
 2023TIP3    H127560   1.166   0.509  66.353 -1.7226  0.1485 -1.8087
 2023TIP3    H227561   1.309   0.559  66.347 -1.7655  0.9469  1.6081
 2024TIP3   OH227562   1.829   0.545   5.521 -0.1331  0.1101  0.7935
 2024TIP3    H127563   1.763   0.486   5.484  1.5484 -1.1191 -0.4217
 2024TIP3    H227564   1.779   0.620   5.553 -2.0730 -0.6205 -0.3303
 2025TIP3   OH227565   2.339   2.978  58.148 -0.0441 -0.3816  0.3047
 2025TIP3    H127566   2.405   2.939  58.092  0.3066 -0.8884  1.0434
 2025TIP3    H227567   2.259   2.929  58.130  0.0658 -0.5366  0.2405
 2026TIP3   OH227568   0.594   1.829  63.160  0.3644  0.1503  0.1583
 2026TIP3    H127569   0.642   1.783  63.091 -1.3333 -2.7540  0.7648
 2026TIP3    H227570   0.521   1.772  63.181 -0.5109  2.0390  2.7788
 2027TIP3   OH227571   1.947   2.087  66.193 -0.6775  0.8928 -0.1137
 2027TIP3    H127572   2.008   2.100  66.265 -0.2810  1.5205 -0.5424
 2027TIP3    H227573   1.915   1.998  66.204  0.8493  0.2868 -0.2622
 2028TIP3   OH227574   3.054   2.477   4.905  0.0928 -0.5626 -0.4225
 2028TIP3    H127575   3.093   2.488   4.992  0.1698 -1.2586 -0.3613
 2028TIP3    H227576   2.978   2.420   4.920  0.0790 -0.6432 -0.7986
 2029TIP3   OH227577   0.962   0.129   9.155 -0.4461  0.0997  0.2467
 2029TIP3    H127578   1.024   0.181   9.103 -0.6421 -0.7593 -0.8717
 2029TIP3    H227579   0.878   0.143   9.112 -0.5716 -0.8083  0.1879
 2030TIP3   OH227580   2.104   0.876   0.920 -0.2740  0.1544 -0.3843
 2030TIP3    H127581   2.161   0.812   0.877  0.8273 -0.0388  1.2835
 2030TIP3    H227582   2.143   0.961   0.900 -1.8764  0.4419 -2.8114
 2031TIP3   OH227583   0.216   2.513   6.666  0.5687 -0.3446 -0.0320
 2031TIP3    H127584   0.265   2.539   6.744 -0.1838  1.3556 -0.0696
 2031TIP3    H227585   0.142   2.462   6.699  1.2985 -1.2785  0.1834
 2032TIP3   OH227586   0.826   0.261   6.463 -0.2535  0.5518  0.3056
 2032TIP3    H127587   0.877   0.187   6.429 -0.0376  0.8923 -0.1243
 2032TIP3    H227588   0.773   0.289   6.389 -0.1695  0.9691  0.4005
 2033TIP3   OH227589   2.615   1.709  48.034 -0.2510 -0.2283 -0.0240
 2033TIP3    H127590   2.602   1.615  48.021 -0.2603 -0.3118  0.5647
 2033TIP3    H227591   2.704   1.716  48.068 -0.8972 -0.2088  1.7789
 2034TIP3   OH227592   2.116   2.180  47.757  0.1860 -0.4499 -0.5530
 2034TIP3    H127593   2.083   2.247  47.817  0.0753  0.2277 -1.3495
 2034TIP3    H227594   2.038   2.133  47.728  0.2006 -0.5404 -0.4452
 2035TIP3   OH227595   0.724   1.517  12.989 -0.1480 -0.2059 -0.1320
 2035TIP3    H127596   0.663   1.472  12.930 -2.0588 -0.0252  1.6103
 2035TIP3    H227597   0.668   1.570  13.046  1.8197  1.8497  0.0287
 2036TIP3   OH227598   0.751   3.410  60.761  0.4309 -0.0810 -0.1560
 2036TIP3    H127599   0.747   3.482  60.825 -1.7919 -1.5479  1.5129
 2036TIP3    H227600   0.842   3.407  60.734  0.7808  2.7397  0.4168
 2037TIP3   OH227601   2.255   0.900   3.100  0.0114 -0.1469  0.0520
 2037TIP3    H127602   2.283   0.825   3.047  0.8823  0.3022 -0.1396
 2037TIP3    H227603   2.312   0.898   3.177 -0.2225  0.0972  0.2334
 2038TIP3   OH227604   0.922   1.229   9.646 -0.0558 -0.0775 -0.2737
 2038TIP3    H127605   0.929   1.320   9.616  1.2692 -0.6873 -1.9263
 2038TIP3    H227606   0.878   1.183   9.575 -0.4510 -0.8071  0.4210
 2039TIP3   OH227607   2.226   0.071  56.018 -0.6648  0.1011  0.2318
 2039TIP3    H127608   2.225   0.020  55.937 -1.5029 -2.2487  1.6052
 2039TIP3    H227609   2.318   0.095  56.030 -0.5284  0.5073 -1.3758
 2040TIP3   OH227610   2.294   1.410  57.901  1.2308 -0.0055 -0.5940
 2040TIP3    H127611   2.338   1.342  57.952 -3.1636 -3.8454 -1.2967
 2040TIP3    H227612   2.357   1.432  57.832  3.8128 -1.3890  1.1644
 2041TIP3   OH227613   1.044   0.759  65.712  0.1192 -0.2579  0.0255
 2041TIP3    H127614   0.991   0.699  65.659  0.5647  0.5581 -1.3955
 2041TIP3    H227615   1.129   0.714  65.720 -0.2966 -0.8850  1.0236
 2042TIP3   OH227616   3.280   2.305   1.742 -0.1539 -0.4724  0.0734
 2042TIP3    H127617   3.340   2.339   1.676 -0.8627  1.0816  0.1821
 2042TIP3    H227618   3.214   2.257   1.692 -0.7792  0.8367 -0.4060
 2043TIP3   OH227619   1.777   1.072  48.799 -0.5541  0.4000  0.3160
 2043TIP3    H127620   1.858   1.110  48.765 -1.9496  1.4784 -1.9680
 2043TIP3    H227621   1.759   0.998  48.741 -0.9503 -0.1945  1.1680
 2044TIP3   OH227622   3.415   0.212  60.323 -0.1316 -0.0992  0.3451
 2044TIP3    H127623   3.479   0.141  60.315  1.0567  0.7799  1.5854
 2044TIP3    H227624   3.400   0.220  60.417 -0.0834  1.4237  0.2382
 2045TIP3   OH227625   2.069   3.285  17.940  0.0432  0.1744 -0.0142
 2045TIP3    H127626   2.061   3.305  17.847 -0.3095  0.0965 -0.0008
 2045TIP3    H227627   2.152   3.238  17.947 -0.4799 -0.8548 -0.4678
 2046TIP3   OH227628   2.494   0.585  31.211  0.2418 -0.2993 -0.1166
 2046TIP3    H127629   2.584   0.556  31.197 -0.3773 -2.0125 -0.8530
 2046TIP3    H227630   2.483   0.583  31.306  0.4276 -1.9967 -0.0966
 2047TIP3   OH227631   2.487   1.403  65.864 -0.3868 -0.4527  0.0569
 2047TIP3    H127632   2.417   1.466  65.849 -1.7090 -2.1679 -1.5490
 2047TIP3    H227633   2.447   1.336  65.921  0.5010 -0.5794  0.5415
 2048TIP3   OH227634   2.938   1.957  18.154  0.1790 -0.1475  0.0571
 2048TIP3    H127635   3.000   1.888  18.133 -0.4383 -0.6237 -0.2429
 2048TIP3    H227636   2.889   1.972  18.073 -0.5461 -0.2608  0.4573
 2049TIP3   OH227637   2.765   0.376  45.025  0.2444  0.0054  0.1721
 2049TIP3    H127638   2.854   0.408  45.037  0.9599 -0.9466 -2.0789
 2049TIP3    H227639   2.711   0.454  45.019  1.1133  0.6297  0.3977
 2050TIP3   OH227640   2.254   0.357  52.638  0.0571 -0.0853 -0.0762
 2050TIP3    H127641   2.273   0.263  52.631  0.0248 -0.0775 -0.2687
 2050TIP3    H227642   2.176   0.362  52.693  0.7159 -0.1091  0.8747
 2051TIP3   OH227643   2.533   2.337  52.774  0.0172  0.5737  0.1857
 2051TIP3    H127644   2.590   2.310  52.702  0.0546  1.3749 -0.0895
 2051TIP3    H227645   2.445   2.339  52.736  0.0022  0.7522  0.2293
 2052TIP3   OH227646   0.234   0.878  29.339 -0.2411  0.2706  0.3905
 2052TIP3    H127647   0.266   0.927  29.263 -0.8594  1.5897  0.9508
 2052TIP3    H227648   0.278   0.793  29.333  0.5947  0.7613 -0.8065
 2053TIP3   OH227649   0.982   0.373  55.693  0.0043  0.3007  0.4628
 2053TIP3    H127650   1.077   0.376  55.692  0.0745 -1.4763 -0.0586
 2053TIP3    H227651   0.959   0.361  55.785  0.2952  0.3863  0.5455
 2054TIP3   OH227652   0.478   0.314  56.709 -0.3154 -0.1441  0.2243
 2054TIP3    H127653   0.475   0.272  56.623 -1.5307  1.1659 -0.4065
 2054TIP3    H227654   0.570   0.309  56.735  0.4784  1.2330 -2.0933
 2055TIP3   OH227655   2.202   1.063  21.136 -0.0127  0.2586 -0.4076
 2055TIP3    H127656   2.196   0.967  21.130  0.0237  0.3133 -1.7818
 2055TIP3    H227657   2.166   1.094  21.053 -0.0168  1.4482  0.0184
 2056TIP3   OH227658   0.061   3.365  44.578  0.1945 -0.0749 -1.1318
 2056TIP3    H127659   0.009   3.347  44.499  0.8277 -1.3763 -1.2874
 2056TIP3    H227660   0.077   3.279  44.616 -0.5234  0.5619  0.7233
 2057TIP3   OH227661   2.439   1.996  61.860  0.4536 -0.5687  0.4322
 2057TIP3    H127662   2.519   2.044  61.838  0.4097 -0.8233 -0.2993
 2057TIP3    H227663   2.466   1.905  61.866  0.1213 -0.7402 -0.4271
 2058TIP3   OH227664   2.781   3.233  13.571  0.1946  0.3662  0.5770
 2058TIP3    H127665   2.779   3.207  13.663  1.2572  2.1881  1.1723
 2058TIP3    H227666   2.796   3.152  13.523  0.5699 -0.4849  2.0760
 2059TIP3   OH227667   1.799   1.598  39.099  0.2398  0.0675 -0.3375
 2059TIP3    H127668   1.728   1.535  39.113  0.6238 -0.5592 -1.1677
 2059TIP3    H227669   1.840   1.571  39.018  1.6789  0.2002  0.3213
 2060TIP3   OH227670   0.955   1.476  16.635  0.3561  0.5638  0.2197
 2060TIP3    H127671   0.995   1.556  16.668  1.0132 -0.1987  1.3702
 2060TIP3    H227672   0.867   1.502  16.609  0.2534  1.4874  1.3985
 2061TIP3   OH227673   1.826   2.748  18.852  0.1388 -0.5414  0.2980
 2061TIP3    H127674   1.887   2.790  18.912 -1.0543 -1.4271  2.2528
 2061TIP3    H227675   1.769   2.819  18.822 -0.3551 -0.3343  1.6583
 2062TIP3   OH227676   2.448   0.902  11.367  0.3575 -0.1038  0.4649
 2062TIP3    H127677   2.510   0.973  11.352 -0.9846  1.3745  1.5327
 2062TIP3    H227678   2.366   0.946  11.389 -0.4235 -1.9924  1.6128
 2063TIP3   OH227679   1.601   2.616  50.616  0.0808  0.6904 -0.1860
 2063TIP3    H127680   1.674   2.559  50.592  0.7683  1.8415 -0.8971
 2063TIP3    H227681   1.595   2.680  50.545  0.5087  2.6175  1.4019
 2064TIP3   OH227682   1.478   2.273   0.855 -0.0132  0.3733  0.0970
 2064TIP3    H127683   1.498   2.303   0.766  1.9497 -0.3567  0.2501
 2064TIP3    H227684   1.390   2.237   0.848 -0.3077  1.2493 -1.3062
 2065TIP3   OH227685   0.995   1.413  51.113  0.2830 -0.2873  0.4976
 2065TIP3    H127686   1.067   1.351  51.122  0.4824 -0.2552 -0.7554
 2065TIP3    H227687   0.919   1.358  51.091  0.1690 -0.2006  0.6647
 2066TIP3   OH227688   3.276   2.168  29.734 -0.4013 -0.6116 -0.0886
 2066TIP3    H127689   3.347   2.125  29.781 -0.1681 -2.3066 -1.8308
 2066TIP3    H227690   3.232   2.097  29.687 -1.0879  0.8256 -1.7557
 2067TIP3   OH227691   0.277   2.242  47.890 -0.3246 -0.4676 -0.6615
 2067TIP3    H127692   0.306   2.244  47.799  1.6758  1.5439 -0.0553
 2067TIP3    H227693   0.226   2.322  47.901  0.9731  0.2427  0.4107
 2068TIP3   OH227694   0.110   0.158   5.063  0.0651  0.3965  0.2464
 2068TIP3    H127695   0.129   0.227   4.999  1.7358 -1.3430 -1.2833
 2068TIP3    H227696   0.186   0.157   5.121  0.3894 -0.5766 -0.1764
 2069TIP3   OH227697   0.541   2.498  47.991 -0.0623 -0.2486  0.1942
 2069TIP3    H127698   0.484   2.507  47.914 -1.2390 -0.3843  1.0269
 2069TIP3    H227699   0.522   2.574  48.045  0.2877 -0.4770  0.6516
 2070TIP3   OH227700   2.763   1.552  55.054 -0.6375 -0.6825  0.4410
 2070TIP3    H127701   2.765   1.568  54.959 -0.6745 -0.5352  0.4653
 2070TIP3    H227702   2.744   1.458  55.061 -1.0855 -0.6054  0.3076
 2071TIP3   OH227703   0.987   2.261   2.858  0.1106 -0.0868 -0.3997
 2071TIP3    H127704   0.899   2.236   2.884 -0.6253  2.8863  0.3264
 2071TIP3    H227705   0.979   2.281   2.764 -0.4555  1.7839  0.0127
 2072TIP3   OH227706   3.256   3.055  50.707 -0.6294 -0.2717  0.1639
 2072TIP3    H127707   3.285   3.131  50.757 -1.4702 -0.3332  0.7585
 2072TIP3    H227708   3.336   3.020  50.668 -0.4865  2.3501 -2.2007
 2073TIP3   OH227709   3.443   1.936   2.956  0.4848 -0.3048  0.0207
 2073TIP3    H127710   3.478   1.847   2.957 -1.6273 -1.1815 -0.1421
 2073TIP3    H227711   3.392   1.944   3.036  0.8632  0.8644  0.1703
 2074TIP3   OH227712   3.186   1.864  51.620  0.4890  0.2563  0.1891
 2074TIP3    H127713   3.274   1.829  51.608  0.6088  0.5307  0.2609
 2074TIP3    H227714   3.171   1.917  51.543  0.2113 -0.1524 -0.0404
 2075TIP3   OH227715   0.397   1.806  22.822  0.2244 -0.3235  0.4929
 2075TIP3    H127716   0.423   1.726  22.868 -0.2720 -1.3583 -0.9647
 2075TIP3    H227717   0.307   1.823  22.853 -0.3957 -1.4514 -0.6128
 2076TIP3   OH227718   2.829   0.415  64.083 -0.0020  0.0603 -0.1870
 2076TIP3    H127719   2.856   0.505  64.103 -1.7284  0.2625  1.5785
 2076TIP3    H227720   2.764   0.426  64.013 -0.2778  0.2086  0.0868
 2077TIP3   OH227721   0.966   2.491  60.070 -0.1319  0.1070 -0.2411
 2077TIP3    H127722   0.919   2.517  60.149 -0.5413 -0.3618 -0.3292
 2077TIP3    H227723   1.055   2.473  60.100 -0.2994 -0.1160  0.1241
 2078TIP3   OH227724   0.214   1.156  43.308 -0.1191  0.9683  0.1379
 2078TIP3    H127725   0.271   1.137  43.382  1.0345  2.7309 -0.2514
 2078TIP3    H227726   0.260   1.223  43.258 -0.5183 -0.6728 -2.6216
 2079TIP3   OH227727   2.823   0.374  43.430 -0.2651  0.1592 -0.0287
 2079TIP3    H127728   2.846   0.327  43.511  1.2068 -1.5594 -1.3438
 2079TIP3    H227729   2.758   0.319  43.387  1.0330 -0.4699 -1.3033
 2080TIP3   OH227730   2.969   2.381  53.522 -0.3012 -0.0905 -1.0972
 2080TIP3    H127731   3.010   2.466  53.507  0.9112 -0.6539 -1.1824
 2080TIP3    H227732   2.897   2.377  53.459 -0.0600  0.6667 -1.4298
 2081TIP3   OH227733   2.800   0.204  14.474 -0.1861  0.1611 -0.4589
 2081TIP3    H127734   2.834   0.229  14.561  0.8249  2.4553 -1.4343
 2081TIP3    H227735   2.722   0.153  14.493 -0.0232  0.6327  1.8121
 2082TIP3   OH227736   1.992   0.675  12.801  0.1344 -0.0409 -0.4131
 2082TIP3    H127737   1.897   0.669  12.813  0.1919  0.2324  0.1939
 2082TIP3    H227738   2.002   0.722  12.718 -0.2587 -0.5776 -0.7751
 2083TIP3   OH227739   2.850   1.391  15.765  0.4813 -0.1927 -0.0349
 2083TIP3    H127740   2.867   1.382  15.671  1.5070  0.0242  0.1126
 2083TIP3    H227741   2.883   1.310  15.803 -0.7669 -0.6784  0.0533
 2084TIP3   OH227742   0.125   1.063  30.371 -1.4163 -0.2994 -0.4812
 2084TIP3    H127743   0.138   1.081  30.278 -0.6865  1.1794 -0.1274
 2084TIP3    H227744   0.140   1.147  30.414 -1.1494 -1.0825  1.0343
 2085TIP3   OH227745   1.918   2.763  25.944 -0.1169  0.5155 -0.0328
 2085TIP3    H127746   1.852   2.829  25.963  0.9893  1.5815  0.1884
 2085TIP3    H227747   1.935   2.721  26.028 -0.7077  0.0462 -0.1432
 2086TIP3   OH227748   1.941   1.378  47.370  0.4280  0.6218 -0.1356
 2086TIP3    H127749   1.968   1.398  47.280  1.6960  1.3862  0.3815
 2086TIP3    H227750   1.977   1.291  47.387  1.0507  0.8949 -0.0446
 2087TIP3   OH227751   2.056   1.833   7.354 -0.5263 -0.0367  0.5115
 2087TIP3    H127752   2.054   1.898   7.424 -1.9931 -1.0329  1.4487
 2087TIP3    H227753   2.120   1.768   7.384 -0.9137 -0.2953  0.7924
 2088TIP3   OH227754   0.405   0.523   8.160 -0.3397  0.1854  0.1724
 2088TIP3    H127755   0.418   0.589   8.228  0.5007 -0.9513  1.1652
 2088TIP3    H227756   0.451   0.557   8.083  1.1225  0.2295  1.0318
 2089TIP3   OH227757   1.738   1.306   4.580 -0.1489  0.3868  0.1378
 2089TIP3    H127758   1.690   1.385   4.604 -1.0782 -0.2893  0.5647
 2089TIP3    H227759   1.731   1.302   4.484  1.1737  1.5878 -0.0486
 2090TIP3   OH227760   2.089   1.813  56.459  0.7193  0.1832 -0.1227
 2090TIP3    H127761   2.068   1.853  56.543 -0.1325  0.1035 -0.2850
 2090TIP3    H227762   2.051   1.872  56.394 -0.3372 -0.7360 -0.3702
 2091TIP3   OH227763   3.007   2.533  42.935  0.1589 -0.0506 -0.2366
 2091TIP3    H127764   2.983   2.543  42.843 -1.0114  0.1409  0.0678
 2091TIP3    H227765   3.071   2.602  42.951 -1.6903  1.7569 -0.2252
 2092TIP3   OH227766   1.263   2.190  64.634 -0.4622 -0.1902 -0.1630
 2092TIP3    H127767   1.250   2.284  64.637  0.3835 -0.0891  0.6973
 2092TIP3    H227768   1.294   2.167  64.722 -1.8229 -1.4481  0.0333
 2093TIP3   OH227769   2.324   2.878  26.494 -0.7047 -0.4239  0.4484
 2093TIP3    H127770   2.394   2.824  26.530  0.1658  0.3561 -0.0383
 2093TIP3    H227771   2.250   2.818  26.485 -0.4058 -1.0441  1.8401
 2094TIP3   OH227772   2.242   0.970  13.130  0.1094  0.0363  0.2065
 2094TIP3    H127773   2.212   1.061  13.132 -1.7506 -0.5609  1.2286
 2094TIP3    H227774   2.231   0.944  13.038 -0.4054  0.5140  0.1234
 2095TIP3   OH227775   1.382   1.779  45.470 -0.7465 -0.2681 -0.2165
 2095TIP3    H127776   1.393   1.725  45.392 -1.6567 -1.2693  0.3109
 2095TIP3    H227777   1.309   1.738  45.517 -0.9366  0.9545  0.6201
 2096TIP3   OH227778   1.796   2.001  66.683 -0.1342 -1.0527  0.0887
 2096TIP3    H127779   1.829   1.924  66.638  0.8751 -1.1870  0.9954
 2096TIP3    H227780   1.860   2.017  66.753 -0.9233 -0.0689  0.6183
 2097TIP3   OH227781   2.634   0.466  13.477 -0.1323  0.8427  0.6260
 2097TIP3    H127782   2.659   0.504  13.392 -1.2722  2.6873  1.0467
 2097TIP3    H227783   2.636   0.540  13.537  0.8596 -0.4766  2.2984
 2098TIP3   OH227784   0.975   0.632   7.435  0.4592 -0.3211 -0.2182
 2098TIP3    H127785   0.995   0.553   7.485  0.5513  0.9041  1.8282
 2098TIP3    H227786   0.899   0.670   7.480 -1.3849 -0.6119 -2.8403
 2099TIP3   OH227787   0.577   2.427  56.264  0.0454 -0.0216  0.1210
 2099TIP3    H127788   0.574   2.332  56.276 -0.5433  0.0063  0.1877
 2099TIP3    H227789   0.511   2.446  56.198 -0.0952  0.3875  0.3770
 2100TIP3   OH227790   0.768   0.454  53.566  0.1292  0.1133 -0.3045
 2100TIP3    H127791   0.809   0.371  53.590  1.1248  0.4119 -0.9110
 2100TIP3    H227792   0.801   0.516  53.630 -1.5175 -0.1607  0.8588
 2101TIP3   OH227793   1.715   3.428  44.355  0.0606  0.0717  0.3441
 2101TIP3    H127794   1.698   3.455  44.446  1.3656  0.4224  0.5043
 2101TIP3    H227795   1.720   3.511  44.307 -3.9009 -0.1285 -0.7570
 2102TIP3   OH227796   0.901   2.015  18.518  0.0086 -0.0261  0.5228
 2102TIP3    H127797   0.822   2.067  18.503 -0.4277 -0.5314  1.0022
 2102TIP3    H227798   0.958   2.071  18.570 -0.7580 -0.2833  1.6596
 2103TIP3   OH227799   3.313   1.001   9.790 -0.9302 -0.3875  0.4288
 2103TIP3    H127800   3.323   1.020   9.883 -1.8717 -1.5321  0.7865
 2103TIP3    H227801   3.232   1.046   9.765 -0.7794 -0.2401  0.1980
 2104TIP3   OH227802   1.626   2.759  12.507  0.1751  0.5557 -0.0542
 2104TIP3    H127803   1.592   2.795  12.425  0.2774  0.8724  0.0403
 2104TIP3    H227804   1.550   2.722  12.550  0.6402 -3.3737 -2.1249
 2105TIP3   OH227805   2.851   1.016  60.003  0.0534  0.3589 -0.2927
 2105TIP3    H127806   2.773   0.994  60.054  0.8216  1.2704  1.3655
 2105TIP3    H227807   2.893   0.932  59.986  0.4882  0.0840  1.8347
 2106TIP3   OH227808   2.608   1.612  54.474  0.3140  0.0648  0.5864
 2106TIP3    H127809   2.665   1.536  54.482  2.1852  0.9395 -2.5153
 2106TIP3    H227810   2.663   1.686  54.498 -0.2825  0.7484 -0.0926
 2107TIP3   OH227811   2.419   1.063   4.074  0.0449 -0.0002  0.3709
 2107TIP3    H127812   2.477   1.041   4.147 -1.7875  0.1757  1.9526
 2107TIP3    H227813   2.400   0.980   4.032 -0.6721 -0.4340  1.5162
 2108TIP3   OH227814   2.530   3.193  26.454 -0.1948 -0.7441  0.4868
 2108TIP3    H127815   2.444   3.162  26.425 -0.2440 -1.3451  1.2174
 2108TIP3    H227816   2.561   3.124  26.512  0.5497 -0.2801  0.6497
 2109TIP3   OH227817   2.821   0.896  26.780 -0.4351 -0.1378  0.3753
 2109TIP3    H127818   2.735   0.859  26.758 -0.7958  0.8162  0.1063
 2109TIP3    H227819   2.813   0.989  26.756  1.5066 -0.5087 -2.1032
 2110TIP3   OH227820   3.077   0.709  53.702  0.0096  0.5836 -0.0011
 2110TIP3    H127821   3.045   0.668  53.622  0.7858 -0.5844  0.2672
 2110TIP3    H227822   3.037   0.796  53.701 -0.0568  0.5692 -1.6048
 2111TIP3   OH227823   1.622   0.839  44.374  0.1906  0.6860 -0.0126
 2111TIP3    H127824   1.553   0.784  44.336 -0.2656  1.1778  0.0958
 2111TIP3    H227825   1.687   0.847  44.304  0.3448 -0.1186  0.0228
 2112TIP3   OH227826   0.106   1.805  48.427  0.6701 -0.0865  0.1036
 2112TIP3    H127827   0.093   1.843  48.340  0.5761 -1.5458 -0.5631
 2112TIP3    H227828   0.201   1.798  48.437  0.6933  0.4864  0.3144
 2113TIP3   OH227829   3.391   3.094  19.480  0.1700 -0.2050  0.3497
 2113TIP3    H127830   3.426   3.175  19.517  0.9566 -0.7887  0.9113
 2113TIP3    H227831   3.301   3.116  19.455 -0.2662  0.3290  2.2557
 2114TIP3   OH227832   0.581   3.354  38.265  0.5305  0.6921  0.5428
 2114TIP3    H127833   0.558   3.312  38.348  0.7852 -0.5746 -0.0161
 2114TIP3    H227834   0.502   3.345  38.211  0.3817  1.4731  0.6108
 2115TIP3   OH227835   2.038   0.334  62.139 -0.7477 -0.1792  0.9077
 2115TIP3    H127836   2.122   0.319  62.097 -1.6853  2.3590 -2.3148
 2115TIP3    H227837   2.058   0.388  62.215  0.5328  0.9029 -0.1510
 2116TIP3   OH227838   2.522   0.406  12.254 -0.4655 -0.4958  0.6002
 2116TIP3    H127839   2.582   0.417  12.181  0.7520  0.5316  1.7023
 2116TIP3    H227840   2.495   0.314  12.250 -0.8756 -0.3317 -1.4280
 2117TIP3   OH227841   2.675   2.499  10.265  0.9098 -0.1584  0.5978
 2117TIP3    H127842   2.718   2.551  10.197  1.1694  0.7493  1.4154
 2117TIP3    H227843   2.606   2.557  10.299  0.5175 -0.7520  0.8275
 2118TIP3   OH227844   2.503   2.459  13.862  0.5197 -0.1639 -0.0600
 2118TIP3    H127845   2.435   2.448  13.928  1.8337 -0.5588  1.2653
 2118TIP3    H227846   2.456   2.456  13.779 -0.7296 -3.9944  0.6141
 2119TIP3   OH227847   0.819   1.481  37.880  0.5768 -0.4661  0.3432
 2119TIP3    H127848   0.779   1.500  37.795  0.8939 -0.3105  0.2283
 2119TIP3    H227849   0.900   1.532  37.880 -0.5905  1.5305  1.7406
 2120TIP3   OH227850   0.656   0.278  55.701  0.1103 -0.0128  0.1233
 2120TIP3    H127851   0.700   0.362  55.710 -0.5342  0.2186  1.4439
 2120TIP3    H227852   0.564   0.300  55.690  0.0702 -0.5305 -0.6480
 2121TIP3   OH227853   2.521   2.247  55.589 -0.1989  0.2459 -0.2352
 2121TIP3    H127854   2.550   2.156  55.588 -1.3758 -0.1450 -0.8221
 2121TIP3    H227855   2.465   2.253  55.666  0.0486  0.5372 -0.0761
 2122TIP3   OH227856   2.329   0.306  65.023  0.0184 -0.3073 -0.3397
 2122TIP3    H127857   2.291   0.365  65.089  2.0259  0.9445 -0.2256
 2122TIP3    H227858   2.284   0.223  65.037 -1.1678  0.5200  1.1429
 2123TIP3   OH227859   2.539   0.470  50.927  0.0556  0.3345 -0.1034
 2123TIP3    H127860   2.500   0.420  50.998  1.3504 -0.5593 -0.0113
 2123TIP3    H227861   2.495   0.555  50.931  0.5052  0.5091  2.1299
 2124TIP3   OH227862   2.977   1.294  17.926 -0.3371  0.0991  0.3979
 2124TIP3    H127863   3.021   1.355  17.985 -0.5473  0.4803  0.1654
 2124TIP3    H227864   3.045   1.266  17.865 -0.1666 -0.1411  0.6986
 2125TIP3   OH227865   1.555   1.875  19.923 -0.2391 -0.2305 -0.4567
 2125TIP3    H127866   1.471   1.841  19.892 -0.6809 -0.0302  0.4880
 2125TIP3    H227867   1.599   1.798  19.961 -0.3362 -0.1830 -0.2443
 2126TIP3   OH227868   2.941   0.269  20.235  0.0673  0.2087  0.2039
 2126TIP3    H127869   2.880   0.243  20.304  1.6015 -0.7384  1.2671
 2126TIP3    H227870   2.900   0.345  20.195 -2.3259 -1.0171  0.1333
 2127TIP3   OH227871   2.713   0.963   9.962  0.0962 -0.4339 -0.0010
 2127TIP3    H127872   2.711   0.957  10.057  2.0569  0.8323  0.1671
 2127TIP3    H227873   2.805   0.956   9.939 -0.0943  1.4578 -1.6199
 2128TIP3   OH227874   2.377   0.478  53.110  0.8908 -0.1804 -0.3424
 2128TIP3    H127875   2.394   0.539  53.037 -0.4757  0.5707 -0.0772
 2128TIP3    H227876   2.462   0.437  53.127  1.2246 -0.4998 -2.4643
 2129TIP3   OH227877   0.372   0.904  18.372  0.2667 -0.0755 -0.0320
 2129TIP3    H127878   0.409   0.833  18.425 -1.5770  0.3670  2.0418
 2129TIP3    H227879   0.350   0.863  18.289  0.4994 -1.6104  0.6223
 2130TIP3   OH227880   1.976   2.177  21.355  0.5764  0.1915 -0.4820
 2130TIP3    H127881   1.944   2.211  21.271  0.0713  3.2947  0.8188
 2130TIP3    H227882   2.051   2.233  21.376  1.1049 -0.9675  0.8452
 2131TIP3   OH227883   2.637   0.919  45.434  0.5143  0.2592  0.0572
 2131TIP3    H127884   2.579   0.959  45.370  0.2819  0.2435  0.2571
 2131TIP3    H227885   2.703   0.874  45.382  0.8610  1.0106 -0.1717
 2132TIP3   OH227886   2.346   0.667  65.258 -0.3366  0.1113 -0.1030
 2132TIP3    H127887   2.313   0.748  65.220 -0.7575 -0.3628 -0.7678
 2132TIP3    H227888   2.440   0.669  65.242  0.0478  1.5212  1.8873
 2133TIP3   OH227889   1.238   2.839  49.096 -0.2472  0.0414  0.6942
 2133TIP3    H127890   1.328   2.814  49.073 -0.9112 -0.7309 -1.2737
 2133TIP3    H227891   1.240   2.935  49.100  0.5015  0.0669 -0.0668
 2134TIP3   OH227892   0.952   3.074  58.718  0.0572  0.7913 -0.3382
 2134TIP3    H127893   0.889   3.145  58.713 -0.2939  0.5060 -0.0380
 2134TIP3    H227894   0.919   3.008  58.657  1.0105  1.3621 -1.5005
 2135TIP3   OH227895   1.596   0.273  62.009 -0.2128  0.1435  0.3044
 2135TIP3    H127896   1.549   0.327  62.073  2.5354  2.0129  0.9362
 2135TIP3    H227897   1.673   0.241  62.056  1.1207  0.3223 -1.6322
 2136TIP3   OH227898   0.736   3.164  53.300 -0.3820 -0.4835  0.3238
 2136TIP3    H127899   0.647   3.138  53.273  0.2163 -1.5525 -0.7518
 2136TIP3    H227900   0.779   3.081  53.322  0.6386 -0.0928 -0.1236
 2137TIP3   OH227901   2.613   1.939   0.345 -0.5086 -0.2869 -0.0478
 2137TIP3    H127902   2.524   1.964   0.322 -0.6050  1.1898  1.7454
 2137TIP3    H227903   2.664   2.020   0.336 -0.2013 -0.0611  2.8880
 2138TIP3   OH227904   2.390   1.599  49.095  0.0297  0.1583  0.2260
 2138TIP3    H127905   2.319   1.547  49.058 -0.2240 -0.1481  1.1206
 2138TIP3    H227906   2.438   1.632  49.018 -0.4083 -0.5481 -0.3695
 2139TIP3   OH227907   2.531   2.317   7.732  0.2210  0.1445 -0.1433
 2139TIP3    H127908   2.439   2.340   7.738 -0.3728 -2.1274  0.2527
 2139TIP3    H227909   2.547   2.258   7.807  2.2409  1.2070  0.3561
 2140TIP3   OH227910   0.075   1.039   2.404  0.0926 -1.0723 -0.5316
 2140TIP3    H127911   0.134   1.083   2.344 -1.5927  1.1909 -0.6500
 2140TIP3    H227912   0.029   0.974   2.350  1.4144 -1.8782 -0.7260
 2141TIP3   OH227913   0.869   2.982  33.898  0.1171 -1.0272 -0.3358
 2141TIP3    H127914   0.798   3.010  33.841 -0.6040 -2.6902 -0.3073
 2141TIP3    H227915   0.862   2.886  33.901  3.0045 -1.3755 -1.2197
 2142TIP3   OH227916   3.155   3.089  44.148 -0.0960  0.2018 -0.5019
 2142TIP3    H127917   3.089   3.024  44.172  0.7303 -1.0651 -1.5231
 2142TIP3    H227918   3.238   3.051  44.175  0.4092  0.8179 -1.1277
 2143TIP3   OH227919   1.419   1.910  42.691  0.0867 -0.0763 -0.7817
 2143TIP3    H127920   1.502   1.949  42.664  0.7435 -1.6073 -1.0598
 2143TIP3    H227921   1.443   1.827  42.733 -1.0409  1.1051  2.5513
 2144TIP3   OH227922   2.729   2.428  53.293 -0.0734 -0.4022  0.1143
 2144TIP3    H127923   2.662   2.486  53.256  0.9937  0.4566 -0.5301
 2144TIP3    H227924   2.799   2.428  53.228  1.7848  0.9879  1.9905
 2145TIP3   OH227925   2.438   2.427   8.749 -0.2627 -0.5054 -0.2299
 2145TIP3    H127926   2.443   2.434   8.844 -0.5267  2.4065 -0.3245
 2145TIP3    H227927   2.455   2.335   8.730 -2.3074 -1.6231  2.7299
 2146TIP3   OH227928   2.062   3.439  16.110  0.0430  0.0279 -0.1927
 2146TIP3    H127929   2.153   3.467  16.117 -0.0234 -0.1057  2.1849
 2146TIP3    H227930   2.065   3.356  16.063  1.3806 -0.7652  1.1889
 2147TIP3   OH227931   1.208   0.990  61.738  0.1148  0.1100 -0.3825
 2147TIP3    H127932   1.228   0.952  61.652  1.2039  2.2904 -1.1641
 2147TIP3    H227933   1.165   0.919  61.785  0.7464 -1.6246 -2.2235
 2148TIP3   OH227934   1.747   0.476   6.472  0.6250  0.1070  0.0891
 2148TIP3    H127935   1.780   0.397   6.429 -1.3572 -0.3178 -0.7171
 2148TIP3    H227936   1.760   0.546   6.407  0.9555  0.1613  0.2105
 2149TIP3   OH227937   1.875   0.899   4.737 -0.1280 -0.0783 -0.1826
 2149TIP3    H127938   1.867   0.812   4.774 -1.2701 -0.0836 -0.4041
 2149TIP3    H227939   1.903   0.885   4.647 -0.8445 -0.2521 -0.3825
 2150TIP3   OH227940   1.284   1.588   3.678  0.3631  0.6989  0.5274
 2150TIP3    H127941   1.240   1.615   3.758 -1.1473  1.7743 -0.6020
 2150TIP3    H227942   1.361   1.645   3.672  0.1415  1.0358  0.8785
 2151TIP3   OH227943   0.011   1.460  14.775  0.4079 -0.6023 -0.2449
 2151TIP3    H127944  -0.004   1.517  14.700 -0.2724 -1.0307 -0.4445
 2151TIP3    H227945   0.088   1.496  14.818 -0.6959  1.1942  0.3230
 2152TIP3   OH227946   0.347   2.602  12.539  0.0853  0.4184  0.0316
 2152TIP3    H127947   0.278   2.646  12.588  0.1513 -0.0926  0.6032
 2152TIP3    H227948   0.421   2.662  12.543  1.1491 -0.8779  3.3218
 2153TIP3   OH227949   0.024   3.075  55.128  0.2558 -0.2390  0.1865
 2153TIP3    H127950  -0.001   3.109  55.042 -0.5363 -1.4147 -0.0722
 2153TIP3    H227951   0.068   2.992  55.109  0.9531 -0.0428  0.8737
 2154TIP3   OH227952   0.729   1.701  56.563 -0.1528  0.5386 -0.4353
 2154TIP3    H127953   0.683   1.653  56.632  0.1053 -1.6908 -1.7080
 2154TIP3    H227954   0.660   1.738  56.509 -0.4888 -1.2053 -1.2663
 2155TIP3   OH227955   2.647   2.801  53.464 -0.3597  0.4212  0.5766
 2155TIP3    H127956   2.721   2.764  53.513  0.2171 -0.1909 -0.7117
 2155TIP3    H227957   2.654   2.895  53.478 -0.4716  0.2458  2.0048
 2156TIP3   OH227958   1.492   2.261  53.655  0.3240  0.4094 -0.1909
 2156TIP3    H127959   1.485   2.212  53.573 -0.9227  0.8858 -0.3839
 2156TIP3    H227960   1.585   2.284  53.660  0.9987 -2.0095 -0.0479
 2157TIP3   OH227961   2.993   0.653   0.012 -0.0521 -0.5597  0.6637
 2157TIP3    H127962   3.037   0.658  -0.073 -0.2737  1.6387  0.5994
 2157TIP3    H227963   3.002   0.562   0.040  1.2053 -1.0084 -1.0865
 2158TIP3   OH227964   3.243   3.137   7.211  0.4517  0.7186  0.3334
 2158TIP3    H127965   3.185   3.154   7.285 -0.0700  0.3806  0.0117
 2158TIP3    H227966   3.328   3.117   7.251 -0.0981 -0.5959  0.9018
 2159TIP3   OH227967   0.911   2.236  60.514 -0.4646  0.0961  0.3506
 2159TIP3    H127968   0.997   2.260  60.478 -2.1364 -0.0005 -4.3677
 2159TIP3    H227969   0.911   2.141  60.513 -1.0254  0.0789 -1.0938
 2160TIP3   OH227970   1.180   0.834   8.852 -0.4048 -0.6130 -0.6447
 2160TIP3    H127971   1.095   0.875   8.871 -0.8294 -1.6770 -0.1346
 2160TIP3    H227972   1.229   0.901   8.803 -0.9791  0.5695  0.3362
 2161TIP3   OH227973   2.040   0.964  64.597  0.3219 -0.0973 -0.0049
 2161TIP3    H127974   1.982   1.026  64.552  1.5035  2.8646  2.2553
 2161TIP3    H227975   2.103   0.937  64.529  0.5591  2.2497 -0.8079
 2162TIP3   OH227976   3.391   2.134  13.727  0.4697 -0.7418 -0.0890
 2162TIP3    H127977   3.382   2.060  13.787  1.4651 -1.0892 -0.3518
 2162TIP3    H227978   3.480   2.165  13.741 -0.6233  1.9889  1.7887
 2163TIP3   OH227979   2.236   1.624  12.901 -0.0540 -0.0084  0.2140
 2163TIP3    H127980   2.210   1.535  12.879 -1.6187  0.0099  1.7700
 2163TIP3    H227981   2.280   1.657  12.823 -1.7961 -1.2430 -1.3588
 2164TIP3   OH227982   0.022   0.666  61.490  0.8342 -0.3924  0.3425
 2164TIP3    H127983   0.073   0.630  61.418  1.2404 -1.3515  1.0760
 2164TIP3    H227984  -0.069   0.654  61.465  0.9521  0.5015 -0.5762
 2165TIP3   OH227985   0.003   2.552   3.111 -0.5534  0.8018 -0.7635
 2165TIP3    H127986  -0.017   2.642   3.136 -1.0436  0.8013 -1.1417
 2165TIP3    H227987  -0.079   2.504   3.126 -0.5455  0.5925 -1.3759
 2166TIP3   OH227988   2.381   1.848   7.273  0.3498  0.1851 -0.2359
 2166TIP3    H127989   2.448   1.883   7.215  1.3230 -0.9814  0.1384
 2166TIP3    H227990   2.428   1.827   7.354 -0.8901  1.3897  0.8509
 2167TIP3   OH227991   1.007   1.356   6.128  0.8619 -0.1838  0.4124
 2167TIP3    H127992   1.064   1.379   6.201  1.9111  3.0687 -1.2624
 2167TIP3    H227993   0.967   1.439   6.101  0.0728 -1.3437 -2.3455
 2168TIP3   OH227994   1.853   2.230   6.148  0.2226  0.4076 -0.2627
 2168TIP3    H127995   1.844   2.155   6.206 -2.5394  0.9373  0.1362
 2168TIP3    H227996   1.916   2.288   6.192 -1.0583  0.3524  1.7559
 2169TIP3   OH227997   2.159   2.406  47.152 -0.0795 -0.5953 -0.7111
 2169TIP3    H127998   2.182   2.450  47.070 -0.3029  2.7456  0.8221
 2169TIP3    H227999   2.095   2.340  47.127  0.6120 -0.3911 -3.3293
 2170TIP3   OH228000   1.076   1.276   8.534  0.2105  0.3403  0.5573
 2170TIP3    H128001   1.019   1.353   8.537  0.6209  0.6943 -0.4714
 2170TIP3    H228002   1.047   1.227   8.457  0.5366 -0.0803  0.6958
 2171TIP3   OH228003   0.722   1.988  57.556 -0.1151 -0.7248  0.2332
 2171TIP3    H128004   0.690   1.912  57.509 -0.2507 -1.1727  1.0375
 2171TIP3    H228005   0.666   1.995  57.633 -0.3191  0.3878  0.0078
 2172TIP3   OH228006   1.312   0.417  13.875  0.3893 -0.3256 -0.4973
 2172TIP3    H128007   1.316   0.325  13.849  0.0719 -0.6570  0.5491
 2172TIP3    H228008   1.224   0.428  13.912  0.6618  0.2052  0.0160
 2173TIP3   OH228009   3.225   0.125  58.479  0.0169  0.7997  0.5136
 2173TIP3    H128010   3.193   0.186  58.413  0.4645 -0.0067 -0.4840
 2173TIP3    H228011   3.306   0.164  58.511 -0.3075  1.2930  0.7367
 2174TIP3   OH228012   1.623   2.634  14.312  0.0610  0.0658 -0.0014
 2174TIP3    H128013   1.544   2.621  14.364 -0.6544  0.5957 -0.9391
 2174TIP3    H228014   1.683   2.566  14.344  0.0906  1.0710  2.3153
 2175TIP3   OH228015   2.354   0.858  60.931 -0.3414  0.5380  0.2503
 2175TIP3    H128016   2.368   0.952  60.924 -1.1808  0.7175  0.8797
 2175TIP3    H228017   2.316   0.834  60.847 -0.8930  0.9053  0.3913
 2176TIP3   OH228018   0.055   0.095  54.493  0.3627  0.7224 -0.3034
 2176TIP3    H128019  -0.001   0.055  54.426  1.1386  1.0561 -1.1670
 2176TIP3    H228020   0.057   0.188  54.471  0.1209  0.9458  0.5675
 2177TIP3   OH228021   2.370   2.196  54.605 -0.1141 -0.8530  0.5780
 2177TIP3    H128022   2.314   2.266  54.570  0.5133 -1.5735 -2.0941
 2177TIP3    H228023   2.319   2.116  54.592 -0.6005 -1.0452  3.1067
 2178TIP3   OH228024   3.315   0.558  42.772  0.0341 -0.1074  0.0833
 2178TIP3    H128025   3.247   0.491  42.783 -0.8507  0.5996 -0.9750
 2178TIP3    H228026   3.386   0.513  42.726 -0.5395 -0.3484 -0.5846
 2179TIP3   OH228027   0.026   1.999   3.720 -0.3780 -0.1874  0.5256
 2179TIP3    H128028   0.086   2.054   3.669 -0.0931  1.1583  2.2349
 2179TIP3    H228029  -0.061   2.032   3.697 -0.4412 -1.3002 -0.9886
 2180TIP3   OH228030   2.512   0.959  13.358 -0.0889  0.2017 -0.2216
 2180TIP3    H128031   2.539   1.048  13.377 -0.3467  0.4636 -1.0372
 2180TIP3    H228032   2.593   0.909  13.350  0.0490  0.3197  0.4183
 2181TIP3   OH228033   0.282   1.452  22.546  0.5477 -0.2670  0.3382
 2181TIP3    H128034   0.336   1.377  22.568  0.1730 -0.3519  0.9730
 2181TIP3    H228035   0.238   1.476  22.627 -0.8027 -0.5487 -0.2698
 2182TIP3   OH228036   1.172   3.093  15.081  0.1885 -0.4679 -0.2551
 2182TIP3    H128037   1.130   3.008  15.072  0.6062 -0.8477  1.2408
 2182TIP3    H228038   1.233   3.097  15.007 -2.8764  0.4405 -3.0215
 2183TIP3   OH228039   3.225   1.869  57.562  0.0880  0.4788 -0.3281
 2183TIP3    H128040   3.277   1.807  57.613 -0.3423 -0.1278 -0.6074
 2183TIP3    H228041   3.255   1.855  57.472 -1.8505 -1.2634 -0.7820
 2184TIP3   OH228042   0.031   1.380  66.895 -0.4327  0.2213  0.1014
 2184TIP3    H128043   0.038   1.285  66.887  1.6929  0.0424  2.6337
 2184TIP3    H228044  -0.015   1.408  66.816 -0.5544 -2.8231 -1.0271
 2185TIP3   OH228045   1.170   0.791   4.910  0.2424 -0.0375  0.3114
 2185TIP3    H128046   1.181   0.877   4.949  0.3980  0.2233 -0.2970
 2185TIP3    H228047   1.251   0.776   4.860  0.2976 -0.6113  0.5617
 2186TIP3   OH228048   1.021   0.175   1.427 -0.5360 -0.6217 -0.1610
 2186TIP3    H128049   1.060   0.121   1.496  0.5515  0.3350  0.0076
 2186TIP3    H228050   1.045   0.131   1.346 -0.3395 -0.8219  0.0029
 2187TIP3   OH228051   0.833   3.246   9.925  0.1774 -0.4780  0.1714
 2187TIP3    H128052   0.870   3.295   9.852  0.3417 -1.2834 -0.2924
 2187TIP3    H228053   0.786   3.312   9.976 -0.0123  0.0873 -0.7027
 2188TIP3   OH228054   3.206   1.645  20.910 -0.1996 -0.3936 -0.4169
 2188TIP3    H128055   3.217   1.656  21.004 -0.3559 -1.2481 -0.2919
 2188TIP3    H228056   3.296   1.639  20.876  0.0339  2.8622 -0.7437
 2189TIP3   OH228057   0.670   0.800  63.533 -0.6428  0.2932 -0.3174
 2189TIP3    H128058   0.688   0.771  63.444 -0.4575 -0.6420  0.0155
 2189TIP3    H228059   0.580   0.833  63.530  0.1027  2.4105 -1.3566
 2190TIP3   OH228060   2.988   0.739   1.529  0.0817  0.3071 -0.2924
 2190TIP3    H128061   2.918   0.803   1.540  2.0918  2.5673  0.2359
 2190TIP3    H228062   3.045   0.752   1.605  0.6632 -2.0697 -0.2305
 2191TIP3   OH228063   1.818   3.395   4.161 -0.0816 -0.0225  0.3931
 2191TIP3    H128064   1.753   3.404   4.092  0.8667  2.6868 -0.3087
 2191TIP3    H228065   1.867   3.317   4.138 -1.5367 -0.7355 -0.4206
 2192TIP3   OH228066   2.064   1.205   7.586  0.1671 -0.2048  0.0818
 2192TIP3    H128067   1.970   1.186   7.584  0.0019  0.2019  2.0166
 2192TIP3    H228068   2.091   1.203   7.494 -2.0626  1.3256 -0.6928
 2193TIP3   OH228069   0.365   2.451  58.731 -0.0321  0.2603 -0.0810
 2193TIP3    H128070   0.280   2.493  58.744 -0.0431  0.7163 -1.4946
 2193TIP3    H228071   0.354   2.399  58.651  0.9772  0.2317 -0.2120
 2194TIP3   OH228072   2.227   1.778  43.408 -0.0343 -0.0715  0.6324
 2194TIP3    H128073   2.230   1.865  43.449 -0.1261 -0.4367  1.4394
 2194TIP3    H228074   2.157   1.785  43.343  1.3942  1.0973 -0.8833
 2195TIP3   OH228075   2.990   0.325  47.103 -0.4546 -0.2670 -0.1786
 2195TIP3    H128076   2.971   0.418  47.115  1.4669  0.0722  0.6724
 2195TIP3    H228077   3.082   0.323  47.077 -0.4268 -1.9445 -0.0660
 2196TIP3   OH228078   1.216   2.003   0.803 -0.2295  0.4949  0.2107
 2196TIP3    H128079   1.254   2.047   0.879 -2.3551 -0.5554  2.0078
 2196TIP3    H228080   1.253   1.915   0.804  1.1093  1.0184 -1.0919
 2197TIP3   OH228081   0.701   1.850  54.582  0.2589 -0.1107  0.1490
 2197TIP3    H128082   0.771   1.787  54.568  1.4392  1.1733  0.1253
 2197TIP3    H228083   0.623   1.796  54.597  1.3537 -1.5702  0.7937
 2198TIP3   OH228084   2.877   2.628  29.807 -0.6471  0.6035 -0.5827
 2198TIP3    H128085   2.814   2.700  29.797 -1.0965 -0.0968 -3.4336
 2198TIP3    H228086   2.841   2.576  29.879 -2.0712  1.4776 -0.6031
 2199TIP3   OH228087   2.516   0.624   8.511  0.3757  0.3257 -0.3666
 2199TIP3    H128088   2.450   0.589   8.451  0.7418  1.8929 -1.7662
 2199TIP3    H228089   2.485   0.600   8.598 -1.3973 -0.0300 -1.0591
 2200TIP3   OH228090   1.874   1.487  50.789 -0.0293 -0.3425  0.2936
 2200TIP3    H128091   1.959   1.519  50.759 -1.3507  1.2567 -2.1442
 2200TIP3    H228092   1.889   1.397  50.815  2.1173 -0.6244 -1.6533
 2201TIP3   OH228093   0.676   1.839  15.606  0.4516 -0.0454  0.0180
 2201TIP3    H128094   0.751   1.891  15.634  1.4233 -0.7549 -1.1293
 2201TIP3    H228095   0.604   1.867  15.662  2.1895 -1.2339  3.0681
 2202TIP3   OH228096   2.600   1.338  61.227 -0.7865  0.4815  0.2341
 2202TIP3    H128097   2.539   1.401  61.190 -0.2462  0.7481 -0.2213
 2202TIP3    H228098   2.563   1.253  61.205 -0.6283  0.6342 -0.6753
 2203TIP3   OH228099   2.617   2.856  10.764 -0.4370  0.1142  0.4381
 2203TIP3    H128100   2.687   2.864  10.828 -1.2728 -2.6032  1.8612
 2203TIP3    H228101   2.662   2.853  10.679  0.9081  1.1484  1.0763
 2204TIP3   OH228102   1.398   2.596  46.124  0.2486  0.0994 -0.0890
 2204TIP3    H128103   1.398   2.615  46.218 -2.6896  1.7411 -0.2877
 2204TIP3    H228104   1.390   2.681  46.082 -1.1299 -0.7500 -1.6730
 2205TIP3   OH228105   2.143   1.004  46.360  0.1822 -0.8941 -0.0178
 2205TIP3    H128106   2.119   1.056  46.437 -0.6834 -0.6611 -0.4350
 2205TIP3    H228107   2.168   1.069  46.294 -0.0071 -1.0497 -0.2433
 2206TIP3   OH228108   1.304   1.420   8.674 -0.1129  0.4660  0.1766
 2206TIP3    H128109   1.359   1.496   8.697  1.3088 -1.0971  2.3493
 2206TIP3    H228110   1.216   1.445   8.703  0.6616  0.6822  2.5585
 2207TIP3   OH228111   1.592   0.686  11.910  0.5801 -0.2754  0.3836
 2207TIP3    H128112   1.616   0.599  11.943  1.3428  0.6796  2.5474
 2207TIP3    H228113   1.670   0.739  11.924 -0.2991  1.0801  0.3280
 2208TIP3   OH228114   0.773   0.117  20.030 -0.1925  0.3366 -0.5703
 2208TIP3    H128115   0.757   0.201  19.989 -1.4242  1.8219  2.6367
 2208TIP3    H228116   0.792   0.138  20.122  0.0961 -2.8504  0.2266
 2209TIP3   OH228117   2.310   1.093  50.590  0.0861 -0.0857 -0.1450
 2209TIP3    H128118   2.353   1.141  50.519  0.5368 -0.9457 -0.4652
 2209TIP3    H228119   2.216   1.106  50.574  0.1846  2.1339  0.7865
 2210TIP3   OH228120   1.197   1.240  53.882 -0.0228 -0.5216  0.3885
 2210TIP3    H128121   1.281   1.232  53.928  0.6996 -0.5275 -0.8945
 2210TIP3    H228122   1.132   1.236  53.952  1.0804  1.0623  1.5940
 2211TIP3   OH228123   1.009   2.901  55.080  0.3699  0.5756 -0.5958
 2211TIP3    H128124   1.035   2.894  55.172  0.2341 -0.1143 -0.6010
 2211TIP3    H228125   1.067   2.841  55.034  0.5492  1.0418 -0.9885
 2212TIP3   OH228126   0.124   0.229  65.955 -0.1571  0.3116  0.2447
 2212TIP3    H128127   0.187   0.298  65.934  0.9004 -0.9551 -0.9990
 2212TIP3    H228128   0.051   0.245  65.896 -0.1549  0.7009  0.3512
 2213TIP3   OH228129   0.916   0.618  55.269  0.1415 -0.2781  0.6096
 2213TIP3    H128130   0.853   0.550  55.291 -0.0862  0.5312  2.7148
 2213TIP3    H228131   0.957   0.642  55.352  1.0948  1.2934 -0.2372
 2214TIP3   OH228132   1.670   2.823  55.061  0.5664 -0.2780  0.3399
 2214TIP3    H128133   1.589   2.773  55.060  0.4163 -0.0430  0.4737
 2214TIP3    H228134   1.727   2.777  55.122  0.7906 -0.8387 -0.2834
 2215TIP3   OH228135   1.977   3.154  47.029  0.4039 -0.4764  0.6614
 2215TIP3    H128136   2.057   3.201  47.052  0.6750  0.5001 -2.0195
 2215TIP3    H228137   1.909   3.195  47.083  0.8941  2.0892 -0.5343
 2216TIP3   OH228138   0.111   2.885  57.947 -0.7058 -0.0040 -0.3293
 2216TIP3    H128139   0.159   2.935  57.881 -1.1930 -0.2996 -0.9135
 2216TIP3    H228140   0.030   2.935  57.961 -0.5410  0.1334  0.1538
 2217TIP3   OH228141   1.571   3.405  61.551 -0.3914 -0.1159  0.8633
 2217TIP3    H128142   1.600   3.345  61.620  0.8418  0.6688  1.0491
 2217TIP3    H228143   1.650   3.422  61.500 -1.0597  0.1809 -0.0961
 2218TIP3   OH228144   0.133   2.305   0.944 -0.3239 -0.0425  0.2751
 2218TIP3    H128145   0.185   2.252   0.884 -1.4350 -1.3850  0.4403
 2218TIP3    H228146   0.160   2.276   1.031  0.9614  1.5825  0.4703
 2219TIP3   OH228147   0.506   3.044   0.830  0.3174 -0.7542 -0.2483
 2219TIP3    H128148   0.488   3.063   0.922 -0.3221  1.1846 -0.7422
 2219TIP3    H228149   0.479   2.952   0.820 -1.6008 -0.3934  1.0125
 2220TIP3   OH228150   2.350   0.654  26.166 -0.0737 -0.3171  0.0084
 2220TIP3    H128151   2.371   0.579  26.221 -0.6298  0.2853  1.0878
 2220TIP3    H228152   2.426   0.711  26.172 -0.5323  0.2311  1.0510
 2221TIP3   OH228153   0.003   3.277   1.129 -0.5497  0.1463  0.5069
 2221TIP3    H128154  -0.054   3.216   1.082  0.8558 -0.3671 -0.5936
 2221TIP3    H228155  -0.028   3.273   1.219 -0.6324 -2.0468  0.4303
 2222TIP3   OH228156   2.861   2.603  56.496  0.1284 -0.2074  0.0202
 2222TIP3    H128157   2.815   2.681  56.465 -0.1000 -0.2157  0.3364
 2222TIP3    H228158   2.946   2.636  56.525 -0.6926  0.2584  2.0380
 2223TIP3   OH228159   3.015   2.066  17.247 -0.0796 -0.5696  0.0547
 2223TIP3    H128160   3.097   2.089  17.292  0.2078  1.7491 -1.4602
 2223TIP3    H228161   3.038   1.991  17.192  1.8408  1.4474 -2.1520
 2224TIP3   OH228162   1.013   0.640  17.716  0.8118 -0.1473  0.7524
 2224TIP3    H128163   1.058   0.617  17.797 -0.9244 -0.8775  1.5713
 2224TIP3    H228164   0.958   0.715  17.739  2.4001  1.5152 -0.5337
 2225TIP3   OH228165   2.543   0.409  51.504  0.5737  0.3544  0.5914
 2225TIP3    H128166   2.607   0.479  51.493  4.2925 -2.6631  0.9082
 2225TIP3    H228167   2.525   0.407  51.598  0.6257  0.7111  0.6092
 2226TIP3   OH228168   2.863   0.223  56.881  0.2319  0.5884 -0.2447
 2226TIP3    H128169   2.794   0.240  56.946 -1.4445 -0.3039 -1.6924
 2226TIP3    H228170   2.855   0.294  56.818 -0.3911 -0.3114 -1.2079
 2227TIP3   OH228171   3.250   1.331  53.025  0.3472  0.1222  0.5772
 2227TIP3    H128172   3.308   1.267  53.066  0.3310 -0.0018  0.4087
 2227TIP3    H228173   3.165   1.288  53.023  0.5332 -0.2165 -0.3791
 2228TIP3   OH228174   1.085   1.140   4.205  0.2757  0.3973 -0.4564
 2228TIP3    H128175   1.022   1.070   4.217  0.1181  0.2766 -1.7682
 2228TIP3    H228176   1.057   1.184   4.124  1.8587  0.3214 -1.0974
 2229TIP3   OH228177   0.113   0.036  56.252  0.6560  0.0866 -0.2889
 2229TIP3    H128178   0.089   0.037  56.345  0.6717  2.0636 -0.2706
 2229TIP3    H228179   0.038   0.075  56.207  0.9234 -0.2424 -1.0454
 2230TIP3   OH228180   0.098   2.980   2.600 -0.4121  0.3759 -0.3239
 2230TIP3    H128181   0.016   2.935   2.580 -0.7618  1.5022 -1.5576
 2230TIP3    H228182   0.106   2.972   2.695 -1.1558 -1.0628 -0.3421
 2231TIP3   OH228183   2.815   2.471   0.396 -0.5094 -0.0697  0.5796
 2231TIP3    H128184   2.884   2.485   0.461 -0.4548  1.1871  0.2785
 2231TIP3    H228185   2.739   2.442   0.448 -0.2847  0.3195  1.1390
 2232TIP3   OH228186   2.032   1.993  19.562  0.2177 -0.6382  0.0722
 2232TIP3    H128187   2.012   1.900  19.565 -2.0790 -0.1869  1.4131
 2232TIP3    H228188   1.983   2.026  19.487  2.6334 -0.7521 -1.6672
 2233TIP3   OH228189   0.511   2.633  54.995 -0.5370 -0.0138 -0.1905
 2233TIP3    H128190   0.472   2.547  54.987 -0.8330  0.0683  0.3523
 2233TIP3    H228191   0.528   2.660  54.905 -0.4333 -0.6397 -0.3595
 2234TIP3   OH228192   2.464   2.640  53.349  0.6884  0.1293 -0.7802
 2234TIP3    H128193   2.530   2.693  53.394  0.1166  0.6407 -0.5349
 2234TIP3    H228194   2.387   2.644  53.406  1.0488 -2.1025 -0.0429
 2235TIP3   OH228195   1.839   2.362  66.202 -0.4932 -0.1527  0.0307
 2235TIP3    H128196   1.844   2.267  66.210  1.8462 -0.0128  1.1389
 2235TIP3    H228197   1.751   2.384  66.232 -0.3301 -1.8220  1.9741
 2236TIP3   OH228198   2.601   3.156  15.957 -0.9792  0.1078 -0.4354
 2236TIP3    H128199   2.563   3.080  15.913  0.9897 -1.8821  1.0275
 2236TIP3    H228200   2.692   3.158  15.925 -0.8336  1.4941  0.0267
 2237TIP3   OH228201   0.546   1.606  44.378 -0.3527  0.4961  0.7244
 2237TIP3    H128202   0.497   1.609  44.460 -1.6740 -1.5764  0.0799
 2237TIP3    H228203   0.580   1.517  44.374  2.2242  1.4126  0.3831
 2238TIP3   OH228204   2.007   0.689   9.009 -0.7268  0.5458  0.3423
 2238TIP3    H128205   2.012   0.629   8.934 -2.1528  0.2880  0.4227
 2238TIP3    H228206   2.039   0.638   9.083 -2.3919 -0.3516  0.5090
 2239TIP3   OH228207   0.926   2.864  18.705  0.2940  0.4745 -0.1368
 2239TIP3    H128208   0.927   2.953  18.741  2.5236 -0.1642  1.6230
 2239TIP3    H228209   0.896   2.809  18.777 -0.2998 -0.3126 -0.9608
 2240TIP3   OH228210   2.181   1.307  61.087 -0.2596 -0.3143  0.3118
 2240TIP3    H128211   2.113   1.267  61.140 -1.3160  2.3492  1.1337
 2240TIP3    H228212   2.258   1.307  61.144 -0.3639 -0.7458  0.4581
 2241TIP3   OH228213   2.011   3.341  48.476  0.1289  0.8274 -0.4329
 2241TIP3    H128214   2.071   3.273  48.508 -1.0108 -0.9985 -1.9163
 2241TIP3    H228215   2.064   3.420  48.469  1.4061  0.2597  1.8302
 2242TIP3   OH228216   0.354   3.413  50.223  0.3854 -0.0320  0.0744
 2242TIP3    H128217   0.284   3.358  50.188  0.4508  0.7980 -1.4381
 2242TIP3    H228218   0.308   3.476  50.280 -0.0045  0.0058 -0.2766
 2243TIP3   OH228219   2.340   1.459  65.390  0.4314 -0.3251 -0.3983
 2243TIP3    H128220   2.403   1.390  65.407 -0.0500 -0.8190 -0.5832
 2243TIP3    H228221   2.393   1.538  65.379  0.8703 -0.1379  2.3081
 2244TIP3   OH228222   3.010   1.518  56.916 -0.8973  0.2915  0.0405
 2244TIP3    H128223   3.090   1.517  56.968 -1.4759  1.5914  0.9914
 2244TIP3    H228224   3.040   1.498  56.827  0.2018 -1.1707  0.6872
 2245TIP3   OH228225   0.567   3.450  12.483 -0.0763  0.1600  0.2528
 2245TIP3    H128226   0.527   3.456  12.570  0.6998 -0.8101  0.7106
 2245TIP3    H228227   0.493   3.443  12.422 -0.7790  3.9024  0.4511
 2246TIP3   OH228228   2.576   1.861  63.502 -0.2478  0.0245  0.3093
 2246TIP3    H128229   2.603   1.952  63.513  0.5337 -0.1850  0.1936
 2246TIP3    H228230   2.578   1.846  63.408  1.1009 -0.5301  0.4025
 2247TIP3   OH228231   2.789   1.001  61.517  0.4543 -0.1291 -0.3023
 2247TIP3    H128232   2.746   1.081  61.486 -0.1625 -0.2242  0.2848
 2247TIP3    H228233   2.721   0.955  61.566  1.5599  0.3411  1.7840
 2248TIP3   OH228234   2.341   0.004  65.868  0.2133 -0.3620 -0.3184
 2248TIP3    H128235   2.335  -0.062  65.937  0.3889  0.3136  0.3584
 2248TIP3    H228236   2.294  -0.034  65.794 -1.1715 -0.5355  0.6122
 2249TIP3   OH228237   0.430   3.302  45.718 -0.2946  0.8253  0.1603
 2249TIP3    H128238   0.502   3.242  45.739 -0.4427  0.4465 -0.4203
 2249TIP3    H228239   0.474   3.378  45.679 -0.2745  0.2064 -1.0498
 2250TIP3   OH228240   1.787   3.038   7.483 -0.5960  0.4112  0.2441
 2250TIP3    H128241   1.730   3.109   7.453 -2.0926 -0.2382  1.4340
 2250TIP3    H228242   1.749   2.959   7.446  2.1626  0.2752 -2.6890
 2251TIP3   OH228243   0.282   2.669  59.331  0.5923  0.2044  0.0857
 2251TIP3    H128244   0.299   2.645  59.240 -1.7707  2.3281 -1.0298
 2251TIP3    H228245   0.298   2.763  59.335 -1.3172  0.5369  1.2788
 2252TIP3   OH228246   1.820   0.743  66.112 -0.0517 -0.4542 -0.5900
 2252TIP3    H128247   1.764   0.774  66.183  0.5633 -0.0229 -0.2824
 2252TIP3    H228248   1.902   0.718  66.155  1.2562  2.0852 -1.3495
 2253TIP3   OH228249   1.096   1.798   4.494  0.4249  0.2275 -0.3723
 2253TIP3    H128250   1.130   1.814   4.582 -2.3943 -0.0354  0.8670
 2253TIP3    H228251   1.064   1.884   4.465  0.3330  0.0969 -0.6560
 2254TIP3   OH228252   0.793   3.168  54.680  0.3292 -0.0683  0.4024
 2254TIP3    H128253   0.724   3.101  54.677  0.2810 -0.0308  0.6896
 2254TIP3    H228254   0.867   3.123  54.720  0.8250 -0.4252 -0.8489
 2255TIP3   OH228255   2.914   2.908  60.652  0.1081  0.1969 -0.2261
 2255TIP3    H128256   2.997   2.881  60.612 -0.7757  2.3118 -3.9328
 2255TIP3    H228257   2.848   2.853  60.610 -0.7022  1.0869 -0.1560
 2256TIP3   OH228258   2.156   2.072  42.908  1.0144 -0.3700  0.2225
 2256TIP3    H128259   2.184   2.058  42.817  1.1716  1.1388  0.0102
 2256TIP3    H228260   2.064   2.048  42.908  0.7225  0.6294 -0.6331
 2257TIP3   OH228261   2.782   0.617   8.522 -0.3623  0.1182 -0.2276
 2257TIP3    H128262   2.798   0.698   8.570 -0.0173  0.4255 -0.8394
 2257TIP3    H228263   2.688   0.619   8.504 -0.2820  0.6134 -0.6250
 2258TIP3   OH228264   1.493   0.717  42.722  0.0082 -0.0449 -0.5205
 2258TIP3    H128265   1.444   0.744  42.644  0.0134  1.0252 -0.1777
 2258TIP3    H228266   1.460   0.774  42.792  3.2956  2.4816 -0.7399
 2259TIP3   OH228267   2.481   0.228  11.652 -0.3263  0.3952  0.2422
 2259TIP3    H128268   2.529   0.217  11.734 -0.7533  2.1418  0.7693
 2259TIP3    H228269   2.535   0.184  11.587  0.6320  0.0094  1.2561
 2260TIP3   OH228270   0.648   3.392  49.026 -0.2304 -0.4328 -0.4047
 2260TIP3    H128271   0.701   3.321  49.062 -0.1996 -0.7427 -1.0555
 2260TIP3    H228272   0.625   3.445  49.102 -2.3438 -2.4681  0.4828
 2261TIP3   OH228273   0.392   2.205  55.681  0.3781 -0.1824  0.3040
 2261TIP3    H128274   0.373   2.226  55.590  2.4287 -1.2696 -0.4211
 2261TIP3    H228275   0.317   2.153  55.710 -0.9266  1.2658 -0.3097
 2262TIP3   OH228276   2.339   1.606  52.867  0.2773  0.1973  0.3036
 2262TIP3    H128277   2.350   1.694  52.903  0.2155  0.7373 -0.9738
 2262TIP3    H228278   2.354   1.615  52.773 -0.0497 -1.1028  0.0997
 2263TIP3   OH228279   2.131   0.943  51.502 -0.0779  0.1645  0.3591
 2263TIP3    H128280   2.128   1.038  51.501  1.5137  0.2501  0.4462
 2263TIP3    H228281   2.157   0.919  51.413 -0.1163 -0.1603  0.4358
 2264TIP3   OH228282   0.594   1.797  11.940 -1.0750 -0.1114 -0.2226
 2264TIP3    H128283   0.674   1.828  11.983  0.7126 -1.1339 -2.5974
 2264TIP3    H228284   0.605   1.823  11.848 -3.0337 -1.1690 -0.8033
 2265TIP3   OH228285   2.749   0.727  46.047  0.4475  0.2279  0.5164
 2265TIP3    H128286   2.764   0.713  45.954  1.2572 -1.3143  0.8424
 2265TIP3    H228287   2.830   0.768  46.079  0.5416 -0.0977  0.7032
 2266TIP3   OH228288   0.152   3.208  16.272  0.4099  0.5036 -0.6367
 2266TIP3    H128289   0.069   3.213  16.319  0.7868  2.8711 -0.1203
 2266TIP3    H228290   0.214   3.259  16.325  1.9864 -0.4695 -1.4563
 2267TIP3   OH228291   1.208   3.168  56.945  0.2702  0.2794 -0.0925
 2267TIP3    H128292   1.235   3.259  56.957  0.0138  0.5058 -1.1796
 2267TIP3    H228293   1.285   3.117  56.968  0.5471  0.7808  0.1150
 2268TIP3   OH228294   1.771   0.844  12.007 -0.2361 -0.0284 -0.5585
 2268TIP3    H128295   1.737   0.906  12.073  0.6822 -0.7406  0.6220
 2268TIP3    H228296   1.852   0.884  11.976 -0.7538  0.3881 -1.4112
 2269TIP3   OH228297   0.699   0.745  16.012 -0.2990  0.3583 -0.1469
 2269TIP3    H128298   0.706   0.832  16.050 -1.0514 -0.2728  1.5992
 2269TIP3    H228299   0.716   0.686  16.086  1.3017 -0.9933 -1.5191
 2270TIP3   OH228300   2.864   0.305  42.216 -0.1150  0.0688 -0.0019
 2270TIP3    H128301   2.834   0.387  42.176 -0.4159 -1.0390 -2.2120
 2270TIP3    H228302   2.862   0.241  42.144  0.3083 -1.8386  1.5897
 2271TIP3   OH228303   2.157   0.009  10.060 -0.6078 -0.1608  0.3665
 2271TIP3    H128304   2.170  -0.080  10.027 -2.9532 -0.0435 -1.1320
 2271TIP3    H228305   2.063   0.024  10.052 -0.5232  1.8700  2.2202
 2272TIP3   OH228306   2.440   2.950  18.582 -0.0149 -0.0955 -0.1513
 2272TIP3    H128307   2.481   3.033  18.557 -0.7796 -0.4709 -3.0117
 2272TIP3    H228308   2.371   2.936  18.516  1.3016 -3.8659 -1.0109
 2273TIP3   OH228309   1.615   0.339  55.510 -0.3413 -0.0247  0.1648
 2273TIP3    H128310   1.571   0.312  55.591 -2.2854 -0.2464 -0.9044
 2273TIP3    H228311   1.616   0.260  55.456  1.9934 -0.1885  0.3687
 2274TIP3   OH228312   0.295   3.072  49.237  0.5403 -0.5565 -0.1723
 2274TIP3    H128313   0.272   2.980  49.223  0.4774 -0.5251 -0.2773
 2274TIP3    H228314   0.294   3.083  49.332 -1.1504 -0.2371 -0.2001
 2275TIP3   OH228315   2.124   1.100  44.528 -0.6211  0.0584  0.2406
 2275TIP3    H128316   2.119   1.195  44.516 -1.2784 -0.0884 -0.7530
 2275TIP3    H228317   2.052   1.079  44.588 -0.1361  0.2411  0.9029
 2276TIP3   OH228318   1.681   0.522  45.795  0.2492 -0.7350  0.1591
 2276TIP3    H128319   1.662   0.552  45.707  0.3338  0.5718  0.5646
 2276TIP3    H228320   1.745   0.585  45.829 -0.8239 -0.3733  1.6382
 2277TIP3   OH228321   1.081   1.029   6.059  0.1871  0.1989 -0.1810
 2277TIP3    H128322   1.154   0.998   6.113 -0.0730 -1.5547 -0.7667
 2277TIP3    H228323   1.027   1.081   6.119  1.1328  0.2647  0.6408
 2278TIP3   OH228324   0.945   1.233  14.241 -0.3552 -0.4681  0.1034
 2278TIP3    H128325   0.914   1.223  14.151 -0.1481  0.8223 -0.1247
 2278TIP3    H228326   1.005   1.159  14.253 -2.1252 -1.9821 -0.0194
 2279TIP3   OH228327   2.553   1.750  15.577  0.1927 -0.8686  0.1405
 2279TIP3    H128328   2.522   1.776  15.663  1.0098 -1.1167  0.5125
 2279TIP3    H228329   2.633   1.700  15.593 -0.2876 -1.9658 -0.6719
 2280TIP3   OH228330   2.678   0.378  21.792  0.0582  0.5324 -0.1598
 2280TIP3    H128331   2.595   0.335  21.769  0.7701 -1.1085  0.1859
 2280TIP3    H228332   2.698   0.345  21.880  0.8628  1.2593 -0.0626
 2281TIP3   OH228333   1.095   3.102  33.545 -0.6248 -0.1089  0.3897
 2281TIP3    H128334   1.065   3.054  33.468 -0.4889 -0.9329  0.8504
 2281TIP3    H228335   1.140   3.179  33.508 -0.5790 -0.4807 -0.3495
 2282TIP3   OH228336   3.332   1.502  66.048 -0.6557 -0.4621 -0.1532
 2282TIP3    H128337   3.364   1.567  66.110 -0.1837 -0.2660 -0.6014
 2282TIP3    H228338   3.408   1.479  65.995 -1.5102  0.9854 -2.1158
 2283TIP3   OH228339   0.065   2.430  27.745 -0.4038 -0.1486 -0.0784
 2283TIP3    H128340   0.064   2.404  27.837 -2.0865 -0.5700 -0.1946
 2283TIP3    H228341  -0.026   2.451  27.725 -0.0630 -0.0905 -1.6525
 2284TIP3   OH228342   2.078   0.133   0.847 -0.1968  0.1165  0.0120
 2284TIP3    H128343   2.087   0.082   0.928  0.5971 -0.4444 -0.4242
 2284TIP3    H228344   2.123   0.081   0.780 -0.8803  0.5499 -0.8106
 2285TIP3   OH228345   1.970   2.748  50.088  0.3341  0.1924 -0.2787
 2285TIP3    H128346   1.952   2.656  50.105  1.5027  0.0933  0.5139
 2285TIP3    H228347   1.959   2.791  50.173  2.9966  0.2223  0.1348
 2286TIP3   OH228348   1.244   0.878   7.663 -0.4432 -0.0879  0.1772
 2286TIP3    H128349   1.189   0.953   7.688  0.5077  0.7650 -0.1986
 2286TIP3    H228350   1.311   0.873   7.732 -0.1004 -0.1584 -0.1578
 2287TIP3   OH228351   1.827   2.436  11.254 -0.3803  0.8400 -0.3807
 2287TIP3    H128352   1.765   2.508  11.240 -2.5060 -1.0026 -0.9919
 2287TIP3    H228353   1.865   2.453  11.340 -3.4548  0.9061  1.0906
 2288TIP3   OH228354   2.945   2.009  43.808  0.0279  0.2804  0.2907
 2288TIP3    H128355   2.910   1.926  43.777 -0.3996  0.6838 -0.3243
 2288TIP3    H228356   2.939   2.003  43.904 -1.9234  0.4061  0.2121
 2289TIP3   OH228357   3.130   2.871  64.899 -0.1904 -0.3970  0.0519
 2289TIP3    H128358   3.061   2.863  64.964 -0.3794 -1.7797 -0.2953
 2289TIP3    H228359   3.085   2.901  64.820 -0.2425 -0.3854  0.0871
 2290TIP3   OH228360   2.732   2.352   8.551 -0.1712 -0.1988 -0.5535
 2290TIP3    H128361   2.772   2.275   8.511 -0.8365 -0.3659 -0.9150
 2290TIP3    H228362   2.653   2.367   8.500 -0.1004  0.6689 -0.4208
 2291TIP3   OH228363   0.467   3.109  11.226 -0.0073  0.2491  0.4765
 2291TIP3    H128364   0.532   3.058  11.177 -1.4424  0.7638 -2.1015
 2291TIP3    H228365   0.497   3.104  11.317  3.1578 -0.2351 -0.4764
 2292TIP3   OH228366   3.068   3.149  55.122 -0.4511 -0.7448 -0.1094
 2292TIP3    H128367   3.037   3.129  55.211  2.8438 -0.1271  1.3336
 2292TIP3    H228368   3.079   3.063  55.080  1.0278 -1.3173  1.3175
 2293TIP3   OH228369   0.616   1.057  42.235 -0.1233  0.2546  0.8599
 2293TIP3    H128370   0.606   1.138  42.283 -0.1947 -0.5787  2.3078
 2293TIP3    H228371   0.711   1.041  42.234 -0.1845 -0.2796  1.7424
 2294TIP3   OH228372   2.443   1.882  50.916 -0.3676 -0.4233 -0.1227
 2294TIP3    H128373   2.380   1.952  50.929  0.3448  0.5012 -1.3907
 2294TIP3    H228374   2.518   1.924  50.873  1.0929 -1.4908  1.2220
 2295TIP3   OH228375   0.532   1.182  43.692  0.2155 -0.6829 -0.3066
 2295TIP3    H128376   0.517   1.169  43.785  2.7829 -1.0395  0.1297
 2295TIP3    H228377   0.627   1.175  43.681 -0.1238 -3.3407 -3.3249
 2296TIP3   OH228378   0.067   2.359   1.609  0.4571  0.7034  0.4754
 2296TIP3    H128379   0.137   2.294   1.610 -1.4942 -1.5525  0.4721
 2296TIP3    H228380   0.038   2.361   1.518 -1.2662 -0.5737  0.9267
 2297TIP3   OH228381   2.977   0.405  64.543  0.3440  0.4023 -0.0686
 2297TIP3    H128382   3.066   0.438  64.551  1.1715 -1.5198 -0.7469
 2297TIP3    H228383   2.922   0.483  64.551  2.0096  1.5262  1.2831
 2298TIP3   OH228384   3.077   3.277  17.767  0.0659 -0.2151  0.4714
 2298TIP3    H128385   3.152   3.271  17.827  0.1340 -0.3135  0.3786
 2298TIP3    H228386   3.053   3.186  17.750  0.1391 -0.1913  0.2364
 2299TIP3   OH228387   0.637   2.173   1.355 -0.2667  0.3308 -0.3446
 2299TIP3    H128388   0.565   2.227   1.322  1.0530  1.6945 -1.0994
 2299TIP3    H228389   0.658   2.211   1.440 -0.8122 -0.4571  0.1590
 2300TIP3   OH228390   3.419   3.039  18.830  0.3295  0.8115 -0.4764
 2300TIP3    H128391   3.372   3.008  18.752  1.1147  1.1543 -1.0972
 2300TIP3    H228392   3.354   3.091  18.877  0.2488  1.8497 -1.6773
 2301TIP3   OH228393   1.326   0.462  62.681 -0.0299  0.4998  0.1310
 2301TIP3    H128394   1.371   0.449  62.765  2.6180  0.9217 -1.1320
 2301TIP3    H228395   1.279   0.379  62.666 -0.0467  0.1902  1.7127
 2302TIP3   OH228396   0.262   0.829  42.374  0.6323 -0.4176 -0.0405
 2302TIP3    H128397   0.223   0.911  42.344  1.4753  0.5512  1.3776
 2302TIP3    H228398   0.220   0.762  42.321  1.5100  1.0793 -2.8197
 2303TIP3   OH228399   1.038   1.222  47.839  0.3094  0.1017 -0.0231
 2303TIP3    H128400   1.043   1.312  47.807 -0.2220 -0.2584 -1.1814
 2303TIP3    H228401   1.064   1.228  47.931  0.5692  1.3856 -0.1593
 2304TIP3   OH228402   3.148   1.123  45.390  0.0398  0.2929  0.4703
 2304TIP3    H128403   3.151   1.139  45.296  0.5194 -0.6819  0.3065
 2304TIP3    H228404   3.056   1.136  45.414 -0.8573 -2.7949 -0.7998
 2305TIP3   OH228405   1.649   0.592  18.146 -0.0405  0.0041 -0.3823
 2305TIP3    H128406   1.644   0.536  18.068 -1.1315  1.1030 -1.1341
 2305TIP3    H228407   1.742   0.588  18.171  0.3725 -0.2617 -1.8298
 2306TIP3   OH228408   2.879   0.191  54.663 -0.2700  0.3201  0.5867
 2306TIP3    H128409   2.827   0.130  54.716  0.2555  0.4174  1.2176
 2306TIP3    H228410   2.926   0.244  54.726 -0.7113  1.3916  0.0336
 2307TIP3   OH228411   0.131   3.117  13.703  0.3279  0.2732  0.3828
 2307TIP3    H128412   0.036   3.102  13.706  0.3907 -0.5034 -0.9386
 2307TIP3    H228413   0.146   3.158  13.618  1.0131  1.8019  1.2076
 2308TIP3   OH228414   2.704   1.649   2.470 -0.0374  0.0715 -0.2403
 2308TIP3    H128415   2.694   1.687   2.383 -1.8512  2.3676  0.8463
 2308TIP3    H228416   2.746   1.564   2.455 -0.2714  0.3896 -3.3055
 2309TIP3   OH228417   2.895   1.553  52.047 -0.1783 -0.1450  0.1115
 2309TIP3    H128418   2.829   1.508  51.996  0.8467  0.2605 -1.6461
 2309TIP3    H228419   2.963   1.487  52.062  0.0383  0.0428 -0.0347
 2310TIP3   OH228420   0.816   3.295  10.581  0.5276 -0.2566 -0.1424
 2310TIP3    H128421   0.758   3.219  10.572 -0.1940  0.3828 -0.9774
 2310TIP3    H228422   0.839   3.319  10.492  1.2725  0.1286  0.1410
 2311TIP3   OH228423   1.681   2.290  65.392  0.4543  0.3072 -0.1207
 2311TIP3    H128424   1.634   2.265  65.313 -2.6776  1.8386  1.0702
 2311TIP3    H228425   1.707   2.381  65.376 -0.8574  0.8805  0.7829
 2312TIP3   OH228426   1.380   1.262   9.376 -0.1422 -0.2070 -0.0747
 2312TIP3    H128427   1.365   1.198   9.446 -0.1308  0.8195  0.8835
 2312TIP3    H228428   1.462   1.235   9.336  1.1631  0.6067  1.9362
 2313TIP3   OH228429   1.345   2.567  35.893 -0.1006  0.3944  0.2253
 2313TIP3    H128430   1.364   2.659  35.876  1.6007 -0.3440 -2.6408
 2313TIP3    H228431   1.404   2.543  35.965  0.5262  1.2218  0.0011
 2314TIP3   OH228432   3.221   0.824  55.992 -0.0036  0.3311 -0.6684
 2314TIP3    H128433   3.181   0.848  55.908 -1.9805  2.3658  0.7511
 2314TIP3    H228434   3.311   0.800  55.969 -0.9019 -0.8115 -3.5420
 2315TIP3   OH228435   1.459   0.431  58.886  0.1716 -0.6580 -0.2824
 2315TIP3    H128436   1.420   0.378  58.956 -1.3297  1.5351  0.6291
 2315TIP3    H228437   1.390   0.439  58.820  0.3042  0.3680 -0.3004
 2316TIP3   OH228438   2.497   0.834   2.530  0.2587 -0.1465 -0.0309
 2316TIP3    H128439   2.496   0.883   2.447 -1.8678  1.1309  0.6601
 2316TIP3    H228440   2.585   0.847   2.564  0.2156  2.0796 -0.5809
 2317TIP3   OH228441   2.448   2.639   5.840 -0.1679 -0.1488  0.4191
 2317TIP3    H128442   2.449   2.658   5.746  0.3989  0.4431  0.5314
 2317TIP3    H228443   2.374   2.689   5.874 -0.4175 -0.4208  0.2781
 2318TIP3   OH228444   3.436   2.925  20.204 -0.4933  0.0720  0.7281
 2318TIP3    H128445   3.481   2.910  20.287 -1.5623 -0.5137  1.2211
 2318TIP3    H228446   3.496   2.981  20.154  0.5259 -0.2467  1.5622
 2319TIP3   OH228447   1.685   2.360  60.533  0.1542 -0.0936 -0.7667
 2319TIP3    H128448   1.750   2.343  60.601 -1.3772 -1.1796  0.5032
 2319TIP3    H228449   1.729   2.340  60.451  2.2627  1.8386 -0.2091
 2320TIP3   OH228450   2.757   1.713  58.097 -0.4116 -0.0673  0.1238
 2320TIP3    H128451   2.827   1.767  58.133  1.8228 -1.8768 -1.1339
 2320TIP3    H228452   2.788   1.691  58.009 -1.3607 -2.9602  0.4034
 2321TIP3   OH228453   2.214   1.291  19.151  0.2499  0.1478  0.1603
 2321TIP3    H128454   2.203   1.339  19.069  1.6490  1.0222  0.4438
 2321TIP3    H228455   2.141   1.319  19.206 -1.6080 -1.5978 -1.2503
 2322TIP3   OH228456   2.874   2.459  10.484  0.8694  0.0265  0.0662
 2322TIP3    H128457   2.860   2.538  10.431 -0.5816  0.6294  1.2684
 2322TIP3    H228458   2.842   2.388  10.429 -4.2703  0.9991  1.3025
 2323TIP3   OH228459   0.593   1.723  66.642 -0.0176 -0.1583  0.1813
 2323TIP3    H128460   0.618   1.814  66.630 -1.4477  0.2938  0.4404
 2323TIP3    H228461   0.525   1.708  66.576 -0.1775 -0.8719  0.4985
 2324TIP3   OH228462   2.246   1.431   3.205 -0.8619 -0.2353  0.4270
 2324TIP3    H128463   2.190   1.484   3.261 -0.1543 -0.3559  1.2626
 2324TIP3    H228464   2.328   1.423   3.253 -1.1829 -2.7052  0.6572
 2325TIP3   OH228465   0.513   3.349  46.297  0.3916  0.0969  0.3296
 2325TIP3    H128466   0.594   3.372  46.252  0.0277 -0.1300 -0.4607
 2325TIP3    H228467   0.538   3.341  46.389  1.0613  0.9935  0.2355
 2326TIP3   OH228468   1.423   1.336  10.450  0.6728  0.2169  0.4736
 2326TIP3    H128469   1.418   1.420  10.404  1.8793  0.4246  0.6794
 2326TIP3    H228470   1.496   1.290  10.408  0.6826 -0.3001  1.0395
 2327TIP3   OH228471   0.094   0.643  20.685  0.3778  0.4982  0.1169
 2327TIP3    H128472   0.079   0.623  20.593  0.5499 -2.1280  0.5681
 2327TIP3    H228473   0.167   0.705  20.685  1.9976 -1.3002 -1.4735
 2328TIP3   OH228474   3.016   2.081  48.795  0.3001 -0.1426  0.2234
 2328TIP3    H128475   3.079   2.125  48.738  0.3385 -0.4444  0.0323
 2328TIP3    H228476   2.970   2.152  48.839 -0.1773  0.1189 -0.6616
 2329TIP3   OH228477   1.946   1.519   0.074  0.0382  0.6894 -0.4455
 2329TIP3    H128478   1.856   1.488   0.085  0.1499  0.4706 -0.1562
 2329TIP3    H228479   1.996   1.474   0.142  0.0819  1.9936  0.4156
 2330TIP3   OH228480   0.698   0.957  16.193 -0.1796  0.7964 -0.0675
 2330TIP3    H128481   0.615   0.924  16.228  0.8925 -0.1882  1.7492
 2330TIP3    H228482   0.682   1.049  16.174 -1.4873  0.8008  0.9478
 2331TIP3   OH228483   2.517   0.693  22.461 -0.0749  0.0787  0.1821
 2331TIP3    H128484   2.599   0.679  22.509 -0.6073  0.5349  1.2572
 2331TIP3    H228485   2.462   0.619  22.486 -0.2806  0.2035  0.0956
 2332TIP3   OH228486   3.033   0.996  56.609 -0.1794 -0.7123  0.4785
 2332TIP3    H128487   2.945   0.961  56.621 -0.9266  0.5014 -0.9955
 2332TIP3    H228488   3.060   0.964  56.522  0.0213  0.4872  0.0766
 2333TIP3   OH228489   2.949   2.590   4.662  0.3406 -0.0341  0.0632
 2333TIP3    H128490   2.919   2.503   4.638 -0.4716 -0.1796  1.4495
 2333TIP3    H228491   2.978   2.581   4.753 -0.8842  1.3521  0.6479
 2334TIP3   OH228492   3.443   3.441  47.570  0.1492 -0.5227 -0.1317
 2334TIP3    H128493   3.388   3.418  47.495  0.7553 -1.8538 -0.2075
 2334TIP3    H228494   3.399   3.515  47.611 -1.0239 -0.7646 -0.9087
 2335TIP3   OH228495   2.417   0.589  16.941 -0.2873 -0.0309 -0.0897
 2335TIP3    H128496   2.409   0.501  16.978  0.3458  0.4282  1.1977
 2335TIP3    H228497   2.449   0.575  16.851  1.0657 -1.0807  0.5249
 2336TIP3   OH228498   2.409   0.309  45.874 -0.1415 -0.4812  0.5074
 2336TIP3    H128499   2.368   0.237  45.922  0.0118 -0.3039  0.9041
 2336TIP3    H228500   2.467   0.351  45.937 -2.0317  1.5119  1.0282
 2337TIP3   OH228501   3.234   0.453  64.887 -0.1665  0.0102  0.3297
 2337TIP3    H128502   3.191   0.379  64.929 -0.2870  0.2388  0.6173
 2337TIP3    H228503   3.322   0.454  64.924 -0.7061  1.0669  1.6888
 2338TIP3   OH228504   0.010   1.801  47.541 -0.3130  0.1147  0.2859
 2338TIP3    H128505   0.034   1.875  47.596 -3.2638  0.1731  1.6836
 2338TIP3    H228506   0.093   1.768  47.508  1.3820  1.8395  2.4980
 2339TIP3   OH228507   1.269   0.462  47.462  0.2738 -0.4428  0.0632
 2339TIP3    H128508   1.345   0.429  47.511  0.5287 -0.8933 -0.6106
 2339TIP3    H228509   1.285   0.432  47.372  0.3831  1.3181 -0.5349
 2340TIP3   OH228510   1.316   1.077  62.047  0.4433 -0.4845  0.3648
 2340TIP3    H128511   1.246   1.059  62.110 -0.8757  0.9990 -0.6108
 2340TIP3    H228512   1.308   1.007  61.982  0.1037 -0.5372  0.4633
 2341TIP3   OH228513   2.776   3.167  13.155 -0.7499 -0.0587 -0.4944
 2341TIP3    H128514   2.705   3.198  13.098  0.1968 -0.4660 -1.9498
 2341TIP3    H228515   2.753   3.076  13.175 -0.4115 -0.3390 -1.3567
 2342TIP3   OH228516   1.799   2.835  10.663  0.2146 -0.1241  0.1641
 2342TIP3    H128517   1.862   2.888  10.613  0.5244 -1.3393 -0.7729
 2342TIP3    H228518   1.854   2.775  10.715 -0.1420  0.1969  0.9342
 2343TIP3   OH228519   2.227   1.033  59.174 -0.7027 -0.2354 -0.5197
 2343TIP3    H128520   2.206   1.127  59.178  0.4504 -0.0091  1.7624
 2343TIP3    H228521   2.141   0.990  59.175 -1.3615  0.7849  2.9423
 2344TIP3   OH228522   1.975   2.566  62.149  0.0988  0.4637  0.3465
 2344TIP3    H128523   2.014   2.538  62.067 -1.2881 -0.2832 -0.0984
 2344TIP3    H228524   1.909   2.631  62.123  1.6616  2.4829  1.1648
 2345TIP3   OH228525   1.837   3.246  50.083 -0.8106  0.1406  0.1467
 2345TIP3    H128526   1.817   3.201  50.165  0.2056  0.0107  0.3453
 2345TIP3    H228527   1.852   3.337  50.109  2.5947 -0.4399  0.6678
 2346TIP3   OH228528   3.011   0.591  50.935  0.3652  0.3113 -0.1286
 2346TIP3    H128529   2.991   0.521  50.872 -0.0134 -0.2854  0.6304
 2346TIP3    H228530   2.969   0.669  50.898  0.6072  0.0942 -0.8809
 2347TIP3   OH228531   3.404   3.025   8.665 -0.2534 -0.0229 -0.0756
 2347TIP3    H128532   3.325   2.973   8.676 -1.1302  1.6192  2.3954
 2347TIP3    H228533   3.373   3.111   8.637  0.6750  0.4896  0.4164
 2348TIP3   OH228534   0.817   1.395  49.380 -0.4548  0.5659  0.4972
 2348TIP3    H128535   0.749   1.462  49.380  0.4959  1.5580  1.2696
 2348TIP3    H228536   0.880   1.426  49.315  0.0563  0.4781  0.9557
 2349TIP3   OH228537   2.397   2.012  63.782 -0.2075 -0.2120 -0.2585
 2349TIP3    H128538   2.400   2.071  63.706 -1.6885  1.3958  0.8697
 2349TIP3    H228539   2.449   2.056  63.849 -1.8570  0.1992  0.8082
 2350TIP3   OH228540   1.335   0.720  17.812 -0.2763  0.2447 -0.1253
 2350TIP3    H128541   1.339   0.659  17.739 -2.2375 -1.2292  0.9127
 2350TIP3    H228542   1.259   0.692  17.863  1.0056  1.2185  2.5021
 2351TIP3   OH228543   0.032   1.632  20.895 -0.3874  0.1808 -0.2111
 2351TIP3    H128544   0.054   1.572  20.966  1.5792 -0.7897 -1.5454
 2351TIP3    H228545   0.067   1.716  20.923  0.2038 -0.1509  0.0579
 2352TIP3   OH228546   2.800   0.549  67.241  0.1566 -0.0878  0.4202
 2352TIP3    H128547   2.835   0.476  67.293 -0.4001  0.6447  1.8926
 2352TIP3    H228548   2.745   0.508  67.174  0.2517 -1.0366  0.9071
 2353TIP3   OH228549   2.594   2.500  10.601 -0.2689 -0.6376 -0.6703
 2353TIP3    H128550   2.580   2.561  10.529  0.0154  0.1805 -0.0577
 2353TIP3    H228551   2.689   2.483  10.599  0.0149  0.6309  0.4467
 2354TIP3   OH228552   1.087   0.552  44.645 -0.1597  0.1452  0.0654
 2354TIP3    H128553   1.017   0.616  44.631 -0.1607 -0.0530 -0.9159
 2354TIP3    H228554   1.104   0.555  44.739 -1.5334  0.1493  0.3294
 2355TIP3   OH228555   2.332   0.722  42.076 -0.0208  0.4552  0.0410
 2355TIP3    H128556   2.424   0.711  42.098  0.3237  0.3486 -1.3613
 2355TIP3    H228557   2.301   0.792  42.134  0.8878  0.3883  0.6200
 2356TIP3   OH228558   3.009   2.964  62.454  0.3807  0.5314 -0.3205
 2356TIP3    H128559   2.981   3.042  62.406 -0.8297  0.6473  0.5243
 2356TIP3    H228560   2.937   2.902  62.441  2.1967 -1.2884 -2.7379
 2357TIP3   OH228561   3.092   1.764  47.887 -0.4169  0.2529 -0.1001
 2357TIP3    H128562   3.050   1.683  47.912 -1.3308  0.8965  0.4964
 2357TIP3    H228563   3.138   1.743  47.805 -1.5204 -0.5799 -0.5284
 2358TIP3   OH228564   2.044   0.258  63.451 -0.1390  0.7258 -0.0797
 2358TIP3    H128565   2.028   0.178  63.502  0.7120  0.6513  0.0787
 2358TIP3    H228566   2.101   0.231  63.380  0.0140  1.1560 -0.1258
 2359TIP3   OH228567   1.981   3.145   8.747  0.0132  0.4292  0.6414
 2359TIP3    H128568   1.942   3.083   8.807 -2.2403  1.7049  0.5955
 2359TIP3    H228569   1.949   3.230   8.776  0.9416  1.3257 -0.8300
 2360TIP3   OH228570   3.173   0.549   7.190 -0.1826  0.7789 -0.0385
 2360TIP3    H128571   3.206   0.527   7.103  0.8073 -0.5702  0.6269
 2360TIP3    H228572   3.080   0.530   7.186  0.3041 -2.0659 -0.0577
 2361TIP3   OH228573   1.765   2.149  10.737 -0.1336  0.2501  0.0652
 2361TIP3    H128574   1.859   2.139  10.753  0.0019 -0.8881 -1.2714
 2361TIP3    H228575   1.747   2.093  10.662 -2.1424 -0.6116  1.1116
 2362TIP3   OH228576   3.263   2.756   0.106 -0.7410  0.0821  0.0012
 2362TIP3    H128577   3.222   2.797   0.030 -0.6715  1.0655  0.4813
 2362TIP3    H228578   3.223   2.669   0.111  1.6307 -1.4054 -3.1637
 2363TIP3   OH228579   2.965   1.255  52.272  0.4382  0.4091 -0.1475
 2363TIP3    H128580   3.027   1.254  52.199  0.5434 -1.0155 -0.0669
 2363TIP3    H228581   2.982   1.173  52.319 -1.9248 -0.3217 -0.4777
 2364TIP3   OH228582   0.436   0.751  47.541 -0.0090  0.1368 -0.2639
 2364TIP3    H128583   0.509   0.701  47.579 -0.1304  0.3581  0.2800
 2364TIP3    H228584   0.458   0.758  47.448  1.3604  1.3517  0.1106
 2365TIP3   OH228585   2.043   1.203  44.823 -0.6862 -0.2038 -0.0493
 2365TIP3    H128586   1.952   1.208  44.795 -0.6469 -1.2502 -0.3948
 2365TIP3    H228587   2.038   1.196  44.918 -0.8447  2.5334  0.2320
 2366TIP3   OH228588   1.075   1.032  49.909 -0.2519  0.0291  0.2547
 2366TIP3    H128589   1.082   1.125  49.933  0.9420 -0.1484  0.6818
 2366TIP3    H228590   1.072   1.031  49.814 -0.3356  0.5094  0.2518
 2367TIP3   OH228591   3.250   1.009  21.171 -0.4294 -0.1947  0.2233
 2367TIP3    H128592   3.168   1.044  21.206 -0.4191 -0.2540  0.3048
 2367TIP3    H228593   3.227   0.924  21.134  0.5638 -3.0341  5.2251
 2368TIP3   OH228594   2.279   2.517  56.931  0.3479 -0.0089 -0.2287
 2368TIP3    H128595   2.285   2.497  57.024  1.7355  0.3327 -0.2203
 2368TIP3    H228596   2.251   2.435  56.890 -1.1337  0.0777  0.5677
 2369TIP3   OH228597   1.049   1.676   8.043  0.1712  0.3014  0.6072
 2369TIP3    H128598   0.962   1.677   8.083  0.5295  1.5977  1.4215
 2369TIP3    H228599   1.063   1.766   8.014  0.4117 -0.3623 -1.4339
 2370TIP3   OH228600   1.946   2.642   2.959 -0.5398  0.0656  0.5709
 2370TIP3    H128601   1.945   2.577   2.888  0.7046  0.0509  0.5540
 2370TIP3    H228602   1.863   2.627   3.005 -0.8593 -0.6743 -0.2014
 2371TIP3   OH228603   2.814   0.031  10.859  0.1394 -0.2654 -0.4693
 2371TIP3    H128604   2.900   0.021  10.819  1.6964  1.4331  2.1788
 2371TIP3    H228605   2.806   0.125  10.876 -1.0994 -0.6814  1.6346
 2372TIP3   OH228606   1.079   2.711  50.074 -0.1139  0.6542 -0.1592
 2372TIP3    H128607   1.135   2.634  50.065  0.3957  1.2394 -2.8033
 2372TIP3    H228608   1.128   2.782  50.034 -0.6645  2.3788  2.0324
 2373TIP3   OH228609   2.235   0.594  47.186 -0.4578  0.7576  0.4187
 2373TIP3    H128610   2.210   0.687  47.188  0.9356  1.2751 -1.9601
 2373TIP3    H228611   2.326   0.595  47.154 -1.4695 -1.5351 -3.0813
 2374TIP3   OH228612   2.480   3.415  13.657  0.0078  0.0914  0.4702
 2374TIP3    H128613   2.501   3.369  13.738  1.4460 -0.7068 -0.3197
 2374TIP3    H228614   2.564   3.428  13.613 -0.9243 -2.0292 -2.2358
 2375TIP3   OH228615   2.036   3.066  58.348 -0.4818  0.0642 -0.2697
 2375TIP3    H128616   1.990   3.150  58.339 -0.1495  0.1077 -1.6621
 2375TIP3    H228617   2.117   3.089  58.394 -0.9454  0.2955  0.4553
 2376TIP3   OH228618   2.465   2.162  54.865  0.3726 -0.0457  0.2330
 2376TIP3    H128619   2.398   2.217  54.906 -0.0545 -0.9200  0.7490
 2376TIP3    H228620   2.445   2.166  54.771 -1.3520 -1.4250  0.4723
 2377TIP3   OH228621   0.199   1.133  65.791 -0.3557 -0.0732 -0.8442
 2377TIP3    H128622   0.207   1.082  65.711 -0.3215  0.3661 -1.1271
 2377TIP3    H228623   0.290   1.152  65.817 -0.3722  0.9930 -1.4947
 2378TIP3   OH228624   1.568   1.078  18.718 -0.3713  0.4121  0.2166
 2378TIP3    H128625   1.495   1.033  18.676 -1.1375  0.4419  1.4718
 2378TIP3    H228626   1.535   1.167  18.733  0.3934  0.8082 -0.3602
 2379TIP3   OH228627   0.968   1.837  52.621  0.5018 -0.1552  0.5358
 2379TIP3    H128628   0.962   1.853  52.715 -0.0351  1.5489  0.2453
 2379TIP3    H228629   1.060   1.854  52.600  0.5380 -0.1566  0.6903
 2380TIP3   OH228630   0.161   1.007  61.782  0.3449  0.1222  0.0459
 2380TIP3    H128631   0.088   0.974  61.730 -1.6491  3.2302  0.6442
 2380TIP3    H228632   0.218   1.050  61.718  0.4890 -0.3529 -0.1484
 2381TIP3   OH228633   3.010   1.028  59.343 -0.3602  0.6385  0.1010
 2381TIP3    H128634   2.933   0.974  59.323  0.5749 -0.5098 -0.5091
 2381TIP3    H228635   3.041   0.994  59.427  0.3617  0.0611 -0.3921
 2382TIP3   OH228636   2.996   2.131  62.434  0.1601 -0.6061 -0.4208
 2382TIP3    H128637   2.962   2.164  62.351 -0.2840 -0.2607 -0.1041
 2382TIP3    H228638   3.055   2.200  62.464  0.5509 -0.8633 -0.5932
 2383TIP3   OH228639   2.931   2.712  64.163 -0.0693  0.7001  0.0955
 2383TIP3    H128640   2.908   2.762  64.241 -2.8689 -0.2895  0.0173
 2383TIP3    H228641   2.879   2.753  64.093  0.5664  0.0760 -0.7620
 2384TIP3   OH228642   0.666   2.785   2.133  0.1818  0.1122 -0.0171
 2384TIP3    H128643   0.674   2.728   2.209  0.1210  0.8498  0.5493
 2384TIP3    H228644   0.749   2.833   2.130  0.4084 -0.3004 -0.7447
 2385TIP3   OH228645   0.954   1.988  17.660  0.6353 -0.3258  0.2205
 2385TIP3    H128646   0.885   2.039  17.702  0.9547 -1.2312  1.9558
 2385TIP3    H228647   0.910   1.941  17.589 -0.5032 -0.7097  1.1480
 2386TIP3   OH228648   0.134   2.742  14.629  0.2760  0.7064 -0.1715
 2386TIP3    H128649   0.060   2.792  14.594  0.3718  0.5067 -0.6736
 2386TIP3    H228650   0.143   2.668  14.570 -2.5594 -2.3902  2.8891
 2387TIP3   OH228651   2.513   0.860  20.200  0.4661 -0.5182  0.5020
 2387TIP3    H128652   2.501   0.791  20.135  1.7197 -1.1708  0.9371
 2387TIP3    H228653   2.433   0.913  20.194  0.6428 -0.4293 -1.6931
 2388TIP3   OH228654   1.371   0.058  44.733 -0.3244  0.1369  0.3034
 2388TIP3    H128655   1.396   0.143  44.695  1.8009 -2.0065 -3.7528
 2388TIP3    H228656   1.293   0.032  44.684 -0.7914 -0.4383  1.3189
 2389TIP3   OH228657   1.739   0.992  36.085 -0.5152  0.0131 -0.4692
 2389TIP3    H128658   1.680   0.926  36.049  0.6148 -0.4031 -1.6264
 2389TIP3    H228659   1.722   1.070  36.032  0.7133 -0.4266 -1.5878
 2390TIP3   OH228660   0.922   1.833   9.224 -0.6154 -0.0955  0.7886
 2390TIP3    H128661   0.934   1.846   9.130 -0.6876 -0.9695  0.6502
 2390TIP3    H228662   0.977   1.757   9.245 -0.6518  0.0494  1.4409
 2391TIP3   OH228663   1.172   1.342   6.852 -0.7302 -0.2954  0.3266
 2391TIP3    H128664   1.149   1.421   6.803 -0.9575 -0.9697 -0.6799
 2391TIP3    H228665   1.098   1.283   6.837 -0.1622 -1.0194  0.3406
 2392TIP3   OH228666   1.279   3.067  62.857 -0.6417  0.1062  0.2733
 2392TIP3    H128667   1.341   3.048  62.786 -0.7316  0.7185  0.0224
 2392TIP3    H228668   1.262   2.982  62.897  0.2942 -0.0911  0.2884
 2393TIP3   OH228669   0.319   0.074  14.723  0.0975  0.5736 -0.0291
 2393TIP3    H128670   0.282  -0.012  14.742  0.7643  0.4546  0.8392
 2393TIP3    H228671   0.288   0.130  14.795  0.2891  0.8633 -0.1701
 2394TIP3   OH228672   3.261   0.708   0.651 -0.2229 -0.0047  0.2567
 2394TIP3    H128673   3.348   0.701   0.691 -0.1316 -2.4933 -0.2114
 2394TIP3    H228674   3.277   0.724   0.559 -0.2993  0.6409  0.3531
 2395TIP3   OH228675   2.673   3.381  53.547  1.0062 -0.3490 -0.4521
 2395TIP3    H128676   2.681   3.440  53.472  3.7438 -1.1303 -0.8832
 2395TIP3    H228677   2.588   3.338  53.534  0.3496  1.2139 -1.7855
 2396TIP3   OH228678   2.145   2.632  19.898  0.0931  0.0776 -0.3443
 2396TIP3    H128679   2.123   2.602  19.986 -0.3439  0.9621 -0.1407
 2396TIP3    H228680   2.126   2.726  19.899  1.1080  0.3085 -1.0591
 2397TIP3   OH228681   3.007   0.669  52.390  0.0031  0.8380 -0.1172
 2397TIP3    H128682   3.005   0.763  52.372 -1.9169  0.6444 -1.1902
 2397TIP3    H228683   2.919   0.639  52.369  0.4671 -1.1517  0.5891
 2398TIP3   OH228684   3.072   3.011  51.750  0.3874 -0.5279 -0.4723
 2398TIP3    H128685   3.061   3.008  51.655 -0.6915 -2.8593 -0.3543
 2398TIP3    H228686   3.164   2.988  51.764  0.0626 -2.2346 -0.9355
 2399TIP3   OH228687   1.782   1.087  18.569 -0.3674 -0.1067  0.1183
 2399TIP3    H128688   1.742   1.070  18.484  0.2260 -1.2851  0.0420
 2399TIP3    H228689   1.710   1.080  18.631 -0.8167  0.8310 -0.2874
 2400TIP3   OH228690   1.549   1.366  16.683  0.8447 -0.3958 -0.6503
 2400TIP3    H128691   1.496   1.288  16.699  1.3234 -0.5490  0.2592
 2400TIP3    H228692   1.486   1.439  16.684  0.8841 -0.1616  3.6382
 2401TIP3   OH228693   2.728   1.185  19.098  0.5936  0.2328  0.1013
 2401TIP3    H128694   2.656   1.144  19.145  1.9634 -1.4293  0.8999
 2401TIP3    H228695   2.767   1.245  19.162 -0.8705  2.1772 -0.7779
 2402TIP3   OH228696   0.065   0.137  60.649  0.2089 -0.0536  0.5145
 2402TIP3    H128697   0.097   0.205  60.708 -1.5948  0.2234  1.2372
 2402TIP3    H228698   0.120   0.061  60.668  0.8492  0.5689  1.2262
 2403TIP3   OH228699   2.727   2.135  19.486  0.3430  0.2250 -0.3176
 2403TIP3    H128700   2.653   2.149  19.427 -0.3841  2.2009  0.9326
 2403TIP3    H228701   2.742   2.221  19.525  2.2791 -0.5062  0.6647
 2404TIP3   OH228702   2.708   1.516  10.689 -0.3449  0.3800 -0.7251
 2404TIP3    H128703   2.739   1.604  10.666  1.3023 -0.4705 -2.0452
 2404TIP3    H228704   2.673   1.525  10.777  1.9738  1.9122  0.1420
 2405TIP3   OH228705   0.104   2.854  47.929  0.2164  0.3704 -0.7046
 2405TIP3    H128706   0.016   2.869  47.893 -0.0194  0.2436 -0.1977
 2405TIP3    H228707   0.140   2.941  47.940 -0.2438  0.4797  0.0317
 2406TIP3   OH228708   2.948   3.260  53.561  0.4736 -0.8589 -0.3476
 2406TIP3    H128709   2.864   3.294  53.591  0.8198 -0.2136 -0.0747
 2406TIP3    H228710   2.928   3.212  53.481 -0.2676 -1.4532  0.1852
 2407TIP3   OH228711   0.184   2.249  20.842  0.0459 -0.1915 -0.8587
 2407TIP3    H128712   0.261   2.271  20.894 -1.1374  0.6037  0.6501
 2407TIP3    H228713   0.120   2.219  20.906 -1.3742  0.5141 -1.8829
 2408TIP3   OH228714   1.432   1.002  12.997  0.6734  0.1966  0.7926
 2408TIP3    H128715   1.451   1.084  12.950  0.6128  0.3474  1.0318
 2408TIP3    H228716   1.403   1.030  13.083  0.4950 -0.0740  0.8204
 2409TIP3   OH228717   1.453   0.353  22.176 -0.7721 -0.2132 -0.0972
 2409TIP3    H128718   1.447   0.441  22.212  1.0660 -0.1311  0.0816
 2409TIP3    H228719   1.498   0.302  22.243 -0.0765 -0.8158 -1.0003
 2410TIP3   OH228720   0.183   2.887  51.706  0.5001  0.2320 -0.4645
 2410TIP3    H128721   0.185   2.822  51.777  2.3598  1.4086  0.6269
 2410TIP3    H228722   0.102   2.867  51.658 -0.1091 -1.4762  1.1483
 2411TIP3   OH228723   3.252   0.803   1.112  0.2756 -0.5612 -0.0383
 2411TIP3    H128724   3.230   0.718   1.149 -0.5639 -0.1012  0.5494
 2411TIP3    H228725   3.325   0.785   1.053  1.4185 -1.3715  1.5438
 2412TIP3   OH228726   2.939   3.330  47.397  1.0124 -0.5773  0.0182
 2412TIP3    H128727   2.882   3.401  47.425  0.7150 -0.6760 -0.3144
 2412TIP3    H228728   2.959   3.281  47.477  2.1289  0.5104  0.4361
 2413TIP3   OH228729   2.810   0.938  56.965  0.0086 -0.4556 -0.4021
 2413TIP3    H128730   2.805   0.879  56.889 -0.4432 -1.5686  0.4642
 2413TIP3    H228731   2.893   0.985  56.953  0.7574 -1.8030 -0.7574
 2414TIP3   OH228732   3.028   0.507  14.016 -0.4664 -0.3786  0.2781
 2414TIP3    H128733   3.070   0.429  13.978 -1.9140 -0.9142 -0.2764
 2414TIP3    H228734   2.937   0.480  14.032 -0.9039  1.1024  0.4106
 2415TIP3   OH228735   1.094   1.958  51.486 -0.0247  0.1564  0.0887
 2415TIP3    H128736   1.118   2.000  51.403  3.0916  0.1697  0.8712
 2415TIP3    H228737   1.105   2.026  51.552  0.4312 -0.6230  0.8391
 2416TIP3   OH228738   1.006   0.763  14.951  0.2517  0.0525 -0.0254
 2416TIP3    H128739   0.926   0.765  14.898  0.0747  0.3911  0.2494
 2416TIP3    H228740   0.978   0.795  15.037  0.3025 -1.4417  0.5846
 2417TIP3   OH228741   1.793   1.505   7.395  0.7131 -0.4236  0.6503
 2417TIP3    H128742   1.836   1.569   7.338 -0.2839  0.0611  0.4185
 2417TIP3    H228743   1.771   1.433   7.336  0.9529 -0.5455  0.7103
 2418TIP3   OH228744   2.597   0.833  61.316 -0.7922  0.3219  0.4514
 2418TIP3    H128745   2.599   0.781  61.396  1.6822 -1.0131 -0.3962
 2418TIP3    H228746   2.535   0.787  61.259 -0.7430 -0.1032  0.7376
 2419TIP3   OH228747   2.369   0.132  62.392 -0.0500 -0.3472  0.4134
 2419TIP3    H128748   2.307   0.064  62.368  1.0056 -1.4483  0.7046
 2419TIP3    H228749   2.339   0.210  62.345 -1.4690 -0.9193  0.3393
 2420TIP3   OH228750   3.390   2.141  42.955 -0.4134  0.2467  0.1617
 2420TIP3    H128751   3.350   2.068  43.002 -2.1525  0.0765 -1.4841
 2420TIP3    H228752   3.340   2.218  42.982 -0.6762  0.3190 -0.4994
 2421TIP3   OH228753   1.571   1.470  66.922 -0.2503 -0.4455  0.1458
 2421TIP3    H128754   1.642   1.407  66.933 -1.2593 -1.7531 -0.6393
 2421TIP3    H228755   1.534   1.451  66.836 -1.7669 -0.0108  0.6648
 2422TIP3   OH228756   2.727   1.017  59.261 -0.5759 -0.0488 -0.0613
 2422TIP3    H128757   2.764   1.045  59.177 -0.7173 -1.5662 -0.6533
 2422TIP3    H228758   2.649   1.071  59.272 -0.5185  0.2120 -0.8549
 2423TIP3   OH228759   1.291   1.144  47.726  0.3691  0.3218 -0.1271
 2423TIP3    H128760   1.237   1.127  47.803  0.0148 -0.9711 -0.6315
 2423TIP3    H228761   1.331   1.230  47.743 -1.2513  0.9719  0.5863
 2424TIP3   OH228762   2.202   2.905  49.242  0.3475 -0.4082 -0.2421
 2424TIP3    H128763   2.201   2.931  49.150  1.4832 -1.0758 -0.4583
 2424TIP3    H228764   2.210   2.810  49.240  1.5790 -0.3396  0.5382
 2425TIP3   OH228765   2.011   0.987  10.780 -0.2538  0.3910  0.3265
 2425TIP3    H128766   1.958   1.004  10.858  0.4111  0.2304  0.8155
 2425TIP3    H228767   1.949   0.995  10.708 -0.6523  1.6754  0.7762
 2426TIP3   OH228768   1.005   2.130  60.233 -0.4941  0.2174 -0.4497
 2426TIP3    H128769   0.992   2.036  60.218  1.2228 -0.0785 -0.2282
 2426TIP3    H228770   0.924   2.170  60.202 -1.0242 -1.2834 -1.0960
 2427TIP3   OH228771   3.357   0.767  66.567  0.4375 -0.5440  0.0283
 2427TIP3    H128772   3.267   0.755  66.597  1.2660 -1.8198  2.2230
 2427TIP3    H228773   3.379   0.856  66.595  0.7127 -1.1982  2.0904
 2428TIP3   OH228774   0.840   1.038  58.694  0.5514 -0.0814 -0.3555
 2428TIP3    H128775   0.923   1.046  58.647  0.9891 -0.6851  0.2903
 2428TIP3    H228776   0.847   1.100  58.766 -0.0316  0.6892 -0.9482
 2429TIP3   OH228777   2.199   2.258  55.217 -0.1783 -0.0644  0.1393
 2429TIP3    H128778   2.126   2.196  55.212  0.9494 -1.3769 -0.5992
 2429TIP3    H228779   2.190   2.298  55.304 -1.1362 -1.0018  0.5027
 2430TIP3   OH228780   2.878   3.247  44.858  0.2964  0.0319 -0.3560
 2430TIP3    H128781   2.824   3.263  44.781 -1.6113  2.2938  1.3200
 2430TIP3    H228782   2.816   3.222  44.927  1.5878  0.6822  1.1113
 2431TIP3   OH228783   2.030   2.297  52.207  0.9045 -0.1300  0.1708
 2431TIP3    H128784   2.073   2.339  52.132  0.6762  0.6143  0.4464
 2431TIP3    H228785   1.938   2.290  52.180  0.2649  2.5043  1.3234
 2432TIP3   OH228786   2.009   0.996  51.808  0.1543 -0.6275  0.5865
 2432TIP3    H128787   2.020   0.985  51.713  1.3062  0.7051  0.5329
 2432TIP3    H228788   1.922   1.036  51.816  0.3992  0.0617 -0.0014
 2433TIP3   OH228789   1.055   2.553  16.134  0.7076  0.3253 -0.3435
 2433TIP3    H128790   0.981   2.602  16.170  0.8323  0.7938 -0.7158
 2433TIP3    H228791   1.132   2.603  16.161  1.0312 -1.0504  1.4826
 2434TIP3   OH228792   2.065   2.975   8.210  0.2364  0.1523 -0.2515
 2434TIP3    H128793   2.053   2.973   8.305 -0.6671 -0.1412 -0.3654
 2434TIP3    H228794   2.159   2.988   8.198  0.4550 -0.4715  0.6806
 2435TIP3   OH228795   0.825   1.955  53.429  0.2275 -0.1459 -0.0738
 2435TIP3    H128796   0.884   2.030  53.433  1.9401 -1.4328  0.3806
 2435TIP3    H228797   0.854   1.906  53.351 -0.5632 -0.5526 -0.1239
 2436TIP3   OH228798   1.175   1.103   2.321  0.3817  0.2619  0.1682
 2436TIP3    H128799   1.266   1.092   2.350  0.5416 -1.6904 -0.9173
 2436TIP3    H228800   1.183   1.153   2.239  0.4659  0.1993  0.1378
 2437TIP3   OH228801   1.589   2.320  10.217 -0.4225 -0.1287 -0.0732
 2437TIP3    H128802   1.600   2.225  10.230 -0.8412 -0.0539  0.8476
 2437TIP3    H228803   1.617   2.359  10.299 -0.2657  0.5565 -0.4462
 2438TIP3   OH228804   1.274   2.428  17.789  0.1049 -0.0159  0.2341
 2438TIP3    H128805   1.299   2.458  17.701  0.7175 -1.0736  0.0365
 2438TIP3    H228806   1.204   2.365  17.774 -0.1808  0.2182  0.5565
 2439TIP3   OH228807   2.388   3.266   1.270 -0.0154  0.2005  0.5251
 2439TIP3    H128808   2.332   3.341   1.292 -0.2959 -0.0310  0.6134
 2439TIP3    H228809   2.382   3.209   1.347  0.3178  0.1599  0.5207
 2440TIP3   OH228810   3.126   3.311  48.710 -0.2259  0.0820  0.1871
 2440TIP3    H128811   3.164   3.392  48.677  0.4706  0.1922  1.1940
 2440TIP3    H228812   3.196   3.273  48.764 -0.2150 -1.6222 -0.9589
 2441TIP3   OH228813   2.196   2.890  43.541 -0.1487 -0.3277  0.1500
 2441TIP3    H128814   2.158   2.960  43.487  2.1952  0.3619 -0.7238
 2441TIP3    H228815   2.129   2.873  43.608  0.3823  5.2473  2.6543
 2442TIP3   OH228816   1.575   0.161  10.502  0.4466 -0.1630 -0.0647
 2442TIP3    H128817   1.643   0.201  10.448 -0.7058 -0.0939 -1.5176
 2442TIP3    H228818   1.589   0.067  10.493  0.0052 -0.1601 -0.8407
 2443TIP3   OH228819   0.954   0.288   9.632 -0.0676  0.0303  0.4535
 2443TIP3    H128820   1.048   0.284   9.615 -0.0264  0.1179  0.6518
 2443TIP3    H228821   0.925   0.197   9.629 -0.0458  0.0369  0.0151
 2444TIP3   OH228822   2.156   1.566  17.746 -0.1623 -0.8618  0.3746
 2444TIP3    H128823   2.221   1.599  17.683 -0.7452  1.6082  0.9399
 2444TIP3    H228824   2.075   1.563  17.696 -0.4324  0.1807  0.7256
 2445TIP3   OH228825   2.048   2.712   6.964  0.1978  0.1670  0.6357
 2445TIP3    H128826   2.097   2.635   6.934  2.4542 -0.2352  4.5981
 2445TIP3    H228827   2.066   2.779   6.898  4.1724 -0.7549  0.5292
 2446TIP3   OH228828   2.693   2.152  54.070  0.5092 -0.0735 -0.5044
 2446TIP3    H128829   2.659   2.238  54.094  0.0144  0.2856 -2.3359
 2446TIP3    H228830   2.616   2.095  54.069  0.5748 -0.1580 -0.8951
 2447TIP3   OH228831   3.179   2.866  59.376  0.0549  0.0487  0.0427
 2447TIP3    H128832   3.209   2.878  59.286 -0.2889 -3.5594 -0.6743
 2447TIP3    H228833   3.259   2.853  59.426  0.1302 -0.2332 -0.1513
 2448TIP3   OH228834   2.647   1.054  65.327 -0.2598  0.4587 -0.3181
 2448TIP3    H128835   2.700   0.975  65.318  0.3689  0.7486  0.7359
 2448TIP3    H228836   2.558   1.026  65.304  0.0590 -0.4104 -0.5173
 2449TIP3   OH228837   0.983   1.892   4.232  0.1910  0.4683  0.3142
 2449TIP3    H128838   0.952   1.801   4.235  0.3923  0.4106  0.7224
 2449TIP3    H228839   0.903   1.945   4.235 -0.0969  0.3090 -2.2323
 2450TIP3   OH228840   0.405   0.547  47.714  0.1033 -0.3773 -0.6567
 2450TIP3    H128841   0.330   0.495  47.685  0.8992  0.0475 -3.9229
 2450TIP3    H228842   0.370   0.637  47.719 -0.2714 -0.5770  0.8833
 2451TIP3   OH228843   1.927   1.668  48.182  0.6282 -0.2406 -0.3728
 2451TIP3    H128844   1.921   1.756  48.146  0.4270 -0.4489 -0.8629
 2451TIP3    H228845   1.935   1.611  48.105  2.9024 -0.4948 -0.0140
 2452TIP3   OH228846   2.638   2.191  16.269 -0.1449  0.0741 -0.4551
 2452TIP3    H128847   2.710   2.135  16.240 -0.4247 -1.0068  0.8266
 2452TIP3    H228848   2.624   2.253  16.197  0.6435 -1.0604 -1.6182
 2453TIP3   OH228849   0.607   2.827  45.116  0.0557 -0.3099  0.1676
 2453TIP3    H128850   0.626   2.898  45.178  0.3334  0.6689 -1.0108
 2453TIP3    H228851   0.552   2.767  45.166 -0.1392  0.6992  1.2218
 2454TIP3   OH228852   0.454   1.206  14.540 -0.1812  0.0950  0.9830
 2454TIP3    H128853   0.512   1.177  14.469  1.3546  1.6980  1.5182
 2454TIP3    H228854   0.368   1.171  14.516  0.4339 -0.0239 -1.2844
 2455TIP3   OH228855   1.187   1.634  65.740 -1.0454  0.2652  0.5086
 2455TIP3    H128856   1.257   1.696  65.759  0.1326 -1.1938  1.1259
 2455TIP3    H228857   1.174   1.641  65.645 -0.2387  0.7687  0.4256
 2456TIP3   OH228858   3.345   1.483   2.936 -0.3894  0.0478 -0.1158
 2456TIP3    H128859   3.311   1.443   3.016 -1.9357 -1.3026 -1.3885
 2456TIP3    H228860   3.268   1.518   2.891  0.5312  1.3796 -0.7366
 2457TIP3   OH228861   1.276   2.765   8.451  0.2457 -0.1507 -0.2763
 2457TIP3    H128862   1.238   2.718   8.377  0.1251  0.0135 -0.3184
 2457TIP3    H228863   1.328   2.835   8.412 -0.7548  0.6662 -0.1916
 2458TIP3   OH228864   1.721   0.918   8.267 -0.5443  0.2788  0.0331
 2458TIP3    H128865   1.813   0.894   8.279 -1.2804 -2.0906  1.7207
 2458TIP3    H228866   1.715   0.948   8.176  1.4719 -1.7594 -0.8630
 2459TIP3   OH228867   3.195   2.186  19.659  0.2315  0.7581 -0.0909
 2459TIP3    H128868   3.259   2.167  19.590  1.2032 -0.3226  1.0615
 2459TIP3    H228869   3.138   2.253  19.621  0.7032  0.1602 -1.9464
 2460TIP3   OH228870   1.792   1.068  59.063 -0.5696  0.1653 -0.2395
 2460TIP3    H128871   1.879   1.031  59.048 -0.9817 -0.4722 -1.1860
 2460TIP3    H228872   1.748   1.004  59.119 -2.1797 -2.3451 -3.9290
 2461TIP3   OH228873   0.497   2.148  33.922 -0.5328  0.0986  0.0326
 2461TIP3    H128874   0.409   2.187  33.927  0.1882  1.6993  0.9708
 2461TIP3    H228875   0.547   2.209  33.868 -0.0429 -0.9464 -0.7198
 2462TIP3   OH228876   2.060   3.053  50.975  0.3839 -0.1292  0.1047
 2462TIP3    H128877   2.118   3.126  50.953  0.0716  0.2253  0.4428
 2462TIP3    H228878   2.094   3.019  51.057  0.0322  0.1691  0.3760
 2463TIP3   OH228879   0.299   0.930  63.029 -0.8024  0.4789 -0.0692
 2463TIP3    H128880   0.313   0.988  62.954  0.4697 -1.7876 -1.6878
 2463TIP3    H228881   0.246   0.859  62.995 -0.1819 -0.6071  1.1676
 2464TIP3   OH228882   0.192   0.716  64.749 -0.4352 -0.0653  0.1802
 2464TIP3    H128883   0.278   0.754  64.730 -0.5872 -0.7042 -2.1194
 2464TIP3    H228884   0.209   0.623  64.762 -0.4172  0.2576  3.0916
 2465TIP3   OH228885   0.879   0.292  14.468  0.3401 -0.2408  0.0386
 2465TIP3    H128886   0.929   0.275  14.547 -1.8066  0.5236  1.6689
 2465TIP3    H228887   0.816   0.220  14.462 -1.6160  1.2784  0.9168
 2466TIP3   OH228888   2.165   0.601  64.192 -0.0972  0.0540 -0.3518
 2466TIP3    H128889   2.239   0.622  64.135 -0.7551  1.4989 -0.7297
 2466TIP3    H228890   2.156   0.506  64.186  1.1835 -0.0538 -0.9678
 2467TIP3   OH228891   0.558   2.716  43.684  0.1962 -0.3938  0.1362
 2467TIP3    H128892   0.653   2.718  43.699  0.5838  0.8929 -2.0847
 2467TIP3    H228893   0.548   2.662  43.605 -0.4824  2.3942 -1.8224
 2468TIP3   OH228894   2.239   0.917  65.156 -0.2763 -0.1220 -0.1313
 2468TIP3    H128895   2.293   0.944  65.082  1.7676  1.4125  1.7916
 2468TIP3    H228896   2.149   0.936  65.127  0.2521 -1.0898 -2.7527
 2469TIP3   OH228897   1.035   2.354   9.114  0.6014 -0.1106  0.0390
 2469TIP3    H128898   0.963   2.415   9.098  1.4013  0.9003  0.2642
 2469TIP3    H228899   1.047   2.310   9.029 -0.2876 -0.3265  0.0050
 2470TIP3   OH228900   2.760   2.855  19.143  0.2049  0.2368  0.3775
 2470TIP3    H128901   2.717   2.886  19.063  2.2504  0.3784 -0.7373
 2470TIP3    H228902   2.718   2.771  19.162  0.5986 -0.4956 -1.6886
 2471TIP3   OH228903   1.852   2.237  51.234 -0.0792  0.3126  0.5368
 2471TIP3    H128904   1.879   2.214  51.323 -0.1769  0.5668  0.6350
 2471TIP3    H228905   1.759   2.212  51.230  0.5099 -2.0647 -0.2986
 2472TIP3   OH228906   2.054   3.304  57.628  0.3796 -0.1971  0.2074
 2472TIP3    H128907   1.979   3.344  57.672 -0.2895  0.6790 -1.6029
 2472TIP3    H228908   2.123   3.369  57.635  0.5603 -0.4344  0.6967
 2473TIP3   OH228909   3.324   0.009  45.900 -0.0326  0.3440  0.3713
 2473TIP3    H128910   3.373   0.091  45.905  1.2342 -0.4403  3.3225
 2473TIP3    H228911   3.356  -0.042  45.975 -1.5290 -2.4320 -0.7391
 2474TIP3   OH228912   3.307   0.397   9.112  0.7669  0.8636  0.3265
 2474TIP3    H128913   3.235   0.415   9.173 -0.7123 -1.0599 -0.7206
 2474TIP3    H228914   3.333   0.307   9.131  0.7839  0.4831 -1.3249
 2475TIP3   OH228915   0.648   0.148  55.207  0.1144  0.5927 -0.0936
 2475TIP3    H128916   0.587   0.155  55.281  0.5291 -0.2544  0.3523
 2475TIP3    H228917   0.591   0.139  55.130 -0.3276  1.8484  0.0607
 2476TIP3   OH228918   3.425   2.776  10.612 -0.5673 -0.1129  0.0662
 2476TIP3    H128919   3.428   2.850  10.673 -0.3783  0.3247 -0.4699
 2476TIP3    H228920   3.457   2.702  10.663  2.6732  0.8547 -0.3689
 2477TIP3   OH228921   0.855   2.495  60.948 -0.4815  0.4125 -0.0844
 2477TIP3    H128922   0.834   2.560  61.016  0.2485 -0.6367  1.1732
 2477TIP3    H228923   0.949   2.503  60.935 -0.6882  0.9711 -1.3989
 2478TIP3   OH228924   3.310   2.580  17.426 -0.2217  0.0136 -0.0806
 2478TIP3    H128925   3.359   2.661  17.438 -0.5736  0.2911 -0.4662
 2478TIP3    H228926   3.245   2.601  17.359 -0.4666 -0.5225 -0.0188
 2479TIP3   OH228927   0.974   2.483   5.099 -0.2662  0.1720 -0.3869
 2479TIP3    H128928   1.032   2.558   5.110 -0.3614  0.1075  0.5800
 2479TIP3    H228929   0.972   2.468   5.004  1.1039  0.3185 -0.4585
 2480TIP3   OH228930   3.045   1.116   0.527 -0.3573  0.3475 -0.2342
 2480TIP3    H128931   2.978   1.179   0.501 -1.3517 -0.5984 -0.0541
 2480TIP3    H228932   3.008   1.073   0.604  0.3978 -0.2975 -0.2221
 2481TIP3   OH228933   0.234   1.333  10.088 -0.0620  0.1976 -0.2461
 2481TIP3    H128934   0.170   1.379  10.034  1.0404  0.7413 -1.1424
 2481TIP3    H228935   0.189   1.315  10.170 -1.7292 -0.4665 -1.2626
 2482TIP3   OH228936   1.317   2.117  43.313 -0.4401 -0.3144 -0.1263
 2482TIP3    H128937   1.354   2.032  43.292 -1.3443 -0.4663 -1.2009
 2482TIP3    H228938   1.355   2.177  43.249 -0.2519 -0.0127  0.2602
 2483TIP3   OH228939   1.137   3.158  12.156  0.2191  0.3328 -0.4185
 2483TIP3    H128940   1.131   3.177  12.249 -0.4902 -0.6370 -0.2573
 2483TIP3    H228941   1.046   3.155  12.126  0.4477  1.3863 -1.3148
 2484TIP3   OH228942   2.271   3.193  10.138 -0.5617 -0.0911  0.3784
 2484TIP3    H128943   2.337   3.125  10.156 -0.5643  0.2820  2.0061
 2484TIP3    H228944   2.280   3.254  10.212  0.5305  2.5805 -1.7939
 2485TIP3   OH228945   2.180   2.070  47.170  0.5093  0.1743  0.1906
 2485TIP3    H128946   2.189   2.018  47.089  0.1554  1.3216 -0.6098
 2485TIP3    H228947   2.101   2.121  47.157  0.4640  0.3926  1.2702
 2486TIP3   OH228948   1.854   0.007   2.017 -0.2772 -0.4683 -0.0191
 2486TIP3    H128949   1.919   0.024   1.948 -1.4275  1.2681 -0.7341
 2486TIP3    H228950   1.868  -0.085   2.040  1.8359 -0.4034 -0.7531
 2487TIP3   OH228951   1.388   2.697  42.114  0.5852 -0.6941  0.1537
 2487TIP3    H128952   1.310   2.653  42.082  1.0337 -1.1749 -0.3030
 2487TIP3    H228953   1.356   2.776  42.158 -0.1302 -0.7309 -0.2953
 2488TIP3   OH228954   1.755   0.024  57.008 -0.2733  0.5237 -0.4483
 2488TIP3    H128955   1.789   0.113  57.014  0.4819  0.4386 -2.5554
 2488TIP3    H228956   1.813  -0.027  57.064 -1.0006  1.3731  1.1631
 2489TIP3   OH228957   0.453   1.468  58.638 -0.0868 -0.2678 -0.5245
 2489TIP3    H128958   0.479   1.453  58.729 -2.6402 -0.4680  0.2763
 2489TIP3    H228959   0.444   1.380  58.601  1.1886 -0.1811 -1.0716
 2490TIP3   OH228960   1.373   1.354  53.605 -0.5198  0.3719 -0.3849
 2490TIP3    H128961   1.354   1.282  53.545  1.7332 -0.6559  0.0263
 2490TIP3    H228962   1.292   1.368  53.654 -0.9165 -2.1542 -0.2132
 2491TIP3   OH228963   0.883   0.582  43.196  0.1848 -0.1398 -0.3425
 2491TIP3    H128964   0.834   0.527  43.136  1.0966 -0.6280 -0.6555
 2491TIP3    H228965   0.818   0.609  43.262 -0.9048  0.6678 -1.6816
 2492TIP3   OH228966   0.400   1.236   7.768  0.3618  0.0589  0.1253
 2492TIP3    H128967   0.480   1.265   7.813  0.4080 -0.5110  0.4156
 2492TIP3    H228968   0.329   1.263   7.827  0.3180  0.7264 -0.2168
 2493TIP3   OH228969   0.496   1.346   2.793  0.3465  0.0288 -0.3214
 2493TIP3    H128970   0.494   1.255   2.763 -1.1291  0.3039 -1.1660
 2493TIP3    H228971   0.580   1.380   2.762 -0.1265 -0.3741 -2.1426
 2494TIP3   OH228972   3.020   0.670   1.275  0.0263  0.0713  0.3436
 2494TIP3    H128973   3.000   0.578   1.292 -0.7216  0.1838  0.0875
 2494TIP3    H228974   3.018   0.711   1.361  1.1201 -0.2886  0.5553
 2495TIP3   OH228975   2.528   0.011  59.056  0.2709  0.3511 -0.1070
 2495TIP3    H128976   2.531   0.070  59.132  0.1959 -0.6765  0.7114
 2495TIP3    H228977   2.489   0.064  58.987  0.8111  1.4720  0.4116
 2496TIP3   OH228978   3.307   2.419  19.021 -0.0418 -0.6595  0.4191
 2496TIP3    H128979   3.257   2.341  18.998  0.8223 -1.1211  0.0450
 2496TIP3    H228980   3.326   2.409  19.114 -1.4193 -0.0220  0.7859
 2497TIP3   OH228981   0.252   2.320  14.304  0.5421  0.1310 -0.0367
 2497TIP3    H128982   0.265   2.407  14.268  1.3379  0.3970  0.8571
 2497TIP3    H228983   0.338   2.295  14.338  0.5053 -1.2892 -0.8904
 2498TIP3   OH228984   0.104   0.924  57.511  0.1311 -0.0153  0.1039
 2498TIP3    H128985   0.167   0.996  57.511  1.3480 -0.9275  3.0436
 2498TIP3    H228986   0.156   0.846  57.496 -0.6646 -0.5950  0.2628
 2499TIP3   OH228987   0.286   3.079  49.497  0.5750  0.1995 -0.2047
 2499TIP3    H128988   0.335   3.097  49.577 -0.9044  3.0420  0.1942
 2499TIP3    H228989   0.204   3.039  49.527  1.5765 -2.3913 -0.6938
 2500TIP3   OH228990   2.944   3.311  59.884 -0.3853  0.7248  0.4702
 2500TIP3    H128991   3.008   3.253  59.843  0.6075  0.8550  1.7754
 2500TIP3    H228992   2.943   3.284  59.976  0.6659  3.1899  1.2883
 2501TIP3   OH228993   2.134   2.173   9.114 -0.2410  0.9176  0.2598
 2501TIP3    H128994   2.100   2.103   9.058  2.9087  0.6196 -1.5205
 2501TIP3    H228995   2.107   2.254   9.069  0.0664  0.7290 -0.2731
 2502TIP3   OH228996   0.482   1.792   4.522 -0.7263  0.1451 -0.3165
 2502TIP3    H128997   0.391   1.796   4.549 -0.5880 -0.0215  0.1934
 2502TIP3    H228998   0.480   1.766   4.430 -1.1135 -2.6407  0.4193
 2503TIP3   OH228999   1.801   1.939  58.701  0.2321  0.1395  0.0550
 2503TIP3    H129000   1.813   1.921  58.794  2.2118  0.4702 -0.1084
 2503TIP3    H229001   1.857   2.014  58.682  1.3106 -1.0167 -1.7485
 2504TIP3   OH229002   1.583   0.110  50.273 -0.4412 -0.2586  0.1805
 2504TIP3    H129003   1.596   0.017  50.293 -0.4422 -0.1692  0.6049
 2504TIP3    H229004   1.561   0.111  50.180  0.4351 -0.6086 -0.0429
 2505TIP3   OH229005   0.050   2.571  62.398 -0.5817  0.3852 -0.0199
 2505TIP3    H129006   0.050   2.660  62.361  0.7157  0.8999  1.1144
 2505TIP3    H229007   0.130   2.567  62.450 -0.7364 -1.3924  0.1374
 2506TIP3   OH229008   0.138   2.486  54.293 -0.2274 -0.0632  0.2018
 2506TIP3    H129009   0.218   2.489  54.241  0.3147  0.1184  1.0508
 2506TIP3    H229010   0.111   2.394  54.289  0.8126 -0.4186  1.1072
 2507TIP3   OH229011   1.413   2.621  16.389 -0.2927 -0.6584 -0.1584
 2507TIP3    H129012   1.358   2.644  16.313  0.2075  0.1071 -0.3052
 2507TIP3    H229013   1.379   2.537  16.419 -0.8406 -0.7172 -0.9150
 2508TIP3   OH229014   3.189   3.408  22.539 -0.4466 -0.1024 -0.4549
 2508TIP3    H129015   3.273   3.448  22.560  0.0298 -0.2028 -1.9912
 2508TIP3    H229016   3.149   3.389  22.624  0.4466  1.2401  0.3047
 2509TIP3   OH229017   1.841   3.242  54.263 -0.3955  0.1923  0.1950
 2509TIP3    H129018   1.875   3.173  54.205 -0.9122 -0.9553  1.2264
 2509TIP3    H229019   1.800   3.305  54.203  1.5702  0.5021 -0.9009
 2510TIP3   OH229020   2.265   0.284  56.330 -0.7055 -0.7638 -0.0958
 2510TIP3    H129021   2.353   0.295  56.294 -1.0364  0.6982 -0.5173
 2510TIP3    H229022   2.211   0.260  56.255 -1.0074  0.2090 -0.1976
 2511TIP3   OH229023   1.646   2.402  65.691 -0.1330 -0.1673  0.0637
 2511TIP3    H129024   1.656   2.332  65.756  1.0190  1.8996  2.2873
 2511TIP3    H229025   1.721   2.390  65.632  0.2076 -0.6836  0.5863
 2512TIP3   OH229026   1.822   0.429   8.728  0.1047 -0.4560  0.5087
 2512TIP3    H129027   1.793   0.342   8.758 -1.3958 -0.4641 -0.8115
 2512TIP3    H229028   1.740   0.474   8.705  0.9638  0.7746 -0.2246
 2513TIP3   OH229029   0.474   2.076   4.223 -0.0572 -0.2838  0.0834
 2513TIP3    H129030   0.511   2.064   4.135 -0.2401 -0.7191  0.0637
 2513TIP3    H229031   0.387   2.112   4.207  0.2822  0.5875  0.1246
 2514TIP3   OH229032   0.843   2.538  35.874  0.5347 -0.0400 -0.4432
 2514TIP3    H129033   0.875   2.600  35.809 -0.7082  0.4374 -0.6352
 2514TIP3    H229034   0.814   2.462  35.822  0.3991 -0.0338 -0.3792
 2515TIP3   OH229035   2.850   0.220  60.910  0.0965  0.4866 -0.1195
 2515TIP3    H129036   2.864   0.166  60.988  0.5681  0.3594 -0.2836
 2515TIP3    H229037   2.756   0.219  60.896  0.1717 -1.2651 -0.7896
 2516TIP3   OH229038   0.367   1.686  43.152 -0.3994  0.2752 -0.1306
 2516TIP3    H129039   0.302   1.674  43.222  0.6642  1.1724  1.0691
 2516TIP3    H229040   0.406   1.600  43.142 -0.3261  0.2093  0.6399
 2517TIP3   OH229041   0.953   2.904  17.054  0.5071 -0.1933  0.6150
 2517TIP3    H129042   0.927   2.991  17.085  1.6944  0.5544 -0.4020
 2517TIP3    H229043   0.993   2.920  16.969 -0.8144 -1.9476 -0.3973
 2518TIP3   OH229044   1.698   3.089  54.958 -0.0636 -0.0612  0.3867
 2518TIP3    H129045   1.612   3.131  54.962  0.0869  0.3225 -0.2420
 2518TIP3    H229046   1.685   3.003  54.998 -0.2518  0.7687  2.2430
 2519TIP3   OH229047   1.991   1.233  63.514 -0.4282 -0.0986 -0.5292
 2519TIP3    H129048   2.031   1.147  63.517 -0.3461 -0.1056 -1.4385
 2519TIP3    H229049   1.948   1.236  63.429 -0.5025  0.7242 -0.4695
 2520TIP3   OH229050   2.664   1.079  12.630  0.5833  0.0797  0.0968
 2520TIP3    H129051   2.590   1.136  12.608  1.2308  2.1421  2.7793
 2520TIP3    H229052   2.721   1.085  12.553 -1.2102 -0.2309 -1.3363
 2521TIP3   OH229053   3.020   2.515  62.973  0.2783 -0.3814 -0.4951
 2521TIP3    H129054   2.947   2.525  62.912  0.7375 -0.8308 -1.1257
 2521TIP3    H229055   2.982   2.469  63.048 -0.3404  0.3643 -0.3311
 2522TIP3   OH229056   3.324   0.919  44.175  0.6508  0.6175 -0.1327
 2522TIP3    H129057   3.401   0.885  44.220 -0.5009 -0.6037  1.0156
 2522TIP3    H229058   3.341   1.012  44.165  3.5334 -0.0231 -2.5667
 2523TIP3   OH229059   1.036   3.385  65.273  0.1220  0.4078  0.0740
 2523TIP3    H129060   0.990   3.453  65.224 -0.2406  0.9124  1.0798
 2523TIP3    H229061   1.016   3.304  65.226  0.2314  0.9415 -0.9092
 2524TIP3   OH229062   2.148   3.430  45.974  0.1183  0.3641  0.4285
 2524TIP3    H129063   2.163   3.518  46.009 -0.7174  1.3142 -1.4982
 2524TIP3    H229064   2.192   3.429  45.889  0.0019 -1.0545  0.3476
 2525TIP3   OH229065   1.746   0.751  42.648 -0.1451  0.2444  0.4930
 2525TIP3    H129066   1.667   0.733  42.699  0.3051  1.0785  1.5006
 2525TIP3    H229067   1.808   0.786  42.711  0.1558  2.1019 -0.7717
 2526TIP3   OH229068   2.628   3.053  44.835 -0.0813 -1.1248  0.1007
 2526TIP3    H129069   2.551   3.005  44.804  0.1615 -0.0847 -2.4223
 2526TIP3    H229070   2.702   2.998  44.809  0.1285 -0.2216 -1.3689
 2527TIP3   OH229071   2.076   1.406   0.307  0.3302  0.2295  1.0136
 2527TIP3    H129072   2.169   1.417   0.328  0.6736 -0.6128 -0.0006
 2527TIP3    H229073   2.046   1.336   0.366  0.4245  0.2856  1.1265
 2528TIP3   OH229074   0.920   0.559  11.642 -0.0640  0.2802 -0.6568
 2528TIP3    H129075   0.997   0.513  11.677 -0.6130  0.5453  0.9864
 2528TIP3    H229076   0.883   0.499  11.578 -0.0486 -1.0379  0.5335
 2529TIP3   OH229077   2.875   0.678  64.574 -0.7186  0.1622  0.5086
 2529TIP3    H129078   2.856   0.725  64.493  0.5463  0.4296  0.3479
 2529TIP3    H229079   2.801   0.698  64.631 -1.8401 -0.3864 -0.7157
 2530TIP3   OH229080   0.729   3.170  52.503  0.4494 -0.2177 -0.2149
 2530TIP3    H129081   0.700   3.177  52.594  2.8689 -1.8285  0.7645
 2530TIP3    H229082   0.698   3.251  52.462 -1.9969 -0.1126  1.6008
 2531TIP3   OH229083   1.784   0.893  14.823  0.6325  0.2034  0.8392
 2531TIP3    H129084   1.835   0.814  14.841  1.0213  0.5891  1.4475
 2531TIP3    H229085   1.729   0.905  14.901 -2.3620 -1.6476 -0.7765
 2532TIP3   OH229086   1.304   0.971  17.676 -0.4585 -0.3169  0.0009
 2532TIP3    H129087   1.283   0.885  17.711 -0.4283 -0.1746  0.3730
 2532TIP3    H229088   1.395   0.986  17.702 -0.9178  0.4568  1.2427
 2533TIP3   OH229089   3.133   0.639  13.403 -0.4240  0.6827  0.2904
 2533TIP3    H129090   3.179   0.642  13.487 -0.7983  0.5522  0.5064
 2533TIP3    H229091   3.050   0.595  13.423  0.5942 -1.8861 -0.6992
 2534TIP3   OH229092   0.396   0.903  58.367 -0.4106  0.2091 -0.2269
 2534TIP3    H129093   0.410   0.882  58.460 -1.4378 -0.7336 -0.2648
 2534TIP3    H229094   0.302   0.890  58.354 -0.3156  0.5786 -1.3485
 2535TIP3   OH229095   2.421   1.473  61.093  0.4266 -0.1407 -0.0228
 2535TIP3    H129096   2.400   1.492  61.002 -1.2126 -0.1218  0.3254
 2535TIP3    H229097   2.351   1.515  61.143  1.8047  0.6861  1.3282
 2536TIP3   OH229098   0.454   1.970   6.499 -0.0875 -0.0479 -0.3411
 2536TIP3    H129099   0.512   2.040   6.470 -0.4578  0.8469  0.9929
 2536TIP3    H229100   0.391   2.013   6.557  0.8046 -1.7389  2.0746
 2537TIP3   OH229101   2.315   0.429  50.748 -0.3065 -0.6828  0.6714
 2537TIP3    H129102   2.278   0.514  50.724  1.4307 -0.3427 -1.1239
 2537TIP3    H229103   2.410   0.445  50.750  0.0861 -2.6624 -0.1546
 2538TIP3   OH229104   2.319   1.048  14.950 -0.1793  0.0478  0.3038
 2538TIP3    H129105   2.231   1.025  14.981 -0.1980 -0.0834  0.1572
 2538TIP3    H229106   2.350   1.114  15.012 -0.9646  1.2122 -0.4919
 2539TIP3   OH229107   0.329   1.832  53.672 -0.5823  0.0090  0.1891
 2539TIP3    H129108   0.367   1.814  53.758 -0.6401  1.7589  0.6290
 2539TIP3    H229109   0.371   1.770  53.613 -1.7573 -2.3567  1.7249
 2540TIP3   OH229110   2.791   2.340  62.975  0.1864  0.6957  0.5286
 2540TIP3    H129111   2.765   2.389  63.053 -0.9574  3.0831 -1.2173
 2540TIP3    H229112   2.712   2.340  62.920  1.2670  0.0018 -1.0884
 2541TIP3   OH229113   0.446   1.972  58.046  0.0973 -0.0308 -0.2657
 2541TIP3    H129114   0.467   1.879  58.042 -0.9300 -0.2638 -0.2524
 2541TIP3    H229115   0.450   1.994  58.139  1.7757  0.2974 -0.3689
 2542TIP3   OH229116   1.282   3.088   7.755 -0.4652 -0.0646  0.6065
 2542TIP3    H129117   1.231   3.159   7.718 -2.1475 -0.8113  1.3654
 2542TIP3    H229118   1.224   3.012   7.751  0.5080 -0.9129  1.7198
 2543TIP3   OH229119   1.335   1.434  55.780 -0.4212  0.0403 -0.0119
 2543TIP3    H129120   1.366   1.506  55.725  1.7416 -0.8390 -0.0380
 2543TIP3    H229121   1.258   1.401  55.733  0.5719  0.1641 -1.8496
 2544TIP3   OH229122   0.953   3.428  52.546 -0.1141 -0.1446 -0.0799
 2544TIP3    H129123   0.951   3.478  52.465 -1.6553 -3.5624 -2.3519
 2544TIP3    H229124   0.866   3.388  52.553  0.7600 -1.9249  1.8923
 2545TIP3   OH229125   0.903   0.227   2.791  0.2589 -0.2693 -0.0435
 2545TIP3    H129126   0.834   0.290   2.813  0.4683  0.8705 -2.3354
 2545TIP3    H229127   0.915   0.237   2.697  2.1806 -1.8758 -0.0268
 2546TIP3   OH229128   3.246   0.536  58.443  0.0927  0.6502  0.0815
 2546TIP3    H129129   3.174   0.475  58.427  0.5764 -0.0728  0.5656
 2546TIP3    H229130   3.298   0.494  58.512  1.2759  0.8775 -0.6287
 2547TIP3   OH229131   2.834   0.879  15.272  0.0856 -0.0792  0.2660
 2547TIP3    H129132   2.833   0.813  15.203 -1.2284  1.0273 -0.8562
 2547TIP3    H229133   2.906   0.938  15.248  0.7899 -0.6838  0.8632
 2548TIP3   OH229134   2.007   1.541   8.384 -0.7425 -0.5762 -0.1897
 2548TIP3    H129135   2.045   1.550   8.472 -0.1469  0.0447 -0.5044
 2548TIP3    H229136   2.076   1.569   8.325 -0.9898 -1.4306 -0.8949
 2549TIP3   OH229137   0.947   1.381   4.728 -0.5658 -0.2175 -0.5621
 2549TIP3    H129138   0.951   1.286   4.743  0.2351 -0.1274 -0.1412
 2549TIP3    H229139   1.014   1.397   4.662 -0.9112  0.0251 -0.8595
 2550TIP3   OH229140   0.180   2.770  43.716 -0.1643 -0.3858 -0.0664
 2550TIP3    H129141   0.257   2.786  43.770 -0.4466 -1.1803  0.5898
 2550TIP3    H229142   0.213   2.721  43.640 -0.2381 -2.2134  1.0259
 2551TIP3   OH229143   0.203   2.716  19.365  0.1572 -0.0187  0.4799
 2551TIP3    H129144   0.269   2.652  19.393  1.6365  0.3510 -1.8738
 2551TIP3    H229145   0.205   2.712  19.269 -1.3123  1.9666  0.3042
 2552TIP3   OH229146   0.062   2.413  10.163  0.1241 -0.2277  0.2460
 2552TIP3    H129147   0.101   2.497  10.138 -2.1699  1.1316  0.9961
 2552TIP3    H229148   0.043   2.422  10.256 -1.2815 -1.1241  0.0676
 2553TIP3   OH229149   2.744   0.212  54.952 -0.2579  0.4137  0.1384
 2553TIP3    H129150   2.779   0.244  55.035 -0.3160 -1.1193  0.7936
 2553TIP3    H229151   2.743   0.117  54.962 -1.9632  0.2803 -0.9335
 2554TIP3   OH229152   3.271   3.421   9.400 -0.5239  0.0586  0.7328
 2554TIP3    H129153   3.291   3.341   9.351  1.1981  1.7841 -1.5787
 2554TIP3    H229154   3.329   3.417   9.477 -0.6041 -0.9968  0.7501
 2555TIP3   OH229155   3.250   2.455  42.699 -0.0961  0.0073  0.3790
 2555TIP3    H129156   3.155   2.460  42.685 -0.1823 -0.9244  0.5785
 2555TIP3    H229157   3.288   2.503  42.625 -0.7332  1.0095  0.6818
 2556TIP3   OH229158   1.048   3.250  46.179  0.0730 -0.1457 -0.0497
 2556TIP3    H129159   1.032   3.284  46.267 -1.0136 -0.5578 -0.0793
 2556TIP3    H229160   1.127   3.198  46.188  1.1017  1.3831  0.2566
 2557TIP3   OH229161   2.566   0.882  51.286  0.1439  0.1303 -0.0666
 2557TIP3    H129162   2.628   0.916  51.221 -0.5139 -0.1648 -0.8647
 2557TIP3    H229163   2.506   0.955  51.302  0.4175  0.2644  0.3548
 2558TIP3   OH229164   1.164   2.567  64.007  0.4386  0.0758  0.1058
 2558TIP3    H129165   1.255   2.589  63.988 -0.2286  1.1325 -2.3182
 2558TIP3    H229166   1.150   2.482  63.965  0.6087 -0.7187  1.6035
 2559TIP3   OH229167   2.387   0.755  10.873  0.6599  0.3252 -0.1336
 2559TIP3    H129168   2.447   0.789  10.940 -0.3965  0.9857  0.5030
 2559TIP3    H229169   2.382   0.824  10.807 -0.7965  1.0926  0.7241
 2560TIP3   OH229170   0.739   0.933  10.794 -0.0050 -0.0936  0.3775
 2560TIP3    H129171   0.764   0.850  10.835  0.1840  0.8323  2.2806
 2560TIP3    H229172   0.815   0.957  10.741  0.0317 -1.0119  0.0035
 2561TIP3   OH229173   0.973   0.010  43.702  0.1896  0.7726 -0.0589
 2561TIP3    H129174   1.061  -0.014  43.673 -0.2876 -0.6013 -0.4649
 2561TIP3    H229175   0.916  -0.023  43.632 -0.6311  1.8976  0.0568
 2562TIP3   OH229176   0.083   0.397  47.120 -0.4264  0.2091  0.4209
 2562TIP3    H129177   0.161   0.381  47.174 -0.6406  1.5337  1.1679
 2562TIP3    H229178   0.038   0.312  47.118  1.5437 -0.8814 -0.9407
 2563TIP3   OH229179   1.016   2.168  45.832 -0.2247  0.0512 -0.1648
 2563TIP3    H129180   0.956   2.223  45.782  1.4620  1.2623 -0.9829
 2563TIP3    H229181   1.000   2.190  45.924 -0.7184  0.6804 -0.3998
 2564TIP3   OH229182   0.131   3.179   9.480  0.3917  0.2769 -0.6544
 2564TIP3    H129183   0.138   3.084   9.480 -1.4795  0.0757  0.3948
 2564TIP3    H229184   0.054   3.197   9.534 -0.1982  2.3153 -2.0360
 2565TIP3   OH229185   0.195   1.872  10.498  0.0462 -0.2593  0.0720
 2565TIP3    H129186   0.132   1.907  10.562 -3.0718 -1.0554 -2.3087
 2565TIP3    H229187   0.154   1.792  10.466  3.2737 -1.9288 -0.3189
 2566TIP3   OH229188   0.291   0.636  18.673 -0.6812  0.1793 -0.0164
 2566TIP3    H129189   0.277   0.551  18.714 -1.3550 -1.1025 -2.6959
 2566TIP3    H229190   0.222   0.692  18.709 -0.9933 -0.7445  0.8564
 2567TIP3   OH229191   1.606   1.239  64.434 -0.2518 -0.0424  0.0179
 2567TIP3    H129192   1.606   1.255  64.340 -1.7302 -0.5591 -0.0908
 2567TIP3    H229193   1.626   1.146  64.442 -1.1426 -0.2283  0.1555
 2568TIP3   OH229194   1.834   1.363  65.126 -0.3802  0.5501  0.1433
 2568TIP3    H129195   1.742   1.371  65.098  0.4069 -0.2807 -3.1669
 2568TIP3    H229196   1.872   1.448  65.107 -0.2996  0.6982  0.9335
 2569TIP3   OH229197   1.169   0.120  18.151 -0.5643  0.3816 -0.1742
 2569TIP3    H129198   1.196   0.158  18.067  0.0621  0.2983 -0.0150
 2569TIP3    H229199   1.221   0.167  18.216 -1.8176  1.1958  0.2688
 2570TIP3   OH229200   1.084   1.034  49.614  0.1448  0.1016 -0.0352
 2570TIP3    H129201   1.040   1.103  49.565 -1.2841 -1.8790 -1.7147
 2570TIP3    H229202   1.163   1.015  49.563 -0.7286 -1.1466 -0.9553
 2571TIP3   OH229203   2.898   3.276   8.624  0.5575 -0.3158 -0.4562
 2571TIP3    H129204   2.882   3.189   8.586 -0.8576 -0.0156 -0.5785
 2571TIP3    H229205   2.837   3.334   8.579  1.2370  0.6977 -0.1155
 2572TIP3   OH229206   0.859   0.377  11.433 -0.6405 -0.5093  0.0806
 2572TIP3    H129207   0.768   0.368  11.404 -0.5927  1.5654 -0.8976
 2572TIP3    H229208   0.910   0.338  11.362 -0.7301 -0.3425 -0.0792
 2573TIP3   OH229209   2.206   0.579  45.953 -0.2741 -0.2629  0.0666
 2573TIP3    H129210   2.153   0.627  45.889 -0.6827  0.8225  1.1819
 2573TIP3    H229211   2.289   0.563  45.909 -0.7753 -0.1111 -0.9530
 2574TIP3   OH229212   2.796   3.176  49.649  0.3037  0.3927 -0.0253
 2574TIP3    H129213   2.750   3.249  49.607 -0.1568 -0.3015 -0.7548
 2574TIP3    H229214   2.888   3.193  49.632  0.1027 -0.1090 -1.7428
 2575TIP3   OH229215   1.327   1.970  44.660 -0.3818 -0.4587  0.5791
 2575TIP3    H129216   1.322   2.064  44.643  2.0491 -0.2781  0.5216
 2575TIP3    H229217   1.299   1.960  44.751 -0.5385  0.3346  0.6224
 2576TIP3   OH229218   2.559   3.000  55.140 -0.1351 -0.1614 -0.0460
 2576TIP3    H129219   2.622   3.039  55.080  0.6840  1.4929  1.7580
 2576TIP3    H229220   2.483   3.059  55.136  0.3360  0.5849  1.2402
 2577TIP3   OH229221   3.144   3.432   1.429  0.2090 -0.5193 -0.1411
 2577TIP3    H129222   3.173   3.341   1.435  0.3585 -0.4819 -0.3042
 2577TIP3    H229223   3.142   3.451   1.336 -2.4963 -1.2244 -0.3331
 2578TIP3   OH229224   0.716   3.063  63.501 -0.0457  0.8986 -0.1302
 2578TIP3    H129225   0.750   3.153  63.496  1.5406  0.5363  2.3729
 2578TIP3    H229226   0.778   3.018  63.558 -0.4583 -2.0052 -1.7850
 2579TIP3   OH229227   2.429   1.026  15.565  0.1705  0.5169 -0.1881
 2579TIP3    H129228   2.503   0.998  15.619 -0.0563 -2.5853 -1.3164
 2579TIP3    H229229   2.457   1.011  15.475 -1.2754  0.6956 -0.7034
 2580TIP3   OH229230   3.357   0.241  51.283 -0.1971  0.0148  0.2889
 2580TIP3    H129231   3.333   0.169  51.341  0.3594 -0.5372 -0.1395
 2580TIP3    H229232   3.305   0.227  51.204 -0.9413  0.7538  0.6443
 2581TIP3   OH229233   1.798   2.668  55.228 -0.2328  0.2537 -0.6382
 2581TIP3    H129234   1.884   2.647  55.192 -0.2255 -0.4811 -0.2202
 2581TIP3    H229235   1.765   2.584  55.261 -0.9089  0.6168 -0.3754
 2582TIP3   OH229236   0.576   1.228  64.319 -0.1011 -0.1236 -0.4739
 2582TIP3    H129237   0.645   1.175  64.279  0.7030 -0.4513  1.2453
 2582TIP3    H229238   0.522   1.256  64.245  1.3399 -0.6032 -1.7780
 2583TIP3   OH229239   1.384   2.734  43.551 -0.6544  0.0277  0.1182
 2583TIP3    H129240   1.437   2.793  43.605  1.8515 -3.0477  1.3254
 2583TIP3    H229241   1.446   2.696  43.490 -1.7873 -2.4439  0.4188
 2584TIP3   OH229242   1.837   1.741   9.266 -0.3244  0.2625 -0.0310
 2584TIP3    H129243   1.772   1.722   9.333 -0.2270  0.1086  0.0199
 2584TIP3    H229244   1.892   1.663   9.263  0.1443  0.5802  0.2550
 2585TIP3   OH229245   1.842   0.804   7.069 -0.5761 -0.2809  0.4308
 2585TIP3    H129246   1.858   0.786   6.976 -1.8006  1.9417 -0.2706
 2585TIP3    H229247   1.891   0.884   7.087  1.0039 -1.5615  2.2007
 2586TIP3   OH229248   3.087   1.706  43.169 -0.5081  0.0886  0.8450
 2586TIP3    H129249   3.104   1.699  43.263 -2.9006 -1.4095  1.2675
 2586TIP3    H229250   3.039   1.626  43.148 -3.4943  2.0997 -0.7667
 2587TIP3   OH229251   1.923   0.453  48.893  0.2501  0.1777  0.0722
 2587TIP3    H129252   1.914   0.359  48.876 -0.1717  0.1870  0.2279
 2587TIP3    H229253   2.010   0.462  48.933  0.5771 -0.0541 -0.5774
 2588TIP3   OH229254   2.789   2.969  28.577 -1.0102  0.6615  0.1812
 2588TIP3    H129255   2.830   3.032  28.519  0.3338  0.2024  0.6077
 2588TIP3    H229256   2.721   3.019  28.622 -2.5545  0.8721 -2.2135
 2589TIP3   OH229257   2.945   1.725  59.469  0.2493 -0.2063  0.2511
 2589TIP3    H129258   2.935   1.708  59.376  0.3239 -0.3253  0.2651
 2589TIP3    H229259   2.886   1.661  59.511  0.0894 -0.0419  0.2781
 2590TIP3   OH229260   0.937   0.516  34.927 -0.9725 -0.4171  0.4694
 2590TIP3    H129261   1.013   0.541  34.874 -0.2441 -1.1221  1.1634
 2590TIP3    H229262   0.880   0.594  34.925  0.8486  1.0450  1.8721
 2591TIP3   OH229263   1.952   0.499  16.825  0.1971 -0.3830 -0.0728
 2591TIP3    H129264   2.014   0.428  16.840 -1.8043 -1.8276  2.3073
 2591TIP3    H229265   1.897   0.499  16.904 -2.0457  1.5722 -1.5025
 2592TIP3   OH229266   0.734   0.082  38.442 -0.7175 -0.1624  0.1617
 2592TIP3    H129267   0.772   0.005  38.485  1.5097  0.5889 -0.3215
 2592TIP3    H229268   0.743   0.152  38.506  0.6364  0.4761 -0.6853
 2593TIP3   OH229269   0.968   1.879   1.336 -0.4105 -0.1277 -0.3386
 2593TIP3    H129270   1.041   1.824   1.308 -0.8282 -1.3639  0.9072
 2593TIP3    H229271   0.911   1.883   1.259 -1.2403 -2.9490  0.0159
 2594TIP3   OH229272   0.110   2.386   0.046  0.0139 -0.1128  0.0886
 2594TIP3    H129273   0.107   2.470   0.001  1.1977 -0.2570 -0.2912
 2594TIP3    H229274   0.018   2.361   0.058 -0.3531  1.3095  0.3663
 2595TIP3   OH229275   2.605   2.417  17.817  0.0089  0.0690 -0.7687
 2595TIP3    H129276   2.552   2.419  17.737 -1.4280  0.5909  0.1528
 2595TIP3    H229277   2.695   2.429  17.786 -0.5800  0.9932 -2.2571
 2596TIP3   OH229278   0.268   1.943  62.330  0.4912  0.4957 -0.1383
 2596TIP3    H129279   0.284   1.849  62.337 -0.2015  0.3577 -0.3598
 2596TIP3    H229280   0.323   1.972  62.257 -0.9146 -0.1320 -1.4809
 2597TIP3   OH229281   1.774   1.608  52.343  0.5665 -0.2981  0.4806
 2597TIP3    H129282   1.681   1.628  52.335  0.4645 -1.0792 -0.3985
 2597TIP3    H229283   1.793   1.550  52.270  1.4889 -1.1036  1.3356
 2598TIP3   OH229284   1.347   2.059   8.282 -0.3707 -0.1203  0.5410
 2598TIP3    H129285   1.423   2.066   8.339 -0.5101  1.0429  0.5979
 2598TIP3    H229286   1.382   2.028   8.198  0.3538  1.5411  0.2010
 2599TIP3   OH229287   1.767   2.940  66.338  0.0068  0.4663 -0.1817
 2599TIP3    H129288   1.773   3.035  66.348 -1.3117  0.4352  1.2970
 2599TIP3    H229289   1.689   2.927  66.283 -1.2839  0.2189  1.6197
 2600TIP3   OH229290   2.692   1.039   7.467  0.3827  0.4993  0.8523
 2600TIP3    H129291   2.780   1.072   7.481  0.3850  0.5385  0.7432
 2600TIP3    H229292   2.691   0.954   7.512 -0.1791  1.4334  2.7259
 2601TIP3   OH229293   2.336   3.091  47.361  0.2250 -0.1517 -0.2939
 2601TIP3    H129294   2.313   3.176  47.398 -3.7622 -1.7143  1.3918
 2601TIP3    H229295   2.409   3.061  47.414  0.1199  1.2316  0.6879
 2602TIP3   OH229296   1.206   0.412  48.049  0.3460  0.0079 -0.1147
 2602TIP3    H129297   1.213   0.356  48.126  2.0951 -1.9740 -1.5741
 2602TIP3    H229298   1.256   0.490  48.071 -1.0953  0.5301  1.5202
 2603TIP3   OH229299   3.123   2.447   0.952 -0.3635 -0.3922  0.3739
 2603TIP3    H129300   3.069   2.404   1.018 -1.8527  0.5995 -0.1369
 2603TIP3    H229301   3.113   2.393   0.874  0.9193 -1.2373  0.7751
 2604TIP3   OH229302   0.391   1.707  48.149 -0.2785 -1.0196  0.3367
 2604TIP3    H129303   0.299   1.682  48.149 -0.3209 -1.0735 -1.6931
 2604TIP3    H229304   0.391   1.795  48.109  0.7301 -2.2581 -2.6973
 2605TIP3   OH229305   3.053   0.744  17.222  0.0206  0.2297 -0.5855
 2605TIP3    H129306   3.030   0.666  17.272  2.2149  0.7013  1.3096
 2605TIP3    H229307   3.014   0.816  17.271  0.3583  0.5300 -0.7527
 2606TIP3   OH229308   0.431   2.417  50.775  0.1507 -0.2210 -0.1703
 2606TIP3    H129309   0.501   2.480  50.793  1.8996 -2.4176  1.2642
 2606TIP3    H229310   0.350   2.463  50.798  1.4127  1.2644  1.5496
 2607TIP3   OH229311   0.813   2.245  14.529 -0.1212  0.3071 -0.2356
 2607TIP3    H129312   0.756   2.321  14.543 -2.5650 -1.5642  0.6290
 2607TIP3    H229313   0.780   2.204  14.449  0.1506 -0.7052  0.1594
 2608TIP3   OH229314   1.030   1.495  36.875 -0.4307 -0.0439  0.1048
 2608TIP3    H129315   1.085   1.571  36.891 -0.3187 -0.2283  0.6227
 2608TIP3    H229316   1.006   1.463  36.962 -0.4413 -0.6227 -0.1029
 2609TIP3   OH229317   2.612   2.305  53.503  0.8854 -0.1126  0.4284
 2609TIP3    H129318   2.618   2.365  53.578  0.4452  0.7969 -0.2484
 2609TIP3    H229319   2.635   2.358  53.427  0.7022 -0.8632 -0.1711
 2610TIP3   OH229320   1.311   0.507  37.330  0.4553  0.2877  0.2718
 2610TIP3    H129321   1.303   0.597  37.361  1.8633  0.9304 -1.0861
 2610TIP3    H229322   1.238   0.495  37.269 -2.1108 -0.8659  3.3068
 2611TIP3   OH229323   3.184   2.713  15.700 -0.0086 -0.0045 -0.4358
 2611TIP3    H129324   3.139   2.721  15.616 -1.9928  1.7893  0.7013
 2611TIP3    H229325   3.267   2.757  15.687  0.4097 -1.1234 -1.8533
 2612TIP3   OH229326   1.713   3.132  48.570  0.0144  0.1477  0.1049
 2612TIP3    H129327   1.738   3.130  48.477  0.8776 -0.1924  0.3251
 2612TIP3    H229328   1.618   3.127  48.569 -0.0123  0.5423 -0.7754
 2613TIP3   OH229329   0.298   2.692  62.891 -0.1916  0.3734 -0.0072
 2613TIP3    H129330   0.322   2.784  62.878 -1.3132  0.3827 -2.5363
 2613TIP3    H229331   0.377   2.643  62.868  0.7425  0.6429  2.3218
 2614TIP3   OH229332   3.190   0.158  17.803  0.4314  0.9540  0.2282
 2614TIP3    H129333   3.177   0.071  17.839  2.8050  0.4675  0.0521
 2614TIP3    H229334   3.141   0.216  17.861  1.1981 -0.2042  2.0991
 2615TIP3   OH229335   1.317   2.698  16.983  0.2179 -0.3051 -0.4308
 2615TIP3    H129336   1.303   2.770  16.921  2.2887  2.4339  1.9750
 2615TIP3    H229337   1.380   2.640  16.939 -0.4813  0.0129 -1.9262
 2616TIP3   OH229338   1.365   1.099  54.946 -0.4430  0.0248  0.6595
 2616TIP3    H129339   1.293   1.106  55.009 -1.1811  0.3273 -0.1977
 2616TIP3    H229340   1.330   1.137  54.865  1.0905  1.3207  0.5570
 2617TIP3   OH229341   1.314   3.297  63.902  0.3147  0.6629 -1.1848
 2617TIP3    H129342   1.257   3.303  63.826 -0.0554  1.4494 -0.8471
 2617TIP3    H229343   1.364   3.378  63.901  0.1500  0.7775 -0.4688
 2618TIP3   OH229344   1.812   1.356  58.561  0.1443 -0.1303 -0.1514
 2618TIP3    H129345   1.725   1.358  58.521 -0.0559 -0.6406  0.2512
 2618TIP3    H229346   1.795   1.356  58.655  0.6270  2.2405  0.0016
 2619TIP3   OH229347   3.011   1.395  60.883  0.0790  0.0327 -0.5181
 2619TIP3    H129348   3.044   1.472  60.838  1.0849 -0.5589 -0.8282
 2619TIP3    H229349   3.038   1.406  60.974  0.4793 -0.0873 -0.6223
 2620TIP3   OH229350   1.161   2.210  21.679  0.0929  0.1264 -0.5065
 2620TIP3    H129351   1.145   2.188  21.771  1.2108  0.6596 -0.1724
 2620TIP3    H229352   1.243   2.260  21.680 -0.7992  1.7028 -1.5819
 2621TIP3   OH229353   3.431   0.822  48.550  0.5996  0.4608 -0.5256
 2621TIP3    H129354   3.444   0.811  48.456 -0.8782  0.3070 -0.7276
 2621TIP3    H229355   3.382   0.904  48.558  2.2306  1.4090  0.2503
 2622TIP3   OH229356   1.803   2.243  19.389  0.2347 -0.1759  0.0513
 2622TIP3    H129357   1.785   2.218  19.480 -1.1672 -1.8064 -0.6129
 2622TIP3    H229358   1.860   2.319  19.396  0.9300 -0.8222  2.2809
 2623TIP3   OH229359   1.928   2.231  50.633  0.0161 -0.4059  0.1199
 2623TIP3    H129360   1.861   2.298  50.617 -0.5004 -0.7956  0.6060
 2623TIP3    H229361   1.918   2.170  50.560 -0.4032 -0.6475  0.3721
 2624TIP3   OH229362   1.121   2.542  46.273 -0.2769 -0.1458 -0.4206
 2624TIP3    H129363   1.109   2.457  46.314 -0.0700  1.1559  2.6290
 2624TIP3    H229364   1.210   2.541  46.240  0.4570 -0.4710  1.4458
 2625TIP3   OH229365   3.199   3.422  49.873  0.7168 -0.1426  0.0987
 2625TIP3    H129366   3.229   3.513  49.872 -0.1231  0.1436  0.4357
 2625TIP3    H229367   3.116   3.424  49.921  0.4736 -1.0202 -0.2619
 2626TIP3   OH229368   2.534   1.107   1.391  0.2031  0.5099 -0.0912
 2626TIP3    H129369   2.459   1.141   1.440  1.1450  0.9375  1.0981
 2626TIP3    H229370   2.549   1.020   1.426  1.3936  1.1268  1.0354
 2627TIP3   OH229371   3.156   1.633  15.721 -0.1887 -0.1770  0.5015
 2627TIP3    H129372   3.163   1.671  15.634  2.2816  0.2734  0.8179
 2627TIP3    H229373   3.154   1.708  15.780  1.3025 -0.4631  0.9578
 2628TIP3   OH229374   1.595   3.131  14.659  0.2912 -0.1758 -0.5487
 2628TIP3    H129375   1.665   3.084  14.614  0.2061  0.4040 -1.2924
 2628TIP3    H229376   1.621   3.128  14.751  0.4983 -1.3074 -0.6261
 2629TIP3   OH229377   0.056   0.145  61.379 -0.2977 -0.0916  0.1940
 2629TIP3    H129378   0.024   0.140  61.288  1.6419  0.7387 -0.5881
 2629TIP3    H229379  -0.011   0.197  61.424 -0.3371  1.2464 -1.2835
 2630TIP3   OH229380   0.605   1.019  45.417  0.3754 -0.1377  0.1513
 2630TIP3    H129381   0.649   1.084  45.472 -1.2450  1.7731 -0.7019
 2630TIP3    H229382   0.663   1.010  45.341  0.7071  0.1444  0.3665
 2631TIP3   OH229383   0.774   2.662  15.093 -0.4809  0.5857 -0.7966
 2631TIP3    H129384   0.833   2.592  15.122 -1.7061 -0.2467 -0.2496
 2631TIP3    H229385   0.815   2.742  15.125 -1.1003 -0.1812  2.2567
 2632TIP3   OH229386   0.907   0.062  51.260 -0.3657  0.1921  0.1500
 2632TIP3    H129387   0.901   0.091  51.169  0.3798  0.9853  0.3418
 2632TIP3    H229388   0.993   0.021  51.266  1.1308  3.1713  1.2903
 2633TIP3   OH229389   2.968   2.731  58.375 -0.2002 -0.0033 -0.1614
 2633TIP3    H129390   2.937   2.737  58.466 -0.5615  0.4036 -0.3135
 2633TIP3    H229391   2.950   2.640  58.350 -0.2488 -0.0728  0.1162
 2634TIP3   OH229392   2.499   0.626  22.112 -0.1216 -0.4982  0.3870
 2634TIP3    H129393   2.412   0.606  22.147 -0.9674  0.5768 -1.0354
 2634TIP3    H229394   2.483   0.657  22.023  1.8022 -1.0866 -0.2060
 2635TIP3   OH229395   2.325   3.122  16.802 -0.0407  0.1700  0.1522
 2635TIP3    H129396   2.355   3.209  16.779  0.0737  0.2064  0.4326
 2635TIP3    H229397   2.230   3.124  16.787  0.1635 -0.1410 -1.3420
 2636TIP3   OH229398   1.901   0.904  61.652 -0.5197  0.4544 -0.0018
 2636TIP3    H129399   1.840   0.929  61.722 -0.4837 -0.8711  0.5335
 2636TIP3    H229400   1.864   0.944  61.573 -0.8279  1.5702  0.6824
 2637TIP3   OH229401   2.829   1.171  27.760 -0.1996 -0.6234 -0.1055
 2637TIP3    H129402   2.757   1.118  27.795 -1.4144 -0.6582 -2.4673
 2637TIP3    H229403   2.790   1.222  27.689  1.6635  0.9980 -0.0650
 2638TIP3   OH229404   0.251   3.239   2.016 -0.2431 -0.2781 -0.0243
 2638TIP3    H129405   0.224   3.255   2.107 -1.9693 -0.2669 -0.4939
 2638TIP3    H229406   0.221   3.150   1.998  0.3477 -0.3832 -0.4918
 2639TIP3   OH229407   2.089   2.653  21.058 -0.4117  0.1993 -0.0134
 2639TIP3    H129408   2.032   2.700  20.997 -0.6074  0.1234  0.1100
 2639TIP3    H229409   2.115   2.720  21.121 -0.7664  0.1245  0.2165
 2640TIP3   OH229410   0.754   2.542  66.588  0.4420  0.6705  0.9433
 2640TIP3    H129411   0.779   2.591  66.666 -0.7904  0.8755  1.2419
 2640TIP3    H229412   0.669   2.579  66.563 -0.2605 -0.9178  0.8419
 2641TIP3   OH229413   0.722   1.938   4.339  0.4977  0.0972  0.0836
 2641TIP3    H129414   0.759   2.005   4.396 -0.6221  0.5197  0.3520
 2641TIP3    H229415   0.642   1.978   4.304 -0.4902 -1.2625  0.6621
 2642TIP3   OH229416   1.061   1.649  46.908  0.2119 -0.2453  0.1522
 2642TIP3    H129417   0.976   1.693  46.909  0.2389 -0.1311 -1.0072
 2642TIP3    H229418   1.125   1.720  46.908  0.2536 -0.2216 -1.8896
 2643TIP3   OH229419   0.728   0.762  59.806 -0.3353 -0.4321 -0.6740
 2643TIP3    H129420   0.677   0.707  59.745  0.2034  0.2981 -1.8160
 2643TIP3    H229421   0.785   0.700  59.852 -1.7569 -1.1800  0.1451
 2644TIP3   OH229422   1.357   3.451  14.583 -0.2135 -0.0633  0.4713
 2644TIP3    H129423   1.283   3.407  14.625  0.0706 -0.9532  0.0720
 2644TIP3    H229424   1.415   3.475  14.654 -1.4453  1.7721  0.9194
 2645TIP3   OH229425   1.205   3.442  50.224 -0.1205 -0.2648 -0.3341
 2645TIP3    H129426   1.277   3.429  50.163  0.9443  3.2308 -0.0362
 2645TIP3    H229427   1.143   3.498  50.177 -1.8157 -1.7154  0.0637
 2646TIP3   OH229428   3.159   1.923  46.580  0.8199 -0.1789  0.1659
 2646TIP3    H129429   3.129   1.944  46.491  2.4900  0.0605 -0.3627
 2646TIP3    H229430   3.245   1.883  46.568  1.4596  0.6450  1.7221
 2647TIP3   OH229431   2.286   1.185  54.507 -0.0238  0.2158 -0.4486
 2647TIP3    H129432   2.377   1.195  54.532 -0.6179 -0.6334  2.4066
 2647TIP3    H229433   2.240   1.255  54.554 -1.2403 -1.5754  1.1857
 2648TIP3   OH229434   0.175   1.422  15.040 -0.2487 -0.2852 -0.0009
 2648TIP3    H129435   0.265   1.394  15.027 -0.2496 -0.3638  0.1638
 2648TIP3    H229436   0.122   1.351  15.001 -0.2217  0.8158 -2.2231
 2649TIP3   OH229437   0.521   2.641  49.830  0.4208  0.2665  0.2866
 2649TIP3    H129438   0.546   2.564  49.881 -0.0963  0.1088  0.3065
 2649TIP3    H229439   0.547   2.620  49.741 -0.1240 -0.1281  0.2107
 2650TIP3   OH229440   0.559   2.906  54.888  0.1448 -0.4103 -0.3602
 2650TIP3    H129441   0.554   2.996  54.857 -0.1418 -0.5570 -0.7519
 2650TIP3    H229442   0.640   2.902  54.939  0.1534  0.0680 -0.3347
 2651TIP3   OH229443   2.752   0.399  47.965  0.2339  0.2808 -0.4400
 2651TIP3    H129444   2.680   0.419  47.905 -0.3972 -0.5504  0.0304
 2651TIP3    H229445   2.828   0.441  47.924 -0.5409  1.3572 -0.8307
 2652TIP3   OH229446   3.132   1.854  16.317 -0.3039 -0.0644 -0.3330
 2652TIP3    H129447   3.219   1.821  16.297 -0.1840  0.5289 -0.8340
 2652TIP3    H229448   3.075   1.814  16.251 -0.6420 -1.4790  0.7903
 2653TIP3   OH229449   0.960   0.045  64.157 -0.7155 -0.0739  0.2949
 2653TIP3    H129450   0.880  -0.002  64.182 -1.7084  0.8724 -0.9590
 2653TIP3    H229451   0.928   0.129  64.124  0.7978  0.2204 -0.4934
 2654TIP3   OH229452   2.005   3.430   7.133 -0.3047  0.4468  0.3578
 2654TIP3    H129453   1.982   3.376   7.208  1.6996 -3.6004 -1.6482
 2654TIP3    H229454   1.953   3.395   7.061  2.0879  0.1811 -1.3446
 2655TIP3   OH229455   0.372   2.349  58.160  0.5678 -0.6803  0.5903
 2655TIP3    H129456   0.374   2.435  58.203 -1.2501  0.5219 -1.5462
 2655TIP3    H229457   0.289   2.311  58.188  0.4863 -0.9091  0.0388
 2656TIP3   OH229458   0.902   0.361  48.684 -0.2501  0.2244 -0.7495
 2656TIP3    H129459   0.997   0.352  48.679 -0.3367 -0.7399 -0.7007
 2656TIP3    H229460   0.881   0.344  48.775 -0.5430 -0.3039 -0.9133
 2657TIP3   OH229461   0.208   0.951  58.000 -0.3730  0.1785 -0.0656
 2657TIP3    H129462   0.295   0.914  58.020 -0.8472  0.0467  1.9916
 2657TIP3    H229463   0.151   0.874  57.994 -0.6093  0.3457  0.0487
 2658TIP3   OH229464   2.865   1.588  17.721  0.0026  0.1560 -0.3461
 2658TIP3    H129465   2.860   1.566  17.814 -1.0923  0.3347 -0.3478
 2658TIP3    H229466   2.942   1.541  17.689  1.3705  1.3826  0.9846
 2659TIP3   OH229467   0.664   2.983  51.171  0.7212  0.3414  0.1355
 2659TIP3    H129468   0.677   3.020  51.084 -0.3296 -1.8410 -1.0550
 2659TIP3    H229469   0.622   3.052  51.221  0.4499  1.3222 -1.3879
 2660TIP3   OH229470   2.099   0.277  42.739  0.2290  0.0055 -0.0844
 2660TIP3    H129471   2.181   0.254  42.782 -0.8925 -1.3175  1.4099
 2660TIP3    H229472   2.105   0.235  42.653  1.7705  1.3081 -0.6914
 2661TIP3   OH229473   1.562   3.086  21.826  1.1294 -0.4776  0.3499
 2661TIP3    H129474   1.509   3.039  21.889  0.8736  0.0837  0.5663
 2661TIP3    H229475   1.652   3.058  21.844  0.9421 -1.1550  0.2252
 2662TIP3   OH229476   1.042   1.222  42.810 -0.1197 -0.0690 -0.0028
 2662TIP3    H129477   1.011   1.134  42.788 -1.8872  0.4806  0.1713
 2662TIP3    H229478   1.133   1.209  42.837 -0.5821 -1.9621  0.7995
 2663TIP3   OH229479   1.903   1.020  53.175  0.1529 -0.1446 -0.1133
 2663TIP3    H129480   1.819   0.983  53.147  0.5683 -1.6629  0.5402
 2663TIP3    H229481   1.964   0.998  53.104  0.0102  1.0691 -0.6467
 2664TIP3   OH229482   2.666   3.285  47.274  0.6500 -0.0727 -0.0270
 2664TIP3    H129483   2.741   3.227  47.280  0.7844  0.0479 -0.4920
 2664TIP3    H229484   2.694   3.366  47.316  0.6128 -0.1932  0.2328
 2665TIP3   OH229485   1.907   1.489  10.460 -0.2315  0.3143  0.1058
 2665TIP3    H129486   1.985   1.517  10.507 -1.0258  1.6191  0.6939
 2665TIP3    H229487   1.864   1.428  10.519 -0.2936  0.5460  0.2996
 2666TIP3   OH229488   0.449   1.814  59.810  0.1571 -0.0475  0.3909
 2666TIP3    H129489   0.374   1.833  59.866 -0.0864 -2.0580  0.8176
 2666TIP3    H229490   0.489   1.736  59.849  2.1985  0.7000 -0.1009
 2667TIP3   OH229491   2.162   0.850  58.092 -0.1671  0.3687  0.2172
 2667TIP3    H129492   2.206   0.796  58.158 -2.7569 -1.9020  0.2602
 2667TIP3    H229493   2.105   0.789  58.046 -0.4944  2.4307 -2.3144
 2668TIP3   OH229494   0.525   1.266  43.016 -0.1101  0.4875 -0.1380
 2668TIP3    H129495   0.619   1.257  43.034 -0.3339 -0.5928  0.5330
 2668TIP3    H229496   0.492   1.177  43.012 -1.4107  0.8583  1.2392
 2669TIP3   OH229497   2.572   3.401   9.170  0.3898  0.2271 -0.2603
 2669TIP3    H129498   2.569   3.419   9.076 -0.0502  0.3621 -0.2234
 2669TIP3    H229499   2.605   3.482   9.209  1.1159 -0.0221 -0.3457
 2670TIP3   OH229500   3.152   3.267  63.683 -0.1331 -0.0246 -0.3494
 2670TIP3    H129501   3.113   3.293  63.600 -0.2968 -0.5617 -0.4412
 2670TIP3    H229502   3.119   3.179  63.699  0.1413 -0.0438  0.1330
 2671TIP3   OH229503   0.032   3.183  11.945 -0.3578 -0.6543  0.1934
 2671TIP3    H129504   0.058   3.091  11.938  0.2351 -0.3670 -2.2571
 2671TIP3    H229505   0.086   3.228  11.880 -0.3073  1.5326  1.6690
 2672TIP3   OH229506   0.902   2.400   0.200  0.3011  0.2075 -0.1654
 2672TIP3    H129507   0.813   2.409   0.167 -0.4895  0.2180  1.8516
 2672TIP3    H229508   0.924   2.487   0.233 -0.3605 -0.6153  2.6355
 2673TIP3   OH229509   2.750   0.507  65.093  0.3185  0.5640  0.4054
 2673TIP3    H129510   2.659   0.492  65.119  1.2534 -3.2911  2.1254
 2673TIP3    H229511   2.755   0.471  65.005  0.4811 -0.7685  0.9404
 2674TIP3   OH229512   0.085   2.299   6.315 -0.2867  0.3875  0.4906
 2674TIP3    H129513   0.166   2.350   6.325  0.2129  0.5813 -3.1658
 2674TIP3    H229514   0.020   2.363   6.286 -0.7414 -0.3281 -0.1128
 2675TIP3   OH229515   1.143   3.156  15.350 -0.1699 -0.3807 -0.2225
 2675TIP3    H129516   1.141   3.176  15.256 -1.4918 -0.2046 -0.1699
 2675TIP3    H229517   1.129   3.240  15.393  1.1201 -0.3435  0.1772
 2676TIP3   OH229518   3.375   3.248  56.382  0.4956  0.5914 -0.1454
 2676TIP3    H129519   3.388   3.169  56.435  0.3413  0.2978 -0.5391
 2676TIP3    H229520   3.454   3.300  56.398  1.3953 -0.3904 -1.1679
 2677TIP3   OH229521   1.162   0.342  59.938 -0.0997 -0.5026 -0.5180
 2677TIP3    H129522   1.216   0.419  59.955  1.6047 -1.4995 -1.1871
 2677TIP3    H229523   1.198   0.273  59.994 -1.5317 -0.8662  0.0010
 2678TIP3   OH229524   1.558   0.803  48.403 -0.0423 -0.1422 -0.5524
 2678TIP3    H129525   1.610   0.808  48.323 -0.2970 -2.7411 -0.9622
 2678TIP3    H229526   1.621   0.779  48.471 -0.1377  0.1802 -0.3493
 2679TIP3   OH229527   2.723   2.927  18.432  0.0924  0.3136 -0.3438
 2679TIP3    H129528   2.652   2.987  18.411  0.3295  0.2864 -1.2620
 2679TIP3    H229529   2.685   2.840  18.426  0.0859  0.3167 -0.3468
 2680TIP3   OH229530   3.097   0.120  56.549  0.3322  0.3675 -0.0384
 2680TIP3    H129531   3.003   0.137  56.537  0.6033  2.4788  0.3994
 2680TIP3    H229532   3.114   0.140  56.641  0.8047 -2.4743  0.6041
 2681TIP3   OH229533   1.414   2.060  12.189 -0.3223  0.4595 -0.1260
 2681TIP3    H129534   1.485   2.004  12.158  0.0463  0.2922  0.9448
 2681TIP3    H229535   1.342   2.043  12.129 -0.1097 -0.9133 -0.0364
 2682TIP3   OH229536   3.247   1.641  60.286 -0.2151 -0.2672  0.0390
 2682TIP3    H129537   3.313   1.663  60.220 -1.8756 -0.4363 -1.7864
 2682TIP3    H229538   3.241   1.545  60.282  2.1828 -0.7054  3.1016
 2683TIP3   OH229539   3.174   2.465  16.084  0.1179 -0.6791 -0.0813
 2683TIP3    H129540   3.123   2.446  16.163 -0.3739 -2.4054 -0.7504
 2683TIP3    H229541   3.263   2.479  16.116 -0.3693  0.3123  0.9145
 2684TIP3   OH229542   0.895   1.548   6.401 -0.7221  0.1409  0.5195
 2684TIP3    H129543   0.941   1.602   6.337 -1.1348  1.2092  1.1013
 2684TIP3    H229544   0.890   1.603   6.480 -2.0002 -0.3741  0.8166
 2685TIP3   OH229545   1.838   2.979   1.202  0.2019 -0.0357  0.1993
 2685TIP3    H129546   1.879   3.006   1.285 -1.0627  1.4491  0.3902
 2685TIP3    H229547   1.842   2.884   1.204  1.9767  0.0121  1.0385
 2686TIP3   OH229548   1.427   1.822  16.200  0.6224 -0.5393 -0.0373
 2686TIP3    H129549   1.431   1.809  16.295 -0.3312  0.2799  0.1366
 2686TIP3    H229550   1.418   1.734  16.164  0.3059 -0.8087  0.6783
 2687TIP3   OH229551   2.453   0.572  49.897  0.8656 -0.2687  0.0090
 2687TIP3    H129552   2.521   0.506  49.882  1.3091  0.1570  0.1133
 2687TIP3    H229553   2.461   0.593  49.990  3.2559  2.6189 -0.7014
 2688TIP3   OH229554   1.997   0.610  58.091 -0.0150 -0.3208 -0.1886
 2688TIP3    H129555   2.020   0.522  58.121  1.1294 -0.1767 -0.5923
 2688TIP3    H229556   1.973   0.657  58.172 -0.3577 -0.9124  0.0589
 2689TIP3   OH229557   3.112   1.030  15.657  0.0015 -0.1681  0.2532
 2689TIP3    H129558   3.048   1.065  15.719  0.2851 -0.5854  0.7931
 2689TIP3    H229559   3.081   0.941  15.640 -0.0280 -0.0823 -0.1444
 2690TIP3   OH229560   0.016   3.384   3.143 -0.0917  0.2895 -0.0830
 2690TIP3    H129561  -0.068   3.364   3.184  0.1109  1.8025  1.1244
 2690TIP3    H229562   0.074   3.405   3.215  1.0550  0.3065 -0.9811
 2691TIP3   OH229563   3.197   2.628  43.853  0.0641 -0.0366  0.0936
 2691TIP3    H129564   3.232   2.702  43.803  0.5309 -0.3114  0.0025
 2691TIP3    H229565   3.263   2.559  43.843 -0.2226 -0.3647  0.4218
 2692TIP3   OH229566   2.271   2.994  17.407 -0.3844 -0.1741 -0.4995
 2692TIP3    H129567   2.176   2.993  17.398 -0.3346  0.3052 -1.1748
 2692TIP3    H229568   2.288   3.052  17.481 -0.6250 -0.5658 -0.1297
 2693TIP3   OH229569   0.349   3.029  44.391  0.1327  0.3067 -0.6878
 2693TIP3    H129570   0.267   3.004  44.434  1.0487 -1.5817  0.0713
 2693TIP3    H229571   0.390   2.946  44.367  2.4682  1.1077  0.2076
 2694TIP3   OH229572   3.079   0.150  18.178  0.1544 -0.4054  0.0409
 2694TIP3    H129573   2.991   0.183  18.197  0.7347  1.3522 -0.0991
 2694TIP3    H229574   3.083   0.065  18.223 -0.5205  0.9250  2.8990
 2695TIP3   OH229575   0.710   1.469  10.198  0.1457 -0.3254 -0.4033
 2695TIP3    H129576   0.634   1.418  10.169 -0.1329 -0.6806  0.9044
 2695TIP3    H229577   0.748   1.418  10.269 -0.8939  1.8199  1.8524
 2696TIP3   OH229578   2.279   1.464  63.411  0.1328  0.1631 -1.0015
 2696TIP3    H129579   2.228   1.479  63.490 -0.5943  1.2964 -1.6562
 2696TIP3    H229580   2.268   1.371  63.393  2.0378 -0.6301  1.3620
 2697TIP3   OH229581   0.071   2.596  48.695  0.2937 -0.1898 -0.0428
 2697TIP3    H129582  -0.020   2.566  48.696 -0.0742  0.8916  0.1757
 2697TIP3    H229583   0.090   2.618  48.786  0.9022 -0.7448 -0.0266
 2698TIP3   OH229584   1.018   0.831  20.015 -0.0661  0.2451 -0.6292
 2698TIP3    H129585   1.018   0.816  20.110 -0.8879 -0.5559 -0.7429
 2698TIP3    H229586   1.020   0.743  19.977  1.2387  0.5712 -1.3725
 2699TIP3   OH229587   3.381   3.379  48.847 -0.4806 -0.1219  0.1532
 2699TIP3    H129588   3.447   3.346  48.908 -0.0020  1.2639  0.4120
 2699TIP3    H229589   3.422   3.453  48.804 -1.5530  0.2123 -0.3364
 2700TIP3   OH229590   0.012   2.433  61.948  0.2630 -0.2662  0.5498
 2700TIP3    H129591  -0.017   2.344  61.964 -1.6747  0.1826 -0.2135
 2700TIP3    H229592  -0.066   2.487  61.960  0.7004  0.9954 -1.6828
 2701TIP3   OH229593   1.678   1.400  47.552 -0.3349 -0.1959  0.1655
 2701TIP3    H129594   1.765   1.439  47.541 -0.0476 -1.0998 -0.9098
 2701TIP3    H229595   1.626   1.438  47.480  0.6841 -3.7142 -2.7408
 2702TIP3   OH229596   2.246   0.331  18.268 -0.1516 -0.6757 -0.4608
 2702TIP3    H129597   2.338   0.325  18.241 -0.8514 -2.1562 -2.8121
 2702TIP3    H229598   2.250   0.349  18.362  2.5392 -1.8925 -0.2475
 2703TIP3   OH229599   3.053   2.751  45.830  0.5580  0.5950 -0.1624
 2703TIP3    H129600   3.013   2.770  45.744  0.8256 -0.1389 -0.4527
 2703TIP3    H229601   3.146   2.738  45.811  0.2112 -2.4526 -0.2538
 2704TIP3   OH229602   2.776   1.168  50.102  0.1731 -0.6146  0.7576
 2704TIP3    H129603   2.761   1.075  50.088  0.3066 -0.5460  0.1423
 2704TIP3    H229604   2.850   1.190  50.045 -0.3088  0.0150  0.3659
 2705TIP3   OH229605   0.741   2.950  56.838 -0.0823  0.0923 -0.2114
 2705TIP3    H129606   0.832   2.927  56.856 -0.4964 -1.9422 -0.4729
 2705TIP3    H229607   0.744   3.042  56.812  1.7666  0.3192  0.6783
 2706TIP3   OH229608   0.899   1.197  13.979  0.1670 -0.3792 -0.0301
 2706TIP3    H129609   0.812   1.178  13.945  0.6363 -1.7380 -0.5361
 2706TIP3    H229610   0.959   1.169  13.910  1.0250  0.5124  0.3214
 2707TIP3   OH229611   2.556   1.633  17.873 -0.3897  0.1301 -0.1385
 2707TIP3    H129612   2.490   1.670  17.931 -0.6388  0.5664 -0.6906
 2707TIP3    H229613   2.638   1.676  17.899 -0.0935 -1.2178  1.2868
 2708TIP3   OH229614   0.494   0.133  14.505  0.6503 -0.0501 -0.0649
 2708TIP3    H129615   0.527   0.222  14.520  1.6337 -0.3571 -0.2789
 2708TIP3    H229616   0.431   0.119  14.575  1.0261  0.5594  0.4155
 2709TIP3   OH229617   1.188   1.645   9.219  0.4441 -0.0049  0.0238
 2709TIP3    H129618   1.217   1.684   9.137 -0.3613  1.6987  0.4953
 2709TIP3    H229619   1.268   1.615   9.261  1.1070  1.0734 -0.4265
 2710TIP3   OH229620   0.405   1.395  43.362 -0.0371 -0.0514  0.0618
 2710TIP3    H129621   0.436   1.305  43.367  1.0516  0.3503  1.1496
 2710TIP3    H229622   0.485   1.448  43.368 -0.6232  0.9924 -0.8726
 2711TIP3   OH229623   1.458   0.058  56.537  0.5419 -0.3595 -0.0217
 2711TIP3    H129624   1.488   0.073  56.627  0.9932 -1.4194  0.0199
 2711TIP3    H229625   1.396  -0.015  56.545  1.1208 -0.9302 -0.6590
 2712TIP3   OH229626   1.923   1.958  42.819  0.2720  0.3240 -0.2634
 2712TIP3    H129627   1.838   1.942  42.860  0.9867 -0.2695  1.0621
 2712TIP3    H229628   1.902   1.998  42.734 -1.3536 -1.0680 -0.5594
 2713TIP3   OH229629   3.074   3.433  13.053  0.4361 -0.1162 -0.1973
 2713TIP3    H129630   3.000   3.381  13.085  2.4922 -1.6527  2.4835
 2713TIP3    H229631   3.131   3.369  13.010  1.2980  0.5884 -0.1210
 2714TIP3   OH229632   2.755   0.246  54.316  0.0819  0.1327 -0.1273
 2714TIP3    H129633   2.731   0.338  54.304  0.4193  0.2159 -0.1754
 2714TIP3    H229634   2.839   0.249  54.361 -0.7591 -0.1765  1.5088
 2715TIP3   OH229635   2.734   0.290  46.966 -0.6353 -0.0636  0.1025
 2715TIP3    H129636   2.828   0.295  46.981 -0.7255  1.2825  0.3520
 2715TIP3    H229637   2.725   0.243  46.883  0.1571 -1.6348  0.8473
 2716TIP3   OH229638   0.121   0.692  49.567 -0.0267  0.4391 -0.3380
 2716TIP3    H129639   0.111   0.724  49.657 -3.0716 -1.8703  0.2910
 2716TIP3    H229640   0.114   0.771  49.513 -0.0681  1.6513  1.3432
 2717TIP3   OH229641   1.528   2.550  62.759 -0.1890  0.3742  0.0333
 2717TIP3    H129642   1.594   2.581  62.698 -0.1901 -3.4422 -2.2288
 2717TIP3    H229643   1.446   2.549  62.708 -0.5404 -1.2964  0.5575
 2718TIP3   OH229644   1.481   0.772  50.731  0.0895  0.1510 -0.3848
 2718TIP3    H129645   1.496   0.696  50.675  0.8257  0.5672 -0.7607
 2718TIP3    H229646   1.469   0.845  50.671 -1.3299  0.2340 -0.0456
 2719TIP3   OH229647   0.971   0.565  49.972 -0.7254 -0.0811 -0.6989
 2719TIP3    H129648   1.015   0.552  50.056 -0.6573  1.9556 -0.3734
 2719TIP3    H229649   1.023   0.515  49.910  0.7067  0.3876  0.0680
 2720TIP3   OH229650   3.105   1.478  51.560 -0.8096  0.4015 -0.3215
 2720TIP3    H129651   3.187   1.524  51.582 -0.6788 -0.1964  0.5054
 2720TIP3    H229652   3.051   1.544  51.519 -0.1365  0.9707 -0.3187
 2721TIP3   OH229653   1.512   3.365  50.486 -0.1981 -0.5381 -0.3253
 2721TIP3    H129654   1.422   3.399  50.479 -0.0870 -0.5102 -1.7552
 2721TIP3    H229655   1.509   3.280  50.443  0.0228 -1.4450  1.3823
 2722TIP3   OH229656   2.763   0.848  11.375 -0.0857  0.1853 -0.8602
 2722TIP3    H129657   2.683   0.836  11.425 -0.9548 -0.5797 -2.3653
 2722TIP3    H229658   2.823   0.781  11.408 -0.1297  0.6114  0.1110
 2723TIP3   OH229659   2.014   2.165   9.367  0.4488 -0.0337  0.7147
 2723TIP3    H129660   2.052   2.190   9.283 -0.0754  1.6636  0.9522
 2723TIP3    H229661   1.987   2.074   9.355 -1.3456  0.7369 -1.5929
 2724TIP3   OH229662   2.764   3.045  10.225  0.0474 -0.1190  0.4507
 2724TIP3    H129663   2.735   3.117  10.282  1.9640 -1.1063  2.8140
 2724TIP3    H229664   2.685   3.020  10.178 -1.3030  1.7594  1.5375
 2725TIP3   OH229665   2.417   3.251  61.540  0.4847 -0.1408  0.0171
 2725TIP3    H129666   2.379   3.266  61.626  0.4011  2.3247 -0.3697
 2725TIP3    H229667   2.345   3.217  61.487 -0.2816  1.1290  0.2013
 2726TIP3   OH229668   1.899   0.490  55.363  0.0517  0.6552  0.1562
 2726TIP3    H129669   1.990   0.518  55.355 -0.3101  1.7751 -0.1693
 2726TIP3    H229670   1.878   0.504  55.456 -0.2793  1.9886 -0.1049
 2727TIP3   OH229671   3.119   2.764  43.039 -0.4925  0.1023 -0.4014
 2727TIP3    H129672   3.083   2.842  42.997  0.2393  0.4393 -0.4071
 2727TIP3    H229673   3.079   2.762  43.126 -0.4257  0.5463 -0.3585
 2728TIP3   OH229674   2.508   1.561  66.397  0.3286 -0.0779  0.0613
 2728TIP3    H129675   2.470   1.637  66.354 -0.0028  0.2548  0.9340
 2728TIP3    H229676   2.460   1.487  66.359  1.9285 -0.0808 -2.2072
 2729TIP3   OH229677   0.120   2.211  60.798 -0.1694  0.4605 -0.0309
 2729TIP3    H129678   0.051   2.229  60.862  0.3987 -0.5410  0.9097
 2729TIP3    H229679   0.077   2.159  60.730 -0.5625  0.7084  0.0237
 2730TIP3   OH229680   1.989   1.709  21.982 -0.0306 -0.6124  0.3783
 2730TIP3    H129681   2.070   1.719  21.932 -0.0346  0.0790  0.4920
 2730TIP3    H229682   2.002   1.765  22.059 -2.0300  2.4751 -1.3509
 2731TIP3   OH229683   2.730   0.325   7.989  0.1989 -0.1029 -0.3908
 2731TIP3    H129684   2.663   0.291   8.048  0.9040 -1.2693 -0.2209
 2731TIP3    H229685   2.776   0.392   8.040 -0.5754  0.4317 -0.3795
 2732TIP3   OH229686   2.861   2.968  62.155 -0.4677  0.4845  0.4897
 2732TIP3    H129687   2.905   3.048  62.124 -0.4482  0.0368 -0.6626
 2732TIP3    H229688   2.932   2.904  62.165 -0.5373  0.4843  1.0513
 2733TIP3   OH229689   3.431   0.726  51.489 -0.4466  1.1088  0.5351
 2733TIP3    H129690   3.423   0.821  51.493 -1.9217  1.1118 -1.2104
 2733TIP3    H229691   3.378   0.700  51.414  2.4855 -0.8262 -1.0647
 2734TIP3   OH229692   3.167   0.663  41.816  0.2658 -0.0947  0.0538
 2734TIP3    H129693   3.119   0.618  41.885 -1.4888  4.9209  2.6023
 2734TIP3    H229694   3.100   0.696  41.757  1.2421  0.7822 -0.6091
 2735TIP3   OH229695   1.582   3.227  62.258 -0.0545  0.6421 -0.5025
 2735TIP3    H129696   1.537   3.156  62.212 -0.6354 -0.1115  1.1478
 2735TIP3    H229697   1.550   3.307  62.215 -0.8215 -0.0031 -1.1679
 2736TIP3   OH229698   1.402   2.758  17.314 -0.0338 -0.5665  0.0814
 2736TIP3    H129699   1.434   2.793  17.230 -1.5677  0.8015  0.0200
 2736TIP3    H229700   1.395   2.664  17.299 -2.7072 -0.1293 -2.2717
 2737TIP3   OH229701   1.104   2.309  18.935  0.2567  0.2793  0.3625
 2737TIP3    H129702   1.040   2.272  18.995  2.2950 -2.0143  1.2634
 2737TIP3    H229703   1.077   2.279  18.848 -0.4866  0.2742  0.5921
 2738TIP3   OH229704   0.323   2.484  13.938  0.6584  0.5329  0.7225
 2738TIP3    H129705   0.411   2.445  13.940  1.7690  2.8536  0.3957
 2738TIP3    H229706   0.312   2.513  13.848 -0.7736 -0.3155  0.5898
 2739TIP3   OH229707   0.342   2.239  15.063 -0.1394 -0.4069  0.2617
 2739TIP3    H129708   0.344   2.145  15.050  0.0573 -0.4806  0.8067
 2739TIP3    H229709   0.431   2.269  15.044  0.1267 -0.5029  1.2914
 2740TIP3   OH229710   0.572   1.754  18.644  0.3513 -0.0087  0.2352
 2740TIP3    H129711   0.548   1.780  18.733 -1.0242 -1.2292  0.2708
 2740TIP3    H229712   0.489   1.751  18.597  0.7758 -1.4757 -0.4852
 2741TIP3   OH229713   1.490   0.506   9.996  1.1897  0.4772  0.3536
 2741TIP3    H129714   1.452   0.423   9.967 -0.3370  0.8769  1.1120
 2741TIP3    H229715   1.534   0.484  10.078  2.4646  0.0557 -0.4173
 2742TIP3   OH229716   2.661   0.849  12.204 -0.1126 -0.2769 -0.2993
 2742TIP3    H129717   2.676   0.940  12.178  0.6091 -1.1355 -3.2671
 2742TIP3    H229718   2.737   0.827  12.258  1.2880  0.0766 -2.0246
 2743TIP3   OH229719   2.391   3.048  51.327  0.3547 -0.0365  0.3324
 2743TIP3    H129720   2.484   3.039  51.308  0.3105 -1.3756  0.7135
 2743TIP3    H229721   2.374   2.987  51.399 -0.9888 -0.4626 -0.3060
 2744TIP3   OH229722   1.738   2.089   5.181 -0.6394  1.1121 -0.8674
 2744TIP3    H129723   1.779   2.128   5.258  0.1960  0.2713 -0.8584
 2744TIP3    H229724   1.658   2.140   5.167 -0.9361  1.1176  0.7009
 2745TIP3   OH229725   1.337   0.735   3.544  0.5496 -0.5887 -0.4162
 2745TIP3    H129726   1.397   0.704   3.476  1.9449  1.2621 -0.1348
 2745TIP3    H229727   1.354   0.678   3.619  1.7599 -0.3134 -0.4547
 2746TIP3   OH229728   2.369   2.436  20.474 -0.7413 -0.1762 -0.0252
 2746TIP3    H129729   2.413   2.513  20.512 -0.8334  0.3791 -1.0028
 2746TIP3    H229730   2.393   2.364  20.532 -0.0677  0.4618  0.5190
 2747TIP3   OH229731   3.285   0.486   0.996 -0.5151 -0.2300  0.3829
 2747TIP3    H129732   3.337   0.427   1.051 -0.9401 -1.1398 -0.1727
 2747TIP3    H229733   3.200   0.443   0.989  0.1689 -1.3209 -2.8225
 2748TIP3   OH229734   2.723   1.598  63.722 -0.3594 -0.5332  0.3279
 2748TIP3    H129735   2.801   1.653  63.735  0.6132 -1.1928 -2.1697
 2748TIP3    H229736   2.650   1.656  63.740  0.6704  0.9884 -0.1679
 2749TIP3   OH229737   2.721   2.157  59.051 -0.2597  0.6781  0.5351
 2749TIP3    H129738   2.815   2.171  59.063  0.5697 -1.8502 -1.7823
 2749TIP3    H229739   2.695   2.104  59.127  0.8112 -0.6425  0.0266
 2750TIP3   OH229740   1.034   2.174  53.933 -0.3528  0.4969 -0.5293
 2750TIP3    H129741   1.042   2.080  53.943 -0.4207  0.1872 -2.8457
 2750TIP3    H229742   1.122   2.208  53.952  0.1553 -0.2497 -1.4538
 2751TIP3   OH229743   1.346   3.134  12.931 -0.9008 -0.5005  0.3653
 2751TIP3    H129744   1.422   3.173  12.974 -0.6002 -0.5873 -0.0894
 2751TIP3    H229745   1.271   3.167  12.982 -0.6665  0.7798 -0.0756
 2752TIP3   OH229746   2.430   1.907  65.330  0.1305  0.3937 -0.0902
 2752TIP3    H129747   2.335   1.896  65.340 -0.0952  0.4854 -1.8939
 2752TIP3    H229748   2.450   1.986  65.382 -0.7880  0.4329  0.2322
 2753TIP3   OH229749   0.951   0.295  45.203  0.3389 -0.3075  0.0738
 2753TIP3    H129750   0.930   0.380  45.243  1.8033  0.5953 -0.9935
 2753TIP3    H229751   0.922   0.304  45.112 -1.5479 -1.7977  0.4537
 2754TIP3   OH229752   0.258   2.907  42.139 -0.2839  0.1790 -0.0164
 2754TIP3    H129753   0.167   2.924  42.113 -0.6474 -0.3426  0.8731
 2754TIP3    H229754   0.307   2.983  42.106 -1.0298  0.4401 -0.5531
 2755TIP3   OH229755   2.440   0.654  54.541  0.5293  0.0789  0.3382
 2755TIP3    H129756   2.388   0.676  54.618  0.0316  0.7164 -0.1638
 2755TIP3    H229757   2.414   0.719  54.476  0.2565 -1.0073 -0.6676
 2756TIP3   OH229758   3.308   2.135   8.337  0.3244 -0.1439 -0.1307
 2756TIP3    H129759   3.351   2.133   8.422  0.0967  0.5615  0.0059
 2756TIP3    H229760   3.373   2.174   8.278  0.5346 -0.7644 -0.3118
 2757TIP3   OH229761   2.718   1.434  64.023  0.3504  0.5858 -0.0052
 2757TIP3    H129762   2.713   1.403  63.933  0.2510  0.2022  0.1326
 2757TIP3    H229763   2.726   1.529  64.016  1.1978  0.4889 -0.4425
 2758TIP3   OH229764   3.344   2.099  63.021  0.0420 -0.3758 -0.0254
 2758TIP3    H129765   3.263   2.148  63.007  0.7968  0.6801 -0.8112
 2758TIP3    H229766   3.389   2.103  62.937  1.7555  0.6285  0.8995
 2759TIP3   OH229767   1.122   0.588  44.937 -0.7793  0.0525 -0.2352
 2759TIP3    H129768   1.117   0.669  44.988 -0.9827 -0.0742 -0.0520
 2759TIP3    H229769   1.200   0.545  44.970 -0.9772 -0.0859  0.0583
 2760TIP3   OH229770   2.608   0.350  60.131  0.8190  0.5251 -0.0194
 2760TIP3    H129771   2.621   0.349  60.036  1.4631  0.8899  0.0562
 2760TIP3    H229772   2.672   0.287  60.165 -1.1476 -1.6000  0.0087
 2761TIP3   OH229773   2.306   2.716  56.739 -0.0088  0.1514 -0.1723
 2761TIP3    H129774   2.297   2.643  56.801 -1.3843  1.7888  1.6713
 2761TIP3    H229775   2.245   2.782  56.771  1.1316  2.1108 -1.8336
 2762TIP3   OH229776   1.226   2.227   3.513  0.4024 -0.0404  0.2700
 2762TIP3    H129777   1.250   2.140   3.480  2.9061  0.2179  1.1929
 2762TIP3    H229778   1.200   2.212   3.604 -0.5241  0.0306  0.0272
 2763TIP3   OH229779   0.330   0.333  59.775  0.3741  0.3870  0.5989
 2763TIP3    H129780   0.299   0.261  59.830  1.7006 -0.3341  0.4417
 2763TIP3    H229781   0.271   0.406  59.796 -1.7491 -1.0251 -0.0868
 2764TIP3   OH229782   1.302   2.982  42.204  0.4084 -0.5286  0.5371
 2764TIP3    H129783   1.332   2.989  42.114 -0.2964  0.7275  0.3752
 2764TIP3    H229784   1.208   2.996  42.199  0.6319  1.9018  1.6830
 2765TIP3   OH229785   2.283   0.932  13.910  0.8771 -0.0468  0.0505
 2765TIP3    H129786   2.271   1.023  13.937  0.1058 -0.5675  1.6056
 2765TIP3    H229787   2.377   0.917  13.919  1.2952  1.0895 -2.0016
 2766TIP3   OH229788   3.223   2.012  18.034 -0.5168  0.4252 -0.5648
 2766TIP3    H129789   3.179   2.028  18.118 -1.2622  0.1565 -0.8968
 2766TIP3    H229790   3.173   2.063  17.971  0.2636  0.9238 -0.8016
 2767TIP3   OH229791   2.272   2.845  12.031  0.1629  0.6422 -0.0060
 2767TIP3    H129792   2.292   2.844  11.938 -0.2001 -1.3538 -0.0997
 2767TIP3    H229793   2.279   2.753  12.059  2.5904  1.4378  2.4644
 2768TIP3   OH229794   1.712   3.367  45.133 -0.2626 -0.0907 -0.6408
 2768TIP3    H129795   1.737   3.278  45.107 -1.3239 -0.3903 -0.6602
 2768TIP3    H229796   1.794   3.406  45.163  0.4429 -0.6844 -1.7141
 2769TIP3   OH229797   3.356   3.420  14.065  0.1491  0.1515 -0.4743
 2769TIP3    H129798   3.417   3.423  13.991  0.7658  1.5311  0.0558
 2769TIP3    H229799   3.376   3.499  14.116 -1.5831  0.2470  0.1240
 2770TIP3   OH229800   2.082   2.203  11.630 -0.3129  0.2494 -0.4786
 2770TIP3    H129801   1.997   2.188  11.672 -0.6771  0.1596 -1.2294
 2770TIP3    H229802   2.064   2.198  11.537  0.3778  0.9884 -0.6706
 2771TIP3   OH229803   1.526   2.899   2.052 -0.0160  0.5802  0.3017
 2771TIP3    H129804   1.594   2.833   2.050 -1.6455 -1.2463  1.3711
 2771TIP3    H229805   1.552   2.958   2.123 -0.5303 -1.3469  2.2172
 2772TIP3   OH229806   0.215   0.440  20.002 -0.5405  0.0015  0.6888
 2772TIP3    H129807   0.253   0.372  19.946 -0.4214 -0.0429  0.8218
 2772TIP3    H229808   0.140   0.474  19.953  0.7401  1.3753 -0.4189
 2773TIP3   OH229809   1.148   2.166  14.289  0.1905 -0.1697 -0.3440
 2773TIP3    H129810   1.111   2.210  14.366  0.3938 -0.9097  0.1861
 2773TIP3    H229811   1.202   2.233  14.247  0.1472  0.2201  0.2047
 2774TIP3   OH229812   0.519   2.894  55.578 -0.9514 -0.0570 -0.3806
 2774TIP3    H129813   0.589   2.870  55.517 -0.7971  0.3098 -0.3493
 2774TIP3    H229814   0.453   2.826  55.566  0.3408 -1.6815  1.1653
 2775TIP3   OH229815   1.106   2.722  18.894  0.0346  0.4005 -0.1170
 2775TIP3    H129816   1.188   2.676  18.877  0.7680  0.3534  2.9032
 2775TIP3    H229817   1.132   2.814  18.906 -0.5188  0.5802 -0.2770
 2776TIP3   OH229818   0.007   1.346  60.713  0.2441 -0.2036  0.1308
 2776TIP3    H129819  -0.037   1.379  60.791 -1.2755 -0.2925 -0.6430
 2776TIP3    H229820  -0.042   1.267  60.689  0.2462  0.1888 -1.2618
 2777TIP3   OH229821   1.755   0.388   4.706  0.2415  0.5696 -0.1283
 2777TIP3    H129822   1.694   0.351   4.643  1.3563 -0.4925 -0.6112
 2777TIP3    H229823   1.804   0.454   4.657  0.4222  0.4444 -0.1200
 2778TIP3   OH229824   0.992   1.004  49.241 -0.2263  0.2279  0.3624
 2778TIP3    H129825   1.074   1.045  49.271  0.5526 -1.0878  0.1026
 2778TIP3    H229826   0.962   0.954  49.317  0.1807 -0.7246 -0.0813
 2779TIP3   OH229827   2.257   0.163  11.373  0.6619 -0.0097 -0.1022
 2779TIP3    H129828   2.297   0.077  11.360 -0.5861 -0.6079 -0.1098
 2779TIP3    H229829   2.267   0.180  11.467  0.4754 -0.3823 -0.0139
 2780TIP3   OH229830   3.090   0.899  29.102  0.1202 -0.3327 -0.0281
 2780TIP3    H129831   3.029   0.831  29.076 -1.7245  1.2416 -0.0415
 2780TIP3    H229832   3.083   0.965  29.033  1.2952  0.2329  0.3607
 2781TIP3   OH229833   2.180   0.970  61.658 -0.4559  0.3694 -0.3668
 2781TIP3    H129834   2.182   0.976  61.753 -0.5768  2.0650 -0.4287
 2781TIP3    H229835   2.095   0.931  61.638 -0.9700  1.1568  0.2146
 2782TIP3   OH229836   3.105   1.634  18.943  0.0949 -0.0032  0.0305
 2782TIP3    H129837   3.039   1.704  18.953 -0.3456 -0.3828 -0.1639
 2782TIP3    H229838   3.143   1.624  19.030  0.1103  0.4341  0.0771
 2783TIP3   OH229839   1.155   0.868  56.629 -1.1323 -0.8894  0.1935
 2783TIP3    H129840   1.207   0.808  56.683  1.2031  0.3849 -0.5027
 2783TIP3    H229841   1.180   0.847  56.539 -0.7662  0.6410 -0.0896
 2784TIP3   OH229842   1.440   0.262  44.935 -0.8646  0.1950 -0.8414
 2784TIP3    H129843   1.378   0.268  45.007  1.6157  1.1695  1.3430
 2784TIP3    H229844   1.454   0.353  44.908 -1.7523 -0.1456 -2.6504
 2785TIP3   OH229845   3.005   2.424  15.854  0.5714  0.0482  0.0298
 2785TIP3    H129846   3.090   2.412  15.898  0.7815  0.6728 -0.1927
 2785TIP3    H229847   2.957   2.484  15.912  0.8760  0.9313 -0.6167
 2786TIP3   OH229848   1.543   2.583  50.108 -0.1007  0.3273  0.0805
 2786TIP3    H129849   1.575   2.673  50.113  2.1150 -0.3550 -0.6090
 2786TIP3    H229850   1.594   2.536  50.174  0.2048 -0.7676 -0.9000
 2787TIP3   OH229851   1.674   2.151  64.954 -0.0472  0.6648 -0.5083
 2787TIP3    H129852   1.735   2.224  64.966 -0.8167  1.2563 -0.1244
 2787TIP3    H229853   1.628   2.145  65.038  0.9480 -1.1570 -0.0476
 2788TIP3   OH229854   2.154   1.958  56.740  0.3875 -0.0098  0.7150
 2788TIP3    H129855   2.158   1.912  56.824  1.3651 -0.4148  0.4595
 2788TIP3    H229856   2.231   2.014  56.740 -0.6511  1.4624  0.9041
 2789TIP3   OH229857   2.107   0.034  53.320  0.4023  0.0165 -0.5836
 2789TIP3    H129858   2.086   0.126  53.306  0.3357  0.1172  0.1424
 2789TIP3    H229859   2.203   0.031  53.321  0.4667 -0.2617 -2.7114
 2790TIP3   OH229860   0.121   2.292  51.764 -0.3725 -0.1452  0.6021
 2790TIP3    H129861   0.217   2.291  51.770 -0.3886  2.3970  2.7874
 2790TIP3    H229862   0.103   2.343  51.685  0.0288 -0.8820  0.0157
 2791TIP3   OH229863   0.559   2.882  49.165 -0.2896  0.1816  0.1216
 2791TIP3    H129864   0.518   2.803  49.129 -0.2394  0.8847 -1.5935
 2791TIP3    H229865   0.582   2.859  49.255  1.4152 -2.3921 -0.8791
 2792TIP3   OH229866   0.812   2.172  58.678 -0.4561 -0.0161  0.4443
 2792TIP3    H129867   0.840   2.253  58.636  1.5252 -0.3573  0.9983
 2792TIP3    H229868   0.750   2.132  58.617  1.9369 -0.2714 -2.0012
 2793TIP3   OH229869   2.022   2.795  16.115 -0.2731  0.0821 -0.7159
 2793TIP3    H129870   2.117   2.791  16.124 -0.2958 -0.3439 -0.6449
 2793TIP3    H229871   1.998   2.711  16.077 -0.5802  0.3677 -1.1547
 2794TIP3   OH229872   0.711   2.308  21.152 -0.1921 -0.1638 -0.2947
 2794TIP3    H129873   0.632   2.344  21.194  0.4293  0.9870 -0.0775
 2794TIP3    H229874   0.715   2.218  21.183 -1.0740 -0.0475  0.2063
 2795TIP3   OH229875   0.139   0.555  65.690 -0.4612 -0.5130  0.1447
 2795TIP3    H129876   0.110   0.576  65.601 -0.1086 -0.2908  0.0797
 2795TIP3    H229877   0.228   0.524  65.680  0.3891  1.5924  0.6187
 2796TIP3   OH229878   1.094   0.029   1.641 -0.1646 -0.1293  0.0867
 2796TIP3    H129879   1.077   0.089   1.713  1.1744 -0.3768  0.6525
 2796TIP3    H229880   1.082  -0.058   1.679 -1.5597 -0.2470 -0.5816
 2797TIP3   OH229881   0.239   0.567   8.488 -0.5963  0.0315 -0.1364
 2797TIP3    H129882   0.330   0.580   8.463  0.2928 -0.7457  2.4021
 2797TIP3    H229883   0.241   0.554   8.582 -3.1723 -1.4893 -0.1802
 2798TIP3   OH229884   3.364   1.049  18.521  0.2357 -0.0892 -0.8006
 2798TIP3    H129885   3.437   1.109  18.533 -0.9888  1.3714 -0.2676
 2798TIP3    H229886   3.403   0.962  18.520  1.8351  0.5656  0.8137
 2799TIP3   OH229887   1.127   2.413  66.811 -0.0361  0.8988 -0.4749
 2799TIP3    H129888   1.105   2.340  66.752  0.9128  1.0117 -0.9950
 2799TIP3    H229889   1.088   2.389  66.895  1.3496 -0.8557 -0.2813
 2800TIP3   OH229890   0.202   0.124  57.625 -0.2029 -0.0201  0.0592
 2800TIP3    H129891   0.213   0.089  57.714 -1.8579 -2.0090 -0.4672
 2800TIP3    H229892   0.244   0.059  57.569  0.9382  1.2865 -0.6557
 2801TIP3   OH229893   0.507   2.604  14.380 -0.0258  1.1443 -0.4297
 2801TIP3    H129894   0.513   2.688  14.427 -0.9091  0.4087  1.0631
 2801TIP3    H229895   0.452   2.623  14.304  0.9154  2.2201 -0.8716
 2802TIP3   OH229896   3.097   0.351  57.740  0.1176 -0.0903 -0.5158
 2802TIP3    H129897   3.065   0.437  57.766 -1.2708 -0.9630  0.9320
 2802TIP3    H229898   3.173   0.368  57.685  1.5370  2.0249  1.8746
 2803TIP3   OH229899   1.773   1.067  54.698 -0.2558 -0.1050  0.2392
 2803TIP3    H129900   1.860   1.036  54.724  0.1478  0.2022 -0.7062
 2803TIP3    H229901   1.728   0.989  54.664  0.4579  0.1270 -1.3415
 2804TIP3   OH229902   2.697   1.347  64.591  0.2778  0.0310  0.6888
 2804TIP3    H129903   2.602   1.346  64.604  0.3064  0.3395  0.9265
 2804TIP3    H229904   2.711   1.413  64.523  0.4276  0.8853  1.5293
 2805TIP3   OH229905   1.346   0.130  52.656  0.1820  0.0207 -0.0031
 2805TIP3    H129906   1.387   0.215  52.644  1.2058 -0.4156  0.2555
 2805TIP3    H229907   1.257   0.149  52.685 -0.1121  1.0044 -1.5010
 2806TIP3   OH229908   0.506   2.266  49.029 -0.5379  0.3973  0.0594
 2806TIP3    H129909   0.514   2.171  49.018  1.2469  0.3724  1.0776
 2806TIP3    H229910   0.503   2.300  48.940  0.1341 -0.5465 -0.3474
 2807TIP3   OH229911   0.497   3.094  16.033  0.2769  0.1119 -0.5520
 2807TIP3    H129912   0.530   3.066  16.118  0.0959 -0.2584 -0.6019
 2807TIP3    H229913   0.501   3.189  16.036 -0.1552  0.1190  0.0406
 2808TIP3   OH229914   0.835   2.264  51.012  0.2633 -0.3681  0.5501
 2808TIP3    H129915   0.843   2.341  50.955  0.6664  0.6363  1.9248
 2808TIP3    H229916   0.908   2.272  51.074 -1.2763 -0.3546  2.4563
 2809TIP3   OH229917   3.372   2.153  67.280  0.1615 -0.3898 -0.5936
 2809TIP3    H129918   3.333   2.113  67.358  0.0644 -0.7857 -0.8440
 2809TIP3    H229919   3.301   2.156  67.216 -1.2072  4.1669  0.7425
 2810TIP3   OH229920   1.169   2.260  46.082 -0.1489  0.9278 -0.4213
 2810TIP3    H129921   1.209   2.241  45.997  0.1505 -1.1386  0.1169
 2810TIP3    H229922   1.238   2.242  46.146 -1.5175 -1.7162  0.4590
 2811TIP3   OH229923   1.496   2.004   6.809 -0.1690 -0.6335 -0.4096
 2811TIP3    H129924   1.403   2.018   6.791 -0.6059 -0.4112  1.6762
 2811TIP3    H229925   1.506   1.909   6.806 -0.6178 -0.6998 -0.0510
 2812TIP3   OH229926   1.498   0.996   2.352 -0.3380  0.0466 -0.3156
 2812TIP3    H129927   1.498   0.954   2.266  0.1391  0.1932 -0.3937
 2812TIP3    H229928   1.492   0.923   2.414 -1.4050 -0.0124 -0.4832
 2813TIP3   OH229929   3.241   2.953  46.932  0.0993  0.5769  0.3469
 2813TIP3    H129930   3.227   3.000  46.850  0.1702  0.0124  0.0124
 2813TIP3    H229931   3.160   2.904  46.945  1.1274 -1.5385 -0.8355
 2814TIP3   OH229932   1.897   0.891   5.082  0.7884  0.3425  0.8934
 2814TIP3    H129933   1.984   0.896   5.121  1.5551 -0.6051 -0.5994
 2814TIP3    H229934   1.911   0.911   4.990 -0.5314 -0.1099  0.5704
 2815TIP3   OH229935   1.418   2.659   8.060 -0.5081  0.2109  0.1804
 2815TIP3    H129936   1.347   2.654   8.124 -0.7536  0.6770 -0.0500
 2815TIP3    H229937   1.448   2.569   8.050  1.0060  0.3641  2.6039
 2816TIP3   OH229938   2.230   0.175  12.711  1.1148 -0.2784 -0.1012
 2816TIP3    H129939   2.169   0.196  12.783  1.1951 -2.1221  0.5558
 2816TIP3    H229940   2.291   0.248  12.710  0.8492  0.0034  1.4318
 2817TIP3   OH229941   3.236   2.042  56.386 -0.2241  0.5797 -0.3723
 2817TIP3    H129942   3.145   2.021  56.363 -0.1601  1.4396 -1.4775
 2817TIP3    H229943   3.239   2.138  56.387 -0.1115  0.6665  2.9149
 2818TIP3   OH229944   3.289   3.025  20.565 -0.0805  0.3591 -0.2458
 2818TIP3    H129945   3.258   3.044  20.653 -0.8093  0.4421 -0.5120
 2818TIP3    H229946   3.214   2.987  20.520  0.3411  0.1272 -0.7735
 2819TIP3   OH229947   3.432   0.369   6.208  0.5883 -0.1110  0.3823
 2819TIP3    H129948   3.338   0.384   6.219  0.6752  0.2879  0.5904
 2819TIP3    H229949   3.474   0.448   6.243  0.9676  0.1285 -0.5803
 2820TIP3   OH229950   0.728   3.206  12.517  0.0377  0.1335  0.0200
 2820TIP3    H129951   0.673   3.146  12.567 -0.9962  1.3515  0.3846
 2820TIP3    H229952   0.673   3.283  12.501  1.5704  1.3465  0.2626
 2821TIP3   OH229953   3.151   1.821   6.320  0.4265 -0.2388  0.6097
 2821TIP3    H129954   3.099   1.902   6.316 -3.2612 -2.4284 -0.6190
 2821TIP3    H229955   3.228   1.840   6.266 -0.2251  2.4312  0.4453
 2822TIP3   OH229956   0.111   1.359  16.481 -0.5199  0.3503 -0.1289
 2822TIP3    H129957   0.128   1.353  16.387 -0.7731  0.9930 -0.2191
 2822TIP3    H229958   0.180   1.307  16.521  0.6451  1.5072 -0.5818
 2823TIP3   OH229959   2.524   1.563   0.566  0.1443 -0.0383  0.2174
 2823TIP3    H129960   2.433   1.592   0.569  0.0034  0.3488 -3.1507
 2823TIP3    H229961   2.574   1.643   0.550  0.5168 -0.6344 -2.0744
 2824TIP3   OH229962   2.596   1.513  47.255 -0.0328  0.2606  0.5038
 2824TIP3    H129963   2.632   1.575  47.192  1.2587 -1.5156 -0.6298
 2824TIP3    H229964   2.522   1.559  47.295  0.6395  2.3549 -0.5109
 2825TIP3   OH229965   2.354   2.375   2.549 -0.4383  0.3901  0.1297
 2825TIP3    H129966   2.417   2.366   2.478 -1.0334  0.1366 -0.3846
 2825TIP3    H229967   2.273   2.340   2.513 -1.0562  1.3553  0.5350
 2826TIP3   OH229968   0.989   2.850  45.464  0.8030  0.0183  0.3526
 2826TIP3    H129969   0.952   2.842  45.376 -1.0536  0.0542  1.0947
 2826TIP3    H229970   0.986   2.943  45.483 -0.2201 -0.1362  1.0153
 2827TIP3   OH229971   0.809   3.440  18.505 -0.1212  0.3360 -0.2998
 2827TIP3    H129972   0.720   3.406  18.495 -0.4492  0.7504  0.9931
 2827TIP3    H229973   0.821   3.499  18.430 -0.8399  0.0793 -0.6249
 2828TIP3   OH229974   1.175   1.169  66.317  0.4168  0.7299 -0.6414
 2828TIP3    H129975   1.223   1.251  66.325 -0.3008  1.0365  1.2657
 2828TIP3    H229976   1.100   1.180  66.376  0.5819 -1.4729  0.0654
 2829TIP3   OH229977   2.092   2.641  43.257 -0.5821 -0.0437 -0.5811
 2829TIP3    H129978   2.109   2.628  43.164 -0.4939 -1.0672 -0.4357
 2829TIP3    H229979   2.178   2.632  43.299 -0.1516  2.9341 -0.5998
 2830TIP3   OH229980   3.216   1.903   8.755 -0.9259 -0.2548  0.0276
 2830TIP3    H129981   3.121   1.914   8.761 -0.7852  0.3661  2.0914
 2830TIP3    H229982   3.229   1.810   8.741 -1.8455 -0.0564 -2.7299
 2831TIP3   OH229983   3.345   2.385  12.988 -0.0560  0.1123 -0.9008
 2831TIP3    H129984   3.407   2.315  12.968  0.3158  0.0136  0.5030
 2831TIP3    H229985   3.374   2.459  12.934  2.7030  0.7885  1.2969
 2832TIP3   OH229986   3.320   0.410   5.303  0.5899  0.0350  0.2107
 2832TIP3    H129987   3.411   0.440   5.297  0.8860 -0.2806  2.3531
 2832TIP3    H229988   3.323   0.337   5.365 -1.0260 -0.4803 -0.2725
 2833TIP3   OH229989   1.659   0.406   7.812  0.1511 -0.3931 -0.1083
 2833TIP3    H129990   1.700   0.490   7.794  0.2572 -0.2861  0.5933
 2833TIP3    H229991   1.642   0.407   7.906 -0.6033 -0.8195 -0.2297
 2834TIP3   OH229992   1.679   3.149  50.812 -0.1392  0.1818 -0.3101
 2834TIP3    H129993   1.684   3.199  50.894  0.8261 -0.5128  0.0797
 2834TIP3    H229994   1.598   3.098  50.821 -0.3102  0.4966 -0.0235
 2835TIP3   OH229995   3.111   1.628  14.576 -0.0284 -0.4112  0.2998
 2835TIP3    H129996   3.121   1.683  14.499  0.5380 -1.0023 -0.0577
 2835TIP3    H229997   3.117   1.688  14.650 -0.2333  0.1116 -0.1032
 2836TIP3   OH229998   2.037   0.481  11.811 -0.0188  0.3860 -0.5134
 2836TIP3    H129999   2.054   0.571  11.837 -2.0811  1.4300 -2.5146
 2836TIP3    H230000   2.063   0.476  11.719  0.2043 -1.1258 -0.4055
 2837TIP3   OH230001   0.247   3.141  12.666  0.3351 -0.3852 -0.6026
 2837TIP3    H130002   0.249   3.237  12.664  0.3838 -0.3697  0.1009
 2837TIP3    H230003   0.240   3.118  12.758 -2.6705 -1.0031 -0.8797
 2838TIP3   OH230004   2.833   3.120  10.600 -0.0176  0.0936 -0.0773
 2838TIP3    H130005   2.827   3.129  10.695 -0.5827  3.3670 -0.3110
 2838TIP3    H230006   2.926   3.125  10.581  0.0203  0.6675  0.2387
 2839TIP3   OH230007   0.678   0.994  59.650  0.1452 -0.8434  0.1735
 2839TIP3    H130008   0.680   0.906  59.688 -1.7193 -1.7637 -1.7183
 2839TIP3    H230009   0.604   1.038  59.693 -2.2846 -2.0491 -2.4644
 2840TIP3   OH230010   3.058   1.089   9.672 -0.2011  0.0501  0.6737
 2840TIP3    H130011   2.966   1.115   9.670 -0.4615 -0.5983  2.4559
 2840TIP3    H230012   3.065   1.020   9.606 -0.1067  2.5454 -2.1318
 2841TIP3   OH230013   0.086   1.424  63.269 -0.4834  0.9677  0.4790
 2841TIP3    H130014   0.069   1.481  63.193  0.2605  1.3839  0.6079
 2841TIP3    H230015   0.181   1.413  63.269 -0.5476  0.3486  0.9167
 2842TIP3   OH230016   3.151   1.586  10.928 -0.1234  0.4577  0.5054
 2842TIP3    H130017   3.163   1.570  10.835 -0.0729 -0.8646  0.7274
 2842TIP3    H230018   3.215   1.654  10.949 -0.0322  0.6610 -0.3767
 2843TIP3   OH230019   0.864   0.966  56.317 -0.3104  0.1911 -0.1146
 2843TIP3    H130020   0.834   0.901  56.382 -0.7624 -0.9556 -1.4214
 2843TIP3    H230021   0.947   0.931  56.285 -0.3079  0.5180 -0.4758
 2844TIP3   OH230022   1.897   3.060  11.797 -0.8199  0.0694 -0.2885
 2844TIP3    H130023   1.912   3.008  11.876  0.9671  0.4039 -0.3657
 2844TIP3    H230024   1.883   3.149  11.829  1.1965  0.4558 -0.3520
 2845TIP3   OH230025   2.448   0.698  58.507 -0.6984 -0.6824  0.0815
 2845TIP3    H130026   2.469   0.774  58.561  0.0018 -1.0808  0.3846
 2845TIP3    H230027   2.490   0.716  58.423  0.3019 -1.1574  0.4641
 2846TIP3   OH230028   0.105   2.670   1.200 -0.4917  0.0532 -0.7528
 2846TIP3    H130029   0.024   2.633   1.163 -0.9226 -0.0091  0.2285
 2846TIP3    H230030   0.092   2.765   1.196 -0.1309  0.0742 -1.6327
 2847TIP3   OH230031   3.020   0.565   0.674  0.3493 -0.4534  0.2432
 2847TIP3    H130032   3.009   0.512   0.596  0.6177 -0.0520 -0.0678
 2847TIP3    H230033   3.102   0.612   0.661  0.1469 -0.0056  0.5414
 2848TIP3   OH230034   1.160   3.373  18.845 -0.7213 -0.2864  0.2331
 2848TIP3    H130035   1.172   3.282  18.819 -0.0642 -0.5473  1.3943
 2848TIP3    H230036   1.073   3.396  18.813  0.6326  0.0521 -3.8910
 2849TIP3   OH230037   3.441   1.424   4.377  0.1678 -0.0668  0.6774
 2849TIP3    H130038   3.358   1.389   4.408 -0.5413 -1.0519 -2.0457
 2849TIP3    H230039   3.416   1.491   4.313  1.3972 -0.8602 -0.6970
 2850TIP3   OH230040   1.134   3.419  17.030 -0.4297 -0.4806 -0.4139
 2850TIP3    H130041   1.175   3.437  17.115 -1.6951  0.4843  0.0116
 2850TIP3    H230042   1.047   3.457  17.037 -1.1383 -1.8188 -1.5735
 2851TIP3   OH230043   2.061   1.093  26.391 -0.2421 -0.0222  0.2775
 2851TIP3    H130044   2.146   1.058  26.419 -0.8297 -0.9084  1.0231
 2851TIP3    H230045   2.031   1.031  26.324  0.2698  1.0114 -0.9534
 2852TIP3   OH230046   2.878   2.444  18.464 -0.3994 -0.3127  0.4158
 2852TIP3    H130047   2.842   2.510  18.523  0.5780  0.2702  0.3771
 2852TIP3    H230048   2.928   2.494  18.399 -1.3801 -0.9377 -0.8742
 2853TIP3   OH230049   1.527   1.723  45.704 -0.1936  0.1937 -0.3442
 2853TIP3    H130050   1.482   1.745  45.786 -0.7350 -1.8555 -0.0216
 2853TIP3    H230051   1.478   1.769  45.636  0.5930  2.3696  0.4808
 2854TIP3   OH230052   0.344   3.001  62.772  0.3295  0.0675 -0.0782
 2854TIP3    H130053   0.262   3.049  62.756  0.0752  0.2359  1.5618
 2854TIP3    H230054   0.371   2.971  62.685 -1.6110 -0.2251 -0.6409
 2855TIP3   OH230055   2.813   0.928  65.603  0.0686  0.0093  0.6045
 2855TIP3    H130056   2.756   0.998  65.636 -1.0568 -0.7021  0.2468
 2855TIP3    H230057   2.868   0.971  65.538 -0.2165  0.6835  0.8022
 2856TIP3   OH230058   1.109   3.149  16.254 -0.6076  0.0928 -0.2827
 2856TIP3    H130059   1.061   3.180  16.331 -1.5758  0.0628 -0.8634
 2856TIP3    H230060   1.047   3.156  16.182  0.3368  0.2853 -1.1106
 2857TIP3   OH230061   0.729   0.009  52.998 -0.0006 -0.2540  0.6497
 2857TIP3    H130062   0.646  -0.027  53.029 -0.1699  1.3893  2.3172
 2857TIP3    H230063   0.786   0.006  53.075  1.2927 -0.7802 -0.3058
 2858TIP3   OH230064   1.505   0.510   7.242 -0.5266  0.0938 -0.3922
 2858TIP3    H130065   1.567   0.464   7.299 -2.1662  1.7570  3.0348
 2858TIP3    H230066   1.432   0.449   7.233  0.0328 -0.4531 -1.4050
 2859TIP3   OH230067   0.320   3.217  52.582 -0.5841  0.6387  0.0747
 2859TIP3    H130068   0.236   3.222  52.627 -0.1112 -0.4245  1.1550
 2859TIP3    H230069   0.380   3.268  52.637 -0.2847  0.4266 -0.0490
 2860TIP3   OH230070   1.869   1.771  64.856 -0.0942 -0.5326 -0.3402
 2860TIP3    H130071   1.899   1.862  64.854  0.8839 -0.8501 -0.3154
 2860TIP3    H230072   1.775   1.778  64.873 -0.1017  0.4859 -0.7193
 2861TIP3   OH230073   0.676   0.265  38.235 -0.3383 -0.3023  0.0143
 2861TIP3    H130074   0.591   0.245  38.273  0.2817 -1.3382  0.9292
 2861TIP3    H230075   0.665   0.351  38.195 -0.9780  1.0254  2.7877
 2862TIP3   OH230076   0.434   1.003  55.506 -0.0802  0.0887 -0.2997
 2862TIP3    H130077   0.439   1.061  55.430 -1.7023  0.2503 -0.3109
 2862TIP3    H230078   0.480   1.051  55.576 -0.2227  0.7845 -0.6727
 2863TIP3   OH230079   3.290   0.912  54.910  0.2672 -0.3532 -0.1864
 2863TIP3    H130080   3.300   0.908  54.814  2.2314  0.2396 -0.0613
 2863TIP3    H230081   3.353   0.848  54.943  0.4945  0.3165  0.7262
 2864TIP3   OH230082   2.594   1.527  21.340  0.4942 -0.0087  0.5758
 2864TIP3    H130083   2.639   1.596  21.387  1.2803 -0.4878  0.5599
 2864TIP3    H230084   2.526   1.571  21.289  1.8260  0.9164 -0.4518
 2865TIP3   OH230085   0.565   1.280  21.703 -0.0319 -0.0275  0.6755
 2865TIP3    H130086   0.575   1.196  21.657  0.0136 -0.1898  0.9782
 2865TIP3    H230087   0.623   1.273  21.778 -0.4081  0.0786  0.9795
 2866TIP3   OH230088   1.340   2.992  52.137  0.1284  0.0760 -0.1329
 2866TIP3    H130089   1.300   3.068  52.180 -1.4791 -0.8273  0.0467
 2866TIP3    H230090   1.388   2.948  52.206 -2.0393 -1.0984  0.7373
 2867TIP3   OH230091   2.935   3.439  65.387 -0.2652  0.3153 -0.2952
 2867TIP3    H130092   2.889   3.374  65.333 -1.4968  0.1222  0.9221
 2867TIP3    H230093   2.981   3.387  65.453  0.8025  0.5697 -0.8292
 2868TIP3   OH230094   1.006   2.190  64.301  0.1915 -0.4657  0.0798
 2868TIP3    H130095   0.958   2.252  64.355  1.7295  1.7366 -0.9428
 2868TIP3    H230096   0.970   2.201  64.213  0.3678 -1.1828 -0.0896
 2869TIP3   OH230097   2.273   1.842  25.727 -0.4945  0.1680  0.2924
 2869TIP3    H130098   2.306   1.797  25.805  1.4419  0.5944 -0.2352
 2869TIP3    H230099   2.320   1.925  25.725 -0.1480 -0.0293 -1.5641
 2870TIP3   OH230100   3.102   0.025  58.040 -0.0829  0.1623  0.2575
 2870TIP3    H130101   3.107   0.011  58.135 -0.0178  1.2252  0.4247
 2870TIP3    H230102   3.124  -0.060  58.002 -1.1436 -0.5663  1.2014
 2871TIP3   OH230103   2.752   2.608  43.005  0.1981 -0.0133 -1.2386
 2871TIP3    H130104   2.779   2.633  42.917  0.8051  1.0156 -0.7846
 2871TIP3    H230105   2.818   2.544  43.033  0.4033  0.1800 -1.2777
 2872TIP3   OH230106   0.625   3.057  46.391  0.2656  0.0379  1.1144
 2872TIP3    H130107   0.559   3.125  46.378  0.3223 -0.3960 -2.4592
 2872TIP3    H230108   0.577   2.974  46.383  0.9770 -0.2903  0.0199
 2873TIP3   OH230109   1.732   1.181  13.573 -0.3715 -0.4084  0.2505
 2873TIP3    H130110   1.695   1.145  13.493 -0.9721  2.1066 -0.6967
 2873TIP3    H230111   1.703   1.122  13.642 -1.7024 -1.4226 -1.1110
 2874TIP3   OH230112   2.800   0.494  14.183 -0.0997  0.6496  0.0655
 2874TIP3    H130113   2.747   0.567  14.150 -0.6736  0.4137  0.4384
 2874TIP3    H230114   2.850   0.532  14.255  0.1169  0.8377 -0.1838
 2875TIP3   OH230115   2.912   2.795  51.821 -0.3564 -0.2024 -0.3081
 2875TIP3    H130116   2.963   2.873  51.845 -0.3706 -0.5596  0.9582
 2875TIP3    H230117   2.969   2.747  51.761 -0.4576  0.9056 -1.3210
 2876TIP3   OH230118   1.522   0.989   3.593  0.4557 -0.5424  0.2693
 2876TIP3    H130119   1.616   0.980   3.602  0.4220 -0.1726  1.1759
 2876TIP3    H230120   1.491   0.903   3.566  1.0969 -0.5402 -0.4931
 2877TIP3   OH230121   2.764   0.101   7.418 -0.5177 -0.3759  0.1667
 2877TIP3    H130122   2.855   0.125   7.432 -0.7388  0.9576 -0.5207
 2877TIP3    H230123   2.714   0.174   7.455 -1.3215 -1.1802  0.7155
 2878TIP3   OH230124   2.695   0.317   0.084  0.2230 -0.0762  0.4633
 2878TIP3    H130125   2.785   0.347   0.076  0.6062 -1.2537  0.1661
 2878TIP3    H230126   2.673   0.330   0.176  0.8373 -0.1705  0.6267
 2879TIP3   OH230127   1.240   1.859  46.961  0.2643 -0.9360 -0.2640
 2879TIP3    H130128   1.259   1.950  46.981 -2.1633 -0.3712 -0.1441
 2879TIP3    H230129   1.291   1.840  46.882 -0.7544  1.2233 -1.5479
 2880TIP3   OH230130   2.464   1.793  57.022 -0.6617  0.5689  0.3907
 2880TIP3    H130131   2.451   1.880  57.059 -2.0974  0.6142 -0.1719
 2880TIP3    H230132   2.531   1.753  57.078 -0.6709  1.6811  1.2292
 2881TIP3   OH230133   2.988   1.636  28.998  0.6582  0.0925 -0.2076
 2881TIP3    H130134   3.010   1.572  29.066  1.0996 -0.0263 -0.4583
 2881TIP3    H230135   3.000   1.589  28.916 -1.3306 -0.2313 -0.3589
 2882TIP3   OH230136   0.279   2.916  48.967 -0.6092 -0.5547  0.1169
 2882TIP3    H130137   0.306   2.858  49.038 -1.2616 -2.6952 -1.2991
 2882TIP3    H230138   0.349   2.982  48.963  0.0918 -1.1256  1.8498
 2883TIP3   OH230139   0.331   2.063  13.954  0.6774 -0.5980 -0.3600
 2883TIP3    H130140   0.358   1.981  13.996  0.9118  1.0414  3.0595
 2883TIP3    H230141   0.239   2.049  13.931  0.2024 -1.3414  1.7598
 2884TIP3   OH230142   2.792   0.607   5.170 -0.1418  0.0679  0.4003
 2884TIP3    H130143   2.874   0.637   5.129  0.0632  0.7163  1.2611
 2884TIP3    H230144   2.804   0.625   5.263 -0.5893 -1.4274  0.7692
 2885TIP3   OH230145   0.169   3.184  47.211  0.1100  0.6793  0.1851
 2885TIP3    H130146   0.161   3.163  47.118  1.0063 -1.8832  0.6201
 2885TIP3    H230147   0.092   3.143  47.252  1.4852 -1.2924  0.9545
 2886TIP3   OH230148   0.250   3.348  49.675  0.0020 -0.1947  0.1355
 2886TIP3    H130149   0.211   3.314  49.594 -0.3750 -1.3208  0.7569
 2886TIP3    H230150   0.176   3.361  49.733  0.3925 -0.7911  0.7845
 2887TIP3   OH230151   0.640   0.928  48.263  0.1383  0.1397 -0.1141
 2887TIP3    H130152   0.626   0.947  48.356 -2.1998 -1.3541 -0.0652
 2887TIP3    H230153   0.664   0.835  48.261 -4.1774 -1.2247 -1.0807
 2888TIP3   OH230154   0.058   3.224  50.852  0.1570  0.4383  0.2996
 2888TIP3    H130155   0.131   3.279  50.880 -0.2099  1.4188 -0.6169
 2888TIP3    H230156   0.099   3.142  50.825  0.8556  0.7283  0.4595
 2889TIP3   OH230157   3.357   1.277  21.917  0.3345 -0.2252 -0.4859
 2889TIP3    H130158   3.268   1.269  21.950 -0.4429  1.9521 -1.8587
 2889TIP3    H230159   3.348   1.270  21.822  1.6198  0.1094 -0.6496
 2890TIP3   OH230160   1.842   2.677  64.628 -0.2713  0.0329  0.1555
 2890TIP3    H130161   1.811   2.588  64.611 -1.0464  0.3371 -0.0417
 2890TIP3    H230162   1.927   2.665  64.672  0.6793 -0.7736 -1.8099
 2891TIP3   OH230163   0.714   0.276  53.317 -0.3206  0.1061 -0.5952
 2891TIP3    H130164   0.790   0.288  53.260 -1.7820  0.2581 -2.6246
 2891TIP3    H230165   0.749   0.230  53.393  1.9074  0.7202 -1.1575
 2892TIP3   OH230166   1.241   2.472  64.629 -0.4872 -0.6207 -0.1518
 2892TIP3    H130167   1.223   2.494  64.721  0.4781  0.8698 -0.2760
 2892TIP3    H230168   1.181   2.527  64.579  0.6291  0.3751 -0.4404
 2893TIP3   OH230169   2.779   0.715  21.499  0.4545  0.4282  0.8542
 2893TIP3    H130170   2.791   0.786  21.561  0.4853 -0.4855  1.9257
 2893TIP3    H230171   2.692   0.681  21.518  0.0103  0.8432 -0.3657
 2894TIP3   OH230172   2.025   0.491  19.069 -0.1275  0.4732  0.1791
 2894TIP3    H130173   2.118   0.510  19.079  0.1409 -0.5087 -0.3145
 2894TIP3    H230174   2.020   0.433  18.993 -1.1460  0.5219  0.1925
 2895TIP3   OH230175   1.045   0.283  16.870 -0.4469  0.4904  0.0666
 2895TIP3    H130176   1.082   0.338  16.939 -0.8959 -0.2957  0.9572
 2895TIP3    H230177   1.022   0.202  16.914 -1.6255  0.3181 -0.8224
 2896TIP3   OH230178   0.481   1.259  60.547 -0.8831  0.0091  0.2951
 2896TIP3    H130179   0.392   1.281  60.519 -0.7927  2.5864  1.7569
 2896TIP3    H230180   0.537   1.290  60.475 -1.1147 -1.4315 -0.5348
 2897TIP3   OH230181   2.202   1.117  58.052 -0.4536 -0.3185  0.7228
 2897TIP3    H130182   2.210   1.152  58.141  1.7325  1.0180  0.0790
 2897TIP3    H230183   2.181   1.025  58.064 -1.1526  0.0484  2.6023
 2898TIP3   OH230184   1.489   1.314  20.558  0.3479  0.1375 -0.4979
 2898TIP3    H130185   1.482   1.275  20.646  2.5263  0.0369 -0.3216
 2898TIP3    H230186   1.480   1.408  20.573 -0.5093  0.0432 -0.3513
 2899TIP3   OH230187   1.189   3.137  20.639 -0.1894  0.2024  0.1351
 2899TIP3    H130188   1.218   3.098  20.556 -1.1878 -0.6427  0.1730
 2899TIP3    H230189   1.134   3.211  20.612 -1.1539 -0.5415  0.0188
 2900TIP3   OH230190   3.179   0.102  67.334  0.0580  0.8660 -0.2056
 2900TIP3    H130191   3.258   0.048  67.336  0.6286  1.6936  2.1310
 2900TIP3    H230192   3.115   0.053  67.385 -0.2976  1.1611 -0.3636
 2901TIP3   OH230193   1.475   1.806  11.404 -0.0559  0.4142  0.0986
 2901TIP3    H130194   1.569   1.807  11.420  0.5424 -1.5911 -2.6138
 2901TIP3    H230195   1.466   1.808  11.309 -2.6375 -1.1725  0.1927
 2902TIP3   OH230196   1.341   1.591  11.651  0.1425 -0.0783 -0.6072
 2902TIP3    H130197   1.423   1.543  11.662 -0.3556 -0.9795 -0.7404
 2902TIP3    H230198   1.281   1.550  11.712  0.1594  1.5018  0.5325
 2903TIP3   OH230199   0.227   2.680  10.444  0.2592  0.3664 -0.7247
 2903TIP3    H130200   0.149   2.638  10.481  0.1877 -0.0772 -1.3693
 2903TIP3    H230201   0.279   2.706  10.520 -0.8738  1.3558 -0.2650
 2904TIP3   OH230202   0.496   1.279  56.409 -0.2235 -0.7150  0.0838
 2904TIP3    H130203   0.498   1.372  56.388 -0.2690 -0.7148  0.0806
 2904TIP3    H230204   0.560   1.240  56.349  1.0705 -0.4617  1.2388
 2905TIP3   OH230205   1.135   0.145  46.970 -0.5364 -0.3381  0.5230
 2905TIP3    H130206   1.130   0.084  46.897  0.6028 -0.3795  0.4658
 2905TIP3    H230207   1.093   0.099  47.043  0.3821 -1.2307  0.5018
 2906TIP3   OH230208   2.932   0.334  44.624  0.1015 -0.1200  0.2543
 2906TIP3    H130209   2.887   0.319  44.541 -0.3617 -1.5229  0.7294
 2906TIP3    H230210   2.862   0.352  44.686  0.3342 -0.3624  0.5958
 2907TIP3   OH230211   1.590   1.747   9.420  0.1299  0.4929  0.5692
 2907TIP3    H130212   1.545   1.829   9.399  0.0700  0.1286 -0.7655
 2907TIP3    H230213   1.524   1.679   9.405  0.5928  0.0905  0.3602
 2908TIP3   OH230214   3.035   2.762  44.084 -0.1570  0.4392 -0.5902
 2908TIP3    H130215   3.039   2.702  44.009  0.1461  0.4185 -0.5574
 2908TIP3    H230216   3.126   2.770  44.113 -0.0080  1.8243 -1.3298
 2909TIP3   OH230217   0.701   1.852  45.552 -0.0128  0.3538  0.2033
 2909TIP3    H130218   0.681   1.871  45.460 -1.2693 -0.2433  0.3436
 2909TIP3    H230219   0.728   1.937  45.588 -0.2910  0.7571 -0.5089
 2910TIP3   OH230220   0.024   0.922  13.881 -0.2574 -0.3096 -0.3844
 2910TIP3    H130221   0.015   0.967  13.797 -0.8456  0.3026 -0.0110
 2910TIP3    H230222   0.048   0.992  13.942 -0.9477 -0.5354  0.1631
 2911TIP3   OH230223   0.656   0.743  54.495 -0.5557  0.1127 -0.4998
 2911TIP3    H130224   0.740   0.784  54.518 -1.0112  0.4047  0.7040
 2911TIP3    H230225   0.637   0.775  54.407  0.0759  0.9008 -0.3568
 2912TIP3   OH230226   3.056   1.163  43.517  0.4525 -0.0388 -0.2394
 2912TIP3    H130227   3.093   1.076  43.507  0.8781  0.1716 -0.5182
 2912TIP3    H230228   3.075   1.187  43.608  0.5452 -0.1384 -0.2335
 2913TIP3   OH230229   2.744   3.202  51.485  0.0452 -0.5303  0.7417
 2913TIP3    H130230   2.791   3.233  51.562 -0.4223  1.1677  0.4011
 2913TIP3    H230231   2.750   3.275  51.422  0.8171 -2.0347 -1.0300
 2914TIP3   OH230232   0.053   1.081   7.524  0.1408 -0.1460  0.5375
 2914TIP3    H130233   0.050   1.048   7.434  0.0594  0.4801  0.3063
 2914TIP3    H230234   0.139   1.121   7.532  2.7308 -5.1572  2.5575
 2915TIP3   OH230235   1.115   0.217  21.036 -0.3573 -0.3575  0.0873
 2915TIP3    H130236   1.023   0.209  21.011 -0.1766 -0.3467 -0.5852
 2915TIP3    H230237   1.112   0.243  21.128 -1.0214 -0.6706  0.1588
 2916TIP3   OH230238   1.268   1.194  22.227 -0.0028 -0.1692 -0.4978
 2916TIP3    H130239   1.195   1.179  22.288  0.0846 -0.4474 -0.4605
 2916TIP3    H230240   1.334   1.130  22.254 -0.4478 -1.1529 -1.6881
 2917TIP3   OH230241   3.278   2.365  26.467  0.1228 -0.3915 -0.5282
 2917TIP3    H130242   3.282   2.272  26.488 -1.0928 -0.1265  1.1098
 2917TIP3    H230243   3.185   2.382  26.451  0.1221  0.7836  0.5831
 2918TIP3   OH230244   2.039   1.602  65.691  0.0044  0.1674  0.1262
 2918TIP3    H130245   2.011   1.693  65.700  1.1554  0.3233  2.8590
 2918TIP3    H230246   1.957   1.552  65.693 -0.6852  1.1057 -2.0153
 2919TIP3   OH230247   3.302   3.307  10.848 -0.1793  0.2744  0.2640
 2919TIP3    H130248   3.317   3.300  10.753 -0.6610  1.7962  0.0389
 2919TIP3    H230249   3.370   3.253  10.887  0.4909  0.2092 -0.9393
 2920TIP3   OH230250   2.256   3.321  54.664 -0.1338 -0.2370  0.3080
 2920TIP3    H130251   2.231   3.239  54.707  0.1289 -0.4126  0.1320
 2920TIP3    H230252   2.221   3.389  54.720 -0.5441 -0.4734  0.3432
 2921TIP3   OH230253   0.887   0.633  46.110  0.0896  0.2059 -0.4362
 2921TIP3    H130254   0.814   0.594  46.158  0.6837  1.7108  1.9014
 2921TIP3    H230255   0.949   0.562  46.098  1.7617  0.3342  4.8701
 2922TIP3   OH230256   0.956   3.451  54.991  0.4755  0.4154  0.3271
 2922TIP3    H130257   0.908   3.387  55.043 -0.6147  1.0955  0.1938
 2922TIP3    H230258   0.965   3.527  55.048 -0.5263  1.0812 -0.3529
 2923TIP3   OH230259   1.811   3.392   8.622  0.4525 -0.1780 -0.9550
 2923TIP3    H130260   1.844   3.329   8.558  3.1773  0.3723 -0.2219
 2923TIP3    H230261   1.878   3.394   8.690 -1.5920  0.4321  1.1702
 2924TIP3   OH230262   2.355   0.129  45.562 -0.2193  0.7986 -0.2273
 2924TIP3    H130263   2.367   0.042  45.600 -0.8572  1.0350  0.5494
 2924TIP3    H230264   2.435   0.145  45.511  0.4522  0.2673  0.6373
 2925TIP3   OH230265   3.029   0.697  55.568 -0.2996  0.0289  0.2443
 2925TIP3    H130266   2.940   0.712  55.535 -0.2698 -2.9396 -1.4681
 2925TIP3    H230267   3.020   0.622  55.626  1.0384  0.0734  0.5278
 2926TIP3   OH230268   0.900   1.503  19.855  0.4515  1.0594  0.4176
 2926TIP3    H130269   0.813   1.526  19.887  0.2435  0.7586  0.0871
 2926TIP3    H230270   0.940   1.587  19.832  0.4875  1.2467  1.1612
 2927TIP3   OH230271   0.722   3.281  45.161 -0.1337 -0.2519 -0.2152
 2927TIP3    H130272   0.701   3.285  45.067 -0.9059 -0.6119 -0.0576
 2927TIP3    H230273   0.643   3.245  45.202  0.5610 -1.0361  0.4600
 2928TIP3   OH230274   1.277   3.098  61.133  0.3714 -0.1546 -0.2949
 2928TIP3    H130275   1.335   3.157  61.182  0.1870 -0.8061  0.7516
 2928TIP3    H230276   1.331   3.023  61.111  1.7486  1.8425 -4.9945
 2929TIP3   OH230277   2.062   2.406  13.604 -0.0816  0.1407 -0.1334
 2929TIP3    H130278   2.026   2.419  13.516 -0.8869 -1.3484 -0.0633
 2929TIP3    H230279   2.101   2.318  13.601  0.5828  0.3909  0.7775
 2930TIP3   OH230280   3.124   1.626   4.522 -0.2394 -0.6230  0.6746
 2930TIP3    H130281   3.174   1.572   4.583  0.9154  0.6287  0.8701
 2930TIP3    H230282   3.190   1.667   4.466 -0.8508  2.3297  1.9511
 2931TIP3   OH230283   2.364   0.058   5.130  0.1503 -0.2576  0.2136
 2931TIP3    H130284   2.274   0.037   5.157 -0.3155 -0.2145 -1.2305
 2931TIP3    H230285   2.364   0.047   5.035  1.7028 -0.3047  0.1957
 2932TIP3   OH230286   0.656   1.745  15.058  0.2995  0.2772  0.1771
 2932TIP3    H130287   0.633   1.781  15.143  0.6720  2.8553 -0.7175
 2932TIP3    H230288   0.717   1.673  15.077 -0.5337  0.0302  2.0779
 2933TIP3   OH230289   3.417   1.351  47.410  0.4735 -0.0024  0.6487
 2933TIP3    H130290   3.336   1.322  47.451 -0.1621  0.8779  0.0395
 2933TIP3    H230291   3.424   1.297  47.331 -0.7899  1.5190 -0.5657
 2934TIP3   OH230292   1.437   2.383  43.361 -0.2693 -0.7886  0.3553
 2934TIP3    H130293   1.345   2.359  43.375 -0.4166 -0.0838  0.6203
 2934TIP3    H230294   1.435   2.451  43.294  0.3187 -2.9424 -2.0051
 2935TIP3   OH230295   1.984   0.124   7.749 -0.5433 -0.0711  0.5446
 2935TIP3    H130296   2.069   0.102   7.711 -0.5374 -1.3129  1.2275
 2935TIP3    H230297   1.948   0.040   7.778 -2.2128  0.3587 -0.1492
 2936TIP3   OH230298   1.859   2.564   5.217  0.3316  0.5941  0.0648
 2936TIP3    H130299   1.915   2.598   5.148  2.5895 -0.0307  1.4956
 2936TIP3    H230300   1.844   2.472   5.193  0.3171  0.6306 -0.0671
 2937TIP3   OH230301   2.691   1.767  17.174 -0.2096  0.0864 -0.2968
 2937TIP3    H130302   2.736   1.685  17.195 -1.5437 -0.2695  1.4306
 2937TIP3    H230303   2.724   1.829  17.239  0.0569  0.6558 -0.9736
 2938TIP3   OH230304   0.982   2.608  49.667 -0.7238  0.1854  0.2278
 2938TIP3    H130305   1.043   2.560  49.723 -0.5540  1.6565  1.3363
 2938TIP3    H230306   1.035   2.634  49.591 -0.0213  1.1495  1.0153
 2939TIP3   OH230307   1.784   2.378  59.088  0.0751  0.4337  0.2518
 2939TIP3    H130308   1.752   2.421  59.009  0.8789  1.2417  0.3499
 2939TIP3    H230309   1.715   2.393  59.153  0.0697  1.0301  0.1118
 2940TIP3   OH230310   3.124   3.432  53.880 -0.2654  0.0146  0.7946
 2940TIP3    H130311   3.173   3.372  53.824 -2.0239  0.0634 -0.9254
 2940TIP3    H230312   3.047   3.455  53.828 -1.0473  1.5718  2.5288
 2941TIP3   OH230313   0.609   1.554  47.874 -0.6275 -0.3483  0.2031
 2941TIP3    H130314   0.641   1.568  47.785 -1.0672  1.0041  0.2410
 2941TIP3    H230315   0.536   1.493  47.864 -0.3565 -0.6028 -0.2949
 2942TIP3   OH230316   2.849   0.197   2.923 -0.3064  0.1013 -0.1638
 2942TIP3    H130317   2.853   0.284   2.961 -0.2990  0.4481 -0.9456
 2942TIP3    H230318   2.770   0.197   2.869 -0.1188 -0.2650 -0.4449
 2943TIP3   OH230319   3.268   2.974  64.464 -0.1422 -0.0840 -0.1378
 2943TIP3    H130320   3.340   3.036  64.479 -1.3541  1.0275  1.3104
 2943TIP3    H230321   3.204   3.023  64.413 -0.0267 -0.9806 -1.1873
 2944TIP3   OH230322   1.329   0.051  33.765  0.5104 -0.4376 -0.4490
 2944TIP3    H130323   1.297   0.045  33.675  0.5650  0.9181 -0.5717
 2944TIP3    H230324   1.386  -0.025  33.775  1.4922  0.0543 -1.9702
 2945TIP3   OH230325   3.032   0.007  58.657  0.0092 -0.4256  0.4852
 2945TIP3    H130326   3.087  -0.036  58.723  0.6089 -0.4184  0.0076
 2945TIP3    H230327   3.095   0.053  58.600 -0.4790 -0.5850 -0.1977
 2946TIP3   OH230328   3.152   1.305  57.195  0.2465  0.2135  0.0766
 2946TIP3    H130329   3.228   1.247  57.203 -0.9741 -1.3666  0.7215
 2946TIP3    H230330   3.189   1.388  57.164  2.1363 -0.7022 -0.2970
 2947TIP3   OH230331   1.435   1.958  57.909  0.3081  0.3785  0.0155
 2947TIP3    H130332   1.401   2.029  57.964  0.9341  1.6026 -1.1229
 2947TIP3    H230333   1.528   1.953  57.930 -0.0482 -1.3585  1.3820
 2948TIP3   OH230334   1.714   2.338   8.512  0.5485 -0.3045 -0.6010
 2948TIP3    H130335   1.705   2.295   8.598 -0.7043 -0.0351 -0.5881
 2948TIP3    H230336   1.751   2.424   8.532 -2.2175  0.8429  0.0125
 2949TIP3   OH230337   1.165   0.240  62.417  0.2857  0.6421 -0.4148
 2949TIP3    H130338   1.123   0.326  62.430 -1.3176 -0.0999 -0.3700
 2949TIP3    H230339   1.182   0.209  62.506 -0.6411  0.2402 -0.3629
 2950TIP3   OH230340   1.273   0.355   7.242  0.2858 -0.0374 -0.5270
 2950TIP3    H130341   1.267   0.261   7.261 -0.0746  0.1907  0.5839
 2950TIP3    H230342   1.186   0.379   7.209 -0.1338  0.1969  0.6900
 2951TIP3   OH230343   0.146   0.024  47.246 -0.3867  0.1988 -0.2306
 2951TIP3    H130344   0.151  -0.071  47.239 -1.2311  0.2333 -1.8849
 2951TIP3    H230345   0.193   0.045  47.327 -2.3884 -1.8320  1.6048
 2952TIP3   OH230346   0.125   0.585  53.625 -0.5089  0.3366  0.2241
 2952TIP3    H130347   0.104   0.505  53.674 -0.2658  0.8278  1.1593
 2952TIP3    H230348   0.068   0.652  53.663  0.3013  0.9214  0.4412
 2953TIP3   OH230349   2.684   3.125  49.050  0.0943  0.4531  0.3188
 2953TIP3    H130350   2.767   3.085  49.025 -0.7667  0.0298 -2.1966
 2953TIP3    H230351   2.666   3.092  49.138  1.8030 -0.7196  0.2756
 2954TIP3   OH230352   1.746   2.389  10.432 -0.2324  0.4588 -0.3116
 2954TIP3    H130353   1.686   2.327  10.474  1.3761 -0.0615  1.3559
 2954TIP3    H230354   1.737   2.470  10.482  1.1504  0.0642  0.6412
 2955TIP3   OH230355   1.564   0.981  60.363 -0.2906  0.5306 -1.1613
 2955TIP3    H130356   1.606   0.949  60.444 -0.6057  2.1056 -0.3328
 2955TIP3    H230357   1.634   1.030  60.319 -0.1460 -0.2527 -1.8080
 2956TIP3   OH230358   2.021   1.238  15.193  0.3767  0.9505  0.3470
 2956TIP3    H130359   2.097   1.297  15.199  0.0514  1.4390 -0.2244
 2956TIP3    H230360   1.952   1.284  15.240  0.0387  1.1776 -0.3538
 2957TIP3   OH230361   3.111   0.059   4.456  0.1308 -0.1893 -0.5235
 2957TIP3    H130362   3.055   0.017   4.391 -0.3239 -0.1585 -0.1603
 2957TIP3    H230363   3.115  -0.004   4.528 -1.8334  0.9837  0.7017
 2958TIP3   OH230364   3.363   2.432   1.368 -0.0995  0.2503 -0.4355
 2958TIP3    H130365   3.269   2.428   1.381  0.0695 -2.2122  0.5247
 2958TIP3    H230366   3.377   2.398   1.280 -0.0534 -0.0775 -0.3008
 2959TIP3   OH230367   3.100   1.756   3.697 -0.4915 -0.3644  0.6028
 2959TIP3    H130368   3.048   1.823   3.742 -0.1668  0.7456 -0.6064
 2959TIP3    H230369   3.159   1.723   3.764 -0.8099  0.4085  1.2907
 2960TIP3   OH230370   2.835   2.894   8.955  0.0207  0.1404  0.8594
 2960TIP3    H130371   2.828   2.889   8.860  2.1379  0.1636  0.6690
 2960TIP3    H230372   2.925   2.920   8.972 -0.0475 -0.7227  2.8957
 2961TIP3   OH230373   2.248   2.586  60.927  0.8627  0.2147 -0.3873
 2961TIP3    H130374   2.244   2.677  60.959 -0.3606  0.0556 -0.0473
 2961TIP3    H230375   2.191   2.586  60.850  0.2284 -0.4346  0.0718
 2962TIP3   OH230376   1.284   0.800  48.270  0.7070 -0.3187 -0.3802
 2962TIP3    H130377   1.260   0.876  48.217  0.3314 -0.2219 -0.0756
 2962TIP3    H230378   1.374   0.818  48.297  1.0651 -0.5837 -1.3533
 2963TIP3   OH230379   0.656   1.743  55.599 -0.3560  0.0021 -0.0387
 2963TIP3    H130380   0.582   1.750  55.659 -0.4585  2.5266 -0.3530
 2963TIP3    H230381   0.665   1.649  55.583 -2.6641 -0.4709  0.9982
 2964TIP3   OH230382   3.171   3.090  48.484 -0.3174  0.0471 -0.5280
 2964TIP3    H130383   3.138   3.180  48.476  1.3624  0.7465 -0.0369
 2964TIP3    H230384   3.165   3.055  48.395 -2.7401 -0.0467 -0.4001
 2965TIP3   OH230385   1.813   1.500   6.024  0.2115  0.4721 -0.4116
 2965TIP3    H130386   1.799   1.489   6.118 -2.2747  2.0653 -0.5173
 2965TIP3    H230387   1.808   1.411   5.989  0.0858 -0.0244  0.8213
 2966TIP3   OH230388   2.085   3.147  64.109 -0.1954  0.2698 -0.2732
 2966TIP3    H130389   2.037   3.189  64.038 -0.3429  3.0236  1.3194
 2966TIP3    H230390   2.018   3.111  64.167 -0.1164 -0.6184 -0.7089
 2967TIP3   OH230391   1.547   0.391  50.136 -0.3023 -0.1013 -0.2488
 2967TIP3    H130392   1.528   0.395  50.230 -1.8025  0.0505 -0.5355
 2967TIP3    H230393   1.564   0.299  50.119  1.5641  0.0674  0.4294
 2968TIP3   OH230394   3.330   1.157  15.798  0.3224  0.0658  0.2784
 2968TIP3    H130395   3.344   1.240  15.752  3.4077 -1.8989 -2.8771
 2968TIP3    H230396   3.265   1.111  15.746 -1.1495  0.2915  1.8390
 2969TIP3   OH230397   3.276   2.915  14.019  0.1139 -0.2502  0.0795
 2969TIP3    H130398   3.251   2.917  13.927  0.6950  1.4176 -0.0657
 2969TIP3    H230399   3.338   2.987  14.030 -0.1814 -0.1995  1.8372
 2970TIP3   OH230400   0.932   3.138   4.776 -0.0970 -0.1214  0.3328
 2970TIP3    H130401   0.981   3.112   4.855 -0.9731 -0.8733  0.6463
 2970TIP3    H230402   0.850   3.173   4.810 -0.3615 -0.1891 -0.2387
 2971TIP3   OH230403   0.555   2.683  44.872 -0.6110  0.1045 -0.1057
 2971TIP3    H130404   0.555   2.771  44.909  2.2118 -0.2112  0.8964
 2971TIP3    H230405   0.553   2.625  44.949  0.7985 -0.6305 -0.5878
 2972TIP3   OH230406   1.553   2.147  17.299  0.4056  0.3021  0.1517
 2972TIP3    H130407   1.517   2.187  17.219 -1.1770 -0.7808  0.2723
 2972TIP3    H230408   1.602   2.217  17.341 -1.3949  1.8369 -0.1710
 2973TIP3   OH230409   0.983   3.370  48.606  0.1987  0.1067  0.0137
 2973TIP3    H130410   0.985   3.289  48.555  0.6342  0.7532 -1.0126
 2973TIP3    H230411   0.901   3.364  48.656 -0.0478 -0.7137 -0.4681
 2974TIP3   OH230412   0.899   2.460  14.811  0.1434  0.0816  0.2319
 2974TIP3    H130413   0.872   2.370  14.799 -0.7901  0.0882  1.9629
 2974TIP3    H230414   0.818   2.509  14.822  0.6101  1.2367 -1.1073
 2975TIP3   OH230415   2.778   1.978  50.965 -0.7356  0.0431  0.1573
 2975TIP3    H130416   2.856   1.979  50.910 -1.3057 -0.4589 -0.7006
 2975TIP3    H230417   2.740   1.891  50.950 -0.8568 -0.1384  1.4359
 2976TIP3   OH230418   0.725   0.586   9.250  0.0161 -0.4111 -0.7006
 2976TIP3    H130419   0.705   0.592   9.343  0.7683  0.5865 -0.5784
 2976TIP3    H230420   0.654   0.633   9.206  0.7382  0.9698 -0.4541
 2977TIP3   OH230421   2.504   0.171  50.485 -0.2615 -0.5239  0.6160
 2977TIP3    H130422   2.538   0.084  50.502  0.5941 -0.0450  1.4655
 2977TIP3    H230423   2.443   0.188  50.557 -1.0348 -0.7193  0.0193
 2978TIP3   OH230424   3.244   3.131  53.252 -0.3713 -0.1967  0.3076
 2978TIP3    H130425   3.199   3.214  53.264 -1.0664 -0.6692  1.0491
 2978TIP3    H230426   3.295   3.142  53.172 -0.9140  0.7366  0.0863
 2979TIP3   OH230427   2.965   1.980   0.856 -0.0074 -0.2497 -0.3494
 2979TIP3    H130428   2.983   1.998   0.948  1.0844  2.5642 -1.0098
 2979TIP3    H230429   2.932   1.890   0.855 -1.5809  0.1562  2.9374
 2980TIP3   OH230430   2.128   0.723  17.867  0.0785 -0.4042  0.4376
 2980TIP3    H130431   2.185   0.794  17.841 -0.3497 -1.4577 -4.2873
 2980TIP3    H230432   2.187   0.648  17.881  0.1738 -0.5306 -0.5625
 2981TIP3   OH230433   2.715   0.185  51.526 -0.6126 -0.3928 -0.5807
 2981TIP3    H130434   2.641   0.242  51.504 -1.5418 -1.0612  0.7283
 2981TIP3    H230435   2.681   0.126  51.593  1.6740  0.6599  1.6780
 2982TIP3   OH230436   1.694   1.634  20.022  0.1394 -0.6188  0.0520
 2982TIP3    H130437   1.787   1.621  20.007  0.4404  0.3573  0.9367
 2982TIP3    H230438   1.685   1.638  20.117 -1.0256 -2.1236  0.0320
 2983TIP3   OH230439   1.778   2.562  25.816 -0.2127  0.4639  0.1705
 2983TIP3    H130440   1.864   2.519  25.810 -0.6008 -0.3673  0.4280
 2983TIP3    H230441   1.799   2.654  25.835  0.6466  0.4840 -0.7640
 2984TIP3   OH230442   2.684   3.250  51.108  0.7639 -0.3007  0.6688
 2984TIP3    H130443   2.655   3.217  51.022 -0.1710  1.4230  0.2787
 2984TIP3    H230444   2.779   3.255  51.100  0.6290  0.8588 -0.7014
 2985TIP3   OH230445   0.633   0.344  34.492  0.4843  0.0857 -0.8009
 2985TIP3    H130446   0.558   0.315  34.440  0.3958  0.5733 -0.9535
 2985TIP3    H230447   0.634   0.440  34.482 -0.5787  0.4089  1.4656
 2986TIP3   OH230448   2.634   0.684   6.284 -0.1545 -0.3010 -0.1014
 2986TIP3    H130449   2.719   0.720   6.259 -0.4074  0.3502 -0.0314
 2986TIP3    H230450   2.584   0.759   6.316 -0.7413 -0.6877 -0.0935
 2987TIP3   OH230451   0.070   2.748  51.372  0.3388 -0.0888 -0.3425
 2987TIP3    H130452   0.162   2.726  51.382  0.4855  0.0935 -1.2077
 2987TIP3    H230453   0.032   2.674  51.323  0.4088  0.6184 -1.5035
 2988TIP3   OH230454   0.992   0.683  17.245 -0.3772  0.1951 -0.2743
 2988TIP3    H130455   0.916   0.717  17.292 -0.9304 -0.5508 -0.6150
 2988TIP3    H230456   1.063   0.685  17.309 -1.1249 -0.8292  0.6077
 2989TIP3   OH230457   0.746   2.475  16.344 -0.3209 -0.0028  0.5143
 2989TIP3    H130458   0.778   2.557  16.308  0.2011  0.0838  1.1541
 2989TIP3    H230459   0.786   2.407  16.289  1.3003  0.0892  1.5228
 2990TIP3   OH230460   1.373   2.300  14.603  0.0060  0.0660  0.1805
 2990TIP3    H130461   1.316   2.356  14.656 -0.4368  0.9953 -1.2420
 2990TIP3    H230462   1.461   2.322  14.631 -0.1431  1.7295 -0.5708
 2991TIP3   OH230463   2.895   2.705  47.951  0.4941 -0.2367  0.4534
 2991TIP3    H130464   2.831   2.660  47.897 -0.7811 -0.8564  2.3891
 2991TIP3    H230465   2.859   2.793  47.964  0.0903 -0.5411  1.4336
 2992TIP3   OH230466   2.328   3.399  45.017 -0.3686  0.6005  0.1255
 2992TIP3    H130467   2.349   3.363  45.103 -1.1366 -0.0079  0.0663
 2992TIP3    H230468   2.398   3.367  44.959 -0.5443 -0.0370  0.2617
 2993TIP3   OH230469   1.289   1.744   0.164  0.4622  0.6419  0.2467
 2993TIP3    H130470   1.220   1.733   0.098  0.2152  1.0688  0.4290
 2993TIP3    H230471   1.277   1.671   0.224  1.1901 -0.2201 -0.6118
 2994TIP3   OH230472   0.348   2.970   4.680  0.2702  0.1659 -0.3840
 2994TIP3    H130473   0.284   2.963   4.750 -1.4726  1.2617 -1.7729
 2994TIP3    H230474   0.375   2.880   4.661 -0.4432 -0.2585  0.5963
 2995TIP3   OH230475   0.989   0.458  14.266 -0.0937 -0.1411  0.1129
 2995TIP3    H130476   1.030   0.402  14.200 -0.6193  1.0601 -1.2778
 2995TIP3    H230477   0.969   0.398  14.338  1.8352 -1.2023 -0.1749
 2996TIP3   OH230478   2.689   2.357  20.761 -0.0940  0.0374 -0.0294
 2996TIP3    H130479   2.601   2.327  20.742  0.1045 -0.5164 -0.0917
 2996TIP3    H230480   2.746   2.290  20.725  0.3820  0.8170 -0.7682
 2997TIP3   OH230481   1.272   2.384  53.585 -0.3763 -0.4302 -0.3903
 2997TIP3    H130482   1.339   2.343  53.640 -0.3955  1.4889  1.1762
 2997TIP3    H230483   1.298   2.476  53.580 -2.5687  0.2599 -0.2175
 2998TIP3   OH230484   0.985   1.679  45.769  0.7159  0.2523 -0.1729
 2998TIP3    H130485   0.890   1.671  45.761  0.7116 -1.4184  0.9602
 2998TIP3    H230486   0.999   1.722  45.854  0.9529 -1.8394  0.9096
 2999TIP3   OH230487   1.089   0.504  57.826  0.4142  0.3519  0.3524
 2999TIP3    H130488   1.087   0.481  57.919  1.5042  1.6635  0.7239
 2999TIP3    H230489   1.158   0.570  57.819 -1.3918  2.2091 -0.9324
 3000TIP3   OH230490   2.707   2.842  43.809  0.5499 -0.1701 -0.2557
 3000TIP3    H130491   2.641   2.874  43.747  1.1749 -1.1414 -1.4552
 3000TIP3    H230492   2.657   2.817  43.887 -0.3514  0.2557 -0.6894
 3001TIP3   OH230493   0.033   1.002   4.997  0.5211 -0.4092  0.0699
 3001TIP3    H130494   0.086   1.081   4.989 -0.8586  0.5557  0.1357
 3001TIP3    H230495  -0.049   1.032   5.037 -0.4147 -1.6997 -0.8055
 3002TIP3   OH230496   0.454   0.879   6.048  0.5955 -0.3070 -0.3653
 3002TIP3    H130497   0.546   0.899   6.066  0.5023  0.3478 -0.5884
 3002TIP3    H230498   0.455   0.835   5.963  0.6851 -0.1377 -0.4525
 3003TIP3   OH230499   2.071   1.365  51.037 -0.2161  0.1087 -0.0199
 3003TIP3    H130500   2.122   1.387  50.959 -1.0122  0.6708 -0.4025
 3003TIP3    H230501   1.995   1.318  51.003 -0.2199 -0.2576  0.4876
 3004TIP3   OH230502   1.577   0.440  63.431 -0.0504 -0.4185 -0.1972
 3004TIP3    H130503   1.634   0.436  63.507 -1.5260 -0.2041  0.9696
 3004TIP3    H230504   1.529   0.357  63.432 -0.1306 -0.3913 -0.8724
 3005TIP3   OH230505   0.680   0.831  58.739  0.3126 -0.4417  0.2423
 3005TIP3    H130506   0.726   0.913  58.725 -0.6052  0.1519  0.6019
 3005TIP3    H230507   0.712   0.798  58.822 -0.0126  0.0478  0.5648
 3006TIP3   OH230508   0.748   2.642  47.237  0.2866  0.2631  0.2381
 3006TIP3    H130509   0.679   2.625  47.173 -0.5706  1.1443  0.8834
 3006TIP3    H230510   0.829   2.617  47.193 -0.4467 -0.9135 -0.5008
 3007TIP3   OH230511   2.120   0.099  26.493  0.0715 -0.5289 -0.0539
 3007TIP3    H130512   2.072   0.042  26.433 -1.0381 -0.5673  0.8345
 3007TIP3    H230513   2.149   0.172  26.439 -0.2103 -0.9512 -0.7916
 3008TIP3   OH230514   2.518   1.575  45.376  0.2079 -0.1088 -0.2318
 3008TIP3    H130515   2.508   1.632  45.299 -0.1524 -0.6298 -0.5767
 3008TIP3    H230516   2.507   1.486  45.341 -1.0597 -0.2943  0.5988
 3009TIP3   OH230517   2.201   2.242  11.297 -0.5384  0.3692  0.0188
 3009TIP3    H130518   2.289   2.211  11.314  0.6734  1.9947 -2.5292
 3009TIP3    H230519   2.203   2.335  11.321 -0.4771  1.2234 -2.8135
 3010TIP3   OH230520   1.099   1.774  56.790  0.1021 -0.8055 -0.1731
 3010TIP3    H130521   1.103   1.776  56.694  1.2740 -1.0191 -0.1403
 3010TIP3    H230522   1.059   1.690  56.810 -0.2927 -0.6951 -0.4667
 3011TIP3   OH230523   0.155   2.476  61.444 -0.5353 -0.2505 -0.3572
 3011TIP3    H130524   0.166   2.401  61.503  0.4031 -0.0464 -0.2656
 3011TIP3    H230525   0.204   2.547  61.485 -0.6667  0.1677 -0.9103
 3012TIP3   OH230526   2.699   1.406   9.135 -0.4639  0.0301 -0.6084
 3012TIP3    H130527   2.773   1.368   9.181 -1.1569 -2.0525 -1.1211
 3012TIP3    H230528   2.661   1.468   9.198 -0.3482 -1.4518  0.9952
 3013TIP3   OH230529   3.173   1.408  20.546  0.2695 -0.2300 -0.0042
 3013TIP3    H130530   3.250   1.446  20.587  0.6329  0.8399 -1.6133
 3013TIP3    H230531   3.103   1.472  20.563  0.1895 -0.2582 -0.2306
 3014TIP3   OH230532   3.351   0.955  53.149 -1.1600 -0.5854  0.0512
 3014TIP3    H130533   3.389   0.981  53.233 -0.8983 -2.0206  0.4090
 3014TIP3    H230534   3.257   0.966  53.160 -1.1669 -1.2158  0.7259
 3015TIP3   OH230535   0.991   2.830  45.862  0.2198 -0.3471  0.2778
 3015TIP3    H130536   1.067   2.881  45.834  0.0980 -0.2106  0.1841
 3015TIP3    H230537   0.917   2.890  45.848  0.1249 -0.3869  0.6106
 3016TIP3   OH230538   0.888   2.759  53.894  0.4099 -0.1448 -0.1638
 3016TIP3    H130539   0.969   2.782  53.848  0.0731 -0.0781 -0.7296
 3016TIP3    H230540   0.907   2.778  53.986  0.8442  0.4250 -0.3632
 3017TIP3   OH230541   1.019   0.893  46.208  0.1420  0.2141  0.0403
 3017TIP3    H130542   0.985   0.804  46.211 -2.0635  0.9417  3.5872
 3017TIP3    H230543   0.988   0.929  46.125 -0.5957 -1.7228 -0.5690
 3018TIP3   OH230544   1.192   0.690  60.671 -0.6330  0.2702 -0.1112
 3018TIP3    H130545   1.238   0.772  60.652 -1.9437  1.1783  0.4889
 3018TIP3    H230546   1.128   0.681  60.601 -0.1912 -0.5042 -0.4308
 3019TIP3   OH230547   0.794   0.318  62.789  0.4474  0.2029  0.5258
 3019TIP3    H130548   0.745   0.355  62.716 -1.2549 -3.0219 -0.1265
 3019TIP3    H230549   0.761   0.363  62.866 -1.5445  0.0626 -0.2038
 3020TIP3   OH230550   1.017   3.266  18.543  0.4349 -0.1318  0.1219
 3020TIP3    H130551   0.943   3.327  18.543  0.5556  0.0921 -1.9548
 3020TIP3    H230552   0.999   3.207  18.616 -1.2392  0.5867  0.3434
 3021TIP3   OH230553   3.152   1.307  11.670  0.1167  0.5424  0.1606
 3021TIP3    H130554   3.245   1.324  11.655  0.1683  0.4417  0.3552
 3021TIP3    H230555   3.131   1.355  11.751 -0.3007  1.5667 -0.5350
 3022TIP3   OH230556   2.640   2.495  66.422  0.2862 -0.5637 -0.2977
 3022TIP3    H130557   2.546   2.499  66.402  0.1677 -2.6346 -0.3607
 3022TIP3    H230558   2.644   2.491  66.518  0.3804  0.4422 -0.2477
 3023TIP3   OH230559   1.169   1.271  49.967  0.4289  0.1722  0.0283
 3023TIP3    H130560   1.165   1.365  49.952  1.6994  0.4362  1.1943
 3023TIP3    H230561   1.165   1.262  50.062  0.5470 -0.9455 -0.0620
 3024TIP3   OH230562   2.331   2.431  16.558 -0.3536  0.4300 -0.4766
 3024TIP3    H130563   2.380   2.390  16.629  2.1145  2.9485 -0.5357
 3024TIP3    H230564   2.280   2.500  16.600 -2.1364 -0.6682 -0.7280
 3025TIP3   OH230565   1.171   1.740  22.013  0.8144 -0.1635  0.1625
 3025TIP3    H130566   1.107   1.697  22.069  0.5409  0.1229  0.0709
 3025TIP3    H230567   1.253   1.733  22.061  0.7167 -0.5277  0.2825
 3026TIP3   OH230568   2.247   2.961  10.440 -0.3311 -0.2601  0.1528
 3026TIP3    H130569   2.301   2.999  10.371 -0.9488  2.6783  1.1313
 3026TIP3    H230570   2.307   2.950  10.514 -0.5275  0.7109  0.4727
 3027TIP3   OH230571   0.221   0.483  12.005 -0.3876 -0.2903 -0.3410
 3027TIP3    H130572   0.197   0.419  11.937  1.6475  0.5598 -1.9709
 3027TIP3    H230573   0.235   0.564  11.957  0.4101  0.5407  1.2304
 3028TIP3   OH230574   2.660   0.004  16.968  0.0329  0.4462  0.3224
 3028TIP3    H130575   2.702   0.089  16.954 -0.5864  0.9847  1.5536
 3028TIP3    H230576   2.680  -0.018  17.059 -1.1248  0.0317  0.4944
 3029TIP3   OH230577   3.031   1.450  55.609  0.0036  0.2153  0.6738
 3029TIP3    H130578   2.961   1.464  55.544  0.9237 -1.5322 -0.8090
 3029TIP3    H230579   3.112   1.467  55.561  0.6560  1.7269  2.2368
 3030TIP3   OH230580   1.186   0.191   6.681  0.3362 -0.2828  0.1828
 3030TIP3    H130581   1.154   0.278   6.704  1.1005  0.2541 -0.7189
 3030TIP3    H230582   1.232   0.204   6.598  0.5385 -1.5341  0.0862
 3031TIP3   OH230583   1.868   0.400  16.044 -0.3530  0.2423 -0.0541
 3031TIP3    H130584   1.835   0.463  15.980  0.0439  1.2840  0.7464
 3031TIP3    H230585   1.924   0.341  15.993  2.0939  2.5969 -0.3301
 3032TIP3   OH230586   2.234   1.729   3.542  0.0158  0.2145  0.2930
 3032TIP3    H130587   2.324   1.704   3.564 -0.4415 -1.2107  0.6543
 3032TIP3    H230588   2.183   1.650   3.557 -1.2034  0.8104 -0.5728
 3033TIP3   OH230589   0.499   1.897  60.804  0.7128 -0.0091  0.0280
 3033TIP3    H130590   0.418   1.863  60.765  0.4873 -1.6402  1.7759
 3033TIP3    H230591   0.488   1.882  60.898  3.3482 -0.9513  0.2551
 3034TIP3   OH230592   0.071   0.120   9.867  0.0367  0.1909 -0.4273
 3034TIP3    H130593   0.095   0.077   9.949 -1.4453  1.4809  0.7527
 3034TIP3    H230594  -0.023   0.140   9.877 -0.1697  0.4415 -2.4153
 3035TIP3   OH230595   1.366   3.087  19.685  0.0627  0.2088 -0.0191
 3035TIP3    H130596   1.384   3.156  19.749  0.2997  0.6660 -0.5759
 3035TIP3    H230597   1.430   3.100  19.616  1.1806 -1.5632  0.6160
 3036TIP3   OH230598   2.384   2.437  44.052 -0.1413  0.3919 -0.0016
 3036TIP3    H130599   2.438   2.466  44.126  0.2751  0.6772 -0.4182
 3036TIP3    H230600   2.343   2.356  44.083 -0.8050  1.0655  0.9384
 3037TIP3   OH230601   2.993   2.073   3.561  0.4040  0.7190  0.4655
 3037TIP3    H130602   2.945   2.039   3.485  1.7003 -0.3418  0.0964
 3037TIP3    H230603   3.082   2.040   3.550  0.8743  1.4432  1.9027
 3038TIP3   OH230604   2.355   2.969   1.177 -0.0717 -0.2829 -0.3435
 3038TIP3    H130605   2.444   2.939   1.194  0.4573 -0.9874 -3.7333
 3038TIP3    H230606   2.366   3.048   1.124 -1.3619 -1.6055 -2.7364
 3039TIP3   OH230607   2.696   2.865  20.090 -0.3506  0.4908  0.2914
 3039TIP3    H130608   2.669   2.822  20.009 -0.5307  0.6704  0.2555
 3039TIP3    H230609   2.788   2.842  20.100 -0.9785 -1.8333  1.4811
 3040TIP3   OH230610   0.407   1.552   8.414  0.5276  0.2097 -0.3043
 3040TIP3    H130611   0.338   1.486   8.414 -0.5322  1.2614  0.4832
 3040TIP3    H230612   0.424   1.570   8.322  1.1411 -1.4403 -0.5404
 3041TIP3   OH230613   0.012   1.425  58.311 -0.3380 -0.0127 -0.5744
 3041TIP3    H130614   0.067   1.499  58.287 -0.2603 -0.2320 -1.0889
 3041TIP3    H230615  -0.017   1.444  58.400 -0.6747  0.8520 -0.8600
 3042TIP3   OH230616   0.431   3.250   6.625 -0.1963 -0.2933  0.0259
 3042TIP3    H130617   0.466   3.215   6.543  2.6345  1.7852  0.2003
 3042TIP3    H230618   0.405   3.340   6.603 -1.0860 -0.2940  1.0110
 3043TIP3   OH230619   1.291   0.883   7.343  0.5108 -0.1530 -0.0012
 3043TIP3    H130620   1.204   0.848   7.329  0.9058 -1.2007  0.1314
 3043TIP3    H230621   1.321   0.844   7.425  1.0224  0.3639  0.0666
 3044TIP3   OH230622   1.946   0.930  51.283 -0.2327 -0.1736 -0.4250
 3044TIP3    H130623   1.899   0.960  51.205  1.2830 -0.2856 -1.4280
 3044TIP3    H230624   1.993   0.852  51.254  0.2532 -0.3055  0.6590
 3045TIP3   OH230625   0.630   1.848   0.792 -0.1550  0.3892 -0.0860
 3045TIP3    H130626   0.626   1.753   0.780 -1.1270  0.4395 -0.2792
 3045TIP3    H230627   0.653   1.860   0.883  0.5704 -0.0310 -0.2073
 3046TIP3   OH230628   0.102   1.859  48.704 -0.1692 -0.2648 -0.2086
 3046TIP3    H130629   0.010   1.864  48.680 -0.1014 -0.2688 -0.4740
 3046TIP3    H230630   0.146   1.831  48.624 -0.0735 -1.3645  0.2189
 3047TIP3   OH230631   3.264   0.294  16.277  0.0849 -0.6918  0.0329
 3047TIP3    H130632   3.170   0.306  16.269  0.0200 -0.7780  0.6332
 3047TIP3    H230633   3.298   0.314  16.189 -0.1836  2.1049  0.4796
 3048TIP3   OH230634   2.989   1.748  21.908  0.8245 -0.8671 -0.1860
 3048TIP3    H130635   2.976   1.721  21.999 -0.5735 -0.4978 -0.2486
 3048TIP3    H230636   2.965   1.671  21.856  0.8796 -0.8355 -0.2585
 3049TIP3   OH230637   1.592   0.541  13.876 -0.3197  0.2519 -0.4632
 3049TIP3    H130638   1.662   0.489  13.836  0.1767  1.0567 -0.6555
 3049TIP3    H230639   1.515   0.484  13.872  0.0565 -0.2207 -1.2776
 3050TIP3   OH230640   2.621   1.709  29.492 -0.7687  0.3465 -0.5448
 3050TIP3    H130641   2.690   1.648  29.464 -0.0522 -0.1068  1.9214
 3050TIP3    H230642   2.596   1.755  29.412  2.3178  0.4605 -1.5945
 3051TIP3   OH230643   1.861   2.053  44.448 -0.3950 -0.4300 -0.5565
 3051TIP3    H130644   1.882   2.118  44.515  0.5457  0.3000 -1.5273
 3051TIP3    H230645   1.791   2.001  44.487 -0.9581  0.9519  0.3825
 3052TIP3   OH230646   3.224   1.484  13.468  0.9583 -0.2784 -0.1867
 3052TIP3    H130647   3.166   1.497  13.393  0.1343 -1.1253  0.2955
 3052TIP3    H230648   3.280   1.561  13.468  0.0549  0.3937 -0.8543
 3053TIP3   OH230649   1.559   3.199   9.458  0.2192 -0.0908 -0.1762
 3053TIP3    H130650   1.538   3.158   9.542  1.3076 -0.3467 -0.0140
 3053TIP3    H230651   1.533   3.134   9.393  1.8659 -1.0667  0.0791
 3054TIP3   OH230652   2.424   0.842   6.514 -0.1251 -0.3075  0.3108
 3054TIP3    H130653   2.467   0.858   6.431  0.0427 -0.9290  0.2777
 3054TIP3    H230654   2.372   0.763   6.501  1.1753 -1.3742  1.2520
 3055TIP3   OH230655   0.382   2.246  65.839 -0.2535  0.0888 -0.6442
 3055TIP3    H130656   0.354   2.215  65.753 -0.3645  0.0029 -0.5752
 3055TIP3    H230657   0.459   2.300  65.821 -1.1816  1.3556 -0.9636
 3056TIP3   OH230658   2.903   1.245   8.209 -0.4022  0.1428  0.5855
 3056TIP3    H130659   2.951   1.198   8.141 -1.5642  2.0129 -1.6727
 3056TIP3    H230660   2.857   1.176   8.257  1.3753 -1.3346  0.2991
 3057TIP3   OH230661   2.189   0.471  67.011 -0.4077 -0.6264 -0.1996
 3057TIP3    H130662   2.209   0.378  67.018  2.4991 -0.0692 -0.0166
 3057TIP3    H230663   2.174   0.486  66.917  0.0018 -1.1072 -0.3421
 3058TIP3   OH230664   0.141   1.400  49.890 -0.0573 -0.3314  0.3367
 3058TIP3    H130665   0.048   1.415  49.903 -0.1919 -2.8674  3.3098
 3058TIP3    H230666   0.182   1.485  49.909 -1.6705  0.8931 -1.2704
 3059TIP3   OH230667   2.411   2.090  64.254 -0.2302  0.3954  0.1951
 3059TIP3    H130668   2.412   2.160  64.320 -2.8151 -0.1372  0.9206
 3059TIP3    H230669   2.331   2.041  64.273  1.4851 -2.8129 -0.2947
 3060TIP3   OH230670   0.703   1.308  67.143  0.2271 -0.0300 -0.7029
 3060TIP3    H130671   0.729   1.222  67.112 -0.5201 -0.8691  0.8855
 3060TIP3    H230672   0.746   1.317  67.228 -1.7465  0.0421  0.3473
 3061TIP3   OH230673   1.671   2.684  51.885  0.0876 -0.0956  0.0934
 3061TIP3    H130674   1.633   2.653  51.968  1.4207 -0.2670  0.6589
 3061TIP3    H230675   1.608   2.656  51.819  0.4525 -2.7295  0.7244
 3062TIP3   OH230676   2.599   0.024  20.168  0.3154 -0.1512 -0.0642
 3062TIP3    H130677   2.583  -0.002  20.259 -0.9752 -0.0865 -0.2614
 3062TIP3    H230678   2.512   0.031  20.129  0.5695  3.3145 -0.3394
 3063TIP3   OH230679   0.464   2.891   5.049 -0.7974 -0.3210  0.0494
 3063TIP3    H130680   0.468   2.969   5.104 -0.6705 -0.5976  0.4396
 3063TIP3    H230681   0.535   2.902   4.985 -0.1275 -0.5851  0.7367
 3064TIP3   OH230682   2.662   0.559  27.048  0.6370  0.2717 -0.3382
 3064TIP3    H130683   2.748   0.549  27.007  0.3311 -1.3801 -0.6401
 3064TIP3    H230684   2.671   0.637  27.104  1.9790  0.7656 -1.1960
 3065TIP3   OH230685   2.358   1.929  16.653  0.4813  0.1003 -0.1767
 3065TIP3    H130686   2.370   1.941  16.559 -1.7828 -1.7469 -0.8089
 3065TIP3    H230687   2.274   1.970  16.671  0.8567  0.3546  1.0383
 3066TIP3   OH230688   2.220   0.064  48.464 -0.4602 -0.4025  0.3635
 3066TIP3    H130689   2.262   0.023  48.540  0.8036 -1.0500 -0.6493
 3066TIP3    H230690   2.273   0.037  48.389 -1.5922  0.3380 -0.7518
 3067TIP3   OH230691   0.351   2.239  45.092  0.0375  0.4259 -0.1569
 3067TIP3    H130692   0.400   2.232  45.174 -1.3374  0.2523  0.6811
 3067TIP3    H230693   0.383   2.167  45.038  0.7718  0.3913  0.3120
 3068TIP3   OH230694   3.169   1.021  52.801 -0.3013 -0.2577 -0.1464
 3068TIP3    H130695   3.122   1.104  52.789 -1.3607 -0.8868 -0.3822
 3068TIP3    H230696   3.181   0.986  52.713  1.0447  0.1125 -0.1371
 3069TIP3   OH230697   1.645   2.829  14.526  0.1560  0.2661  0.0306
 3069TIP3    H130698   1.598   2.748  14.546  2.7501 -1.3238  0.1910
 3069TIP3    H230699   1.689   2.810  14.443  1.2863  1.2722  0.3832
 3070TIP3   OH230700   3.352   2.582  55.328 -0.4689  0.3072  0.5649
 3070TIP3    H130701   3.315   2.498  55.356  0.0766  0.1298  0.7715
 3070TIP3    H230702   3.294   2.647  55.367 -0.0382  0.0514  1.6966
 3071TIP3   OH230703   0.876   0.042   6.884  0.1037 -0.0824  0.5258
 3071TIP3    H130704   0.913   0.124   6.852 -1.8252  0.7482  0.2509
 3071TIP3    H230705   0.825   0.067   6.961 -0.7438 -0.9609  0.2730
 3072TIP3   OH230706   0.152   0.769  48.043 -0.0769 -0.3669  0.1417
 3072TIP3    H130707   0.154   0.674  48.030 -0.2473 -0.5081  1.0811
 3072TIP3    H230708   0.244   0.795  48.043 -0.0586 -0.1766 -2.3834
 3073TIP3   OH230709   0.212   3.249  66.544 -0.6095  0.4334 -0.0023
 3073TIP3    H130710   0.138   3.193  66.519 -1.8661  1.8991  0.2921
 3073TIP3    H230711   0.219   3.312  66.473  1.4733 -0.6433 -0.8568
 3074TIP3   OH230712   1.133   2.163   3.781  0.5664 -0.1715 -0.0011
 3074TIP3    H130713   1.177   2.242   3.811 -1.2014  1.2384 -0.9340
 3074TIP3    H230714   1.085   2.131   3.857 -0.0852  0.6636 -0.0439
 3075TIP3   OH230715   1.904   3.342  27.182  0.1235  0.2439 -0.0885
 3075TIP3    H130716   1.918   3.311  27.271  1.4006  0.4146 -0.2078
 3075TIP3    H230717   1.883   3.264  27.132  1.8408 -0.2678 -0.0921
 3076TIP3   OH230718   2.705   0.037  12.519 -0.0503 -0.5284  0.2584
 3076TIP3    H130719   2.639   0.061  12.455  0.2185 -1.0939 -0.2404
 3076TIP3    H230720   2.783   0.086  12.494 -0.3954  0.4925  1.1182
 3077TIP3   OH230721   3.245   0.319   4.131 -0.3021 -0.7167  0.4568
 3077TIP3    H130722   3.226   0.413   4.134  1.6788 -0.3044  1.0173
 3077TIP3    H230723   3.163   0.280   4.101 -1.1334  1.1937  0.0684
 3078TIP3   OH230724   3.412   0.283  13.620  0.4109  0.3700 -0.0107
 3078TIP3    H130725   3.493   0.302  13.572  0.6437  1.9496  0.9439
 3078TIP3    H230726   3.422   0.327  13.703 -0.7214 -0.8913  0.8448
 3079TIP3   OH230727   2.735   2.772  63.987 -0.1026 -0.1926 -0.1881
 3079TIP3    H130728   2.753   2.827  63.911 -1.6833 -0.4253 -0.7591
 3079TIP3    H230729   2.693   2.694  63.952 -0.5200 -0.4792  0.8851
 3080TIP3   OH230730   0.570   2.576  50.425  0.1382 -0.1213 -0.9024
 3080TIP3    H130731   0.582   2.598  50.332 -2.6356  2.9982 -0.7410
 3080TIP3    H230732   0.480   2.543  50.430  0.6551 -1.4108  0.5573
 3081TIP3   OH230733   1.868   0.930   9.025 -0.2220  0.3200  0.1358
 3081TIP3    H130734   1.923   0.852   9.040 -0.2247  0.5018  1.1090
 3081TIP3    H230735   1.874   0.944   8.930  0.3831 -0.4221  0.0466
 3082TIP3   OH230736   1.564   1.845  58.949 -0.2850 -0.4122  0.3805
 3082TIP3    H130737   1.588   1.880  59.034  0.8127 -0.5476  0.1397
 3082TIP3    H230738   1.608   1.760  58.944 -0.5668 -0.5352 -0.2081
 3083TIP3   OH230739   2.635   0.046  45.903 -0.3580  0.7235  0.5958
 3083TIP3    H130740   2.716   0.005  45.872 -1.3611 -0.9550  0.0666
 3083TIP3    H230741   2.639   0.135  45.869 -0.1840 -0.2570 -2.2140
 3084TIP3   OH230742   0.353   2.540   2.585  0.3591 -0.2365 -0.0657
 3084TIP3    H130743   0.404   2.508   2.512  1.3439  1.5119 -0.1979
 3084TIP3    H230744   0.333   2.632   2.563 -0.8477 -0.1876  1.0434
 3085TIP3   OH230745   2.745   1.605  44.000  0.2352  0.3076 -0.5711
 3085TIP3    H130746   2.721   1.691  44.034  0.0371 -0.4511  1.3216
 3085TIP3    H230747   2.671   1.580  43.945 -1.0851  0.1401  1.2000
 3086TIP3   OH230748   2.001   2.092  20.680  0.4354  0.0787 -0.6506
 3086TIP3    H130749   1.951   2.020  20.719 -0.3522  0.2587 -1.2916
 3086TIP3    H230750   2.021   2.150  20.754 -1.2199  0.5274 -0.5208
 3087TIP3   OH230751   1.741   3.179  62.463 -0.0791 -0.2357 -0.3123
 3087TIP3    H130752   1.796   3.107  62.431  0.9153  0.3262  0.0813
 3087TIP3    H230753   1.689   3.204  62.387  0.1127 -0.8722 -0.6663
 3088TIP3   OH230754   2.782   2.580  57.227 -0.1021 -0.5271 -0.3504
 3088TIP3    H130755   2.814   2.539  57.147 -1.9661 -1.7621 -0.5175
 3088TIP3    H230756   2.687   2.586  57.215 -0.5264 -1.3641  2.0147
 3089TIP3   OH230757   2.100   3.125   5.000  0.6819  0.5563  0.0813
 3089TIP3    H130758   2.023   3.181   4.994 -0.4195 -0.8677  0.4491
 3089TIP3    H230759   2.101   3.075   4.919  1.7455  1.1833 -0.3150
 3090TIP3   OH230760   1.441   1.005   9.550  0.0713 -0.5784 -0.0511
 3090TIP3    H130761   1.495   0.959   9.614 -0.7552  0.7701  1.7087
 3090TIP3    H230762   1.375   0.941   9.524  0.0740 -0.9979  0.9156
 3091TIP3   OH230763   2.345   0.880  18.193 -0.4524 -0.2594 -0.2090
 3091TIP3    H130764   2.370   0.793  18.161  0.6926 -0.2145  0.5072
 3091TIP3    H230765   2.382   0.885  18.281  0.2554  1.2772 -0.5564
 3092TIP3   OH230766   0.619   2.245  12.870 -0.5040  0.6783 -0.0383
 3092TIP3    H130767   0.615   2.274  12.779  1.2286  0.1293 -0.3331
 3092TIP3    H230768   0.636   2.325  12.919  0.3576  0.7320 -0.4089
 3093TIP3   OH230769   1.882   0.311  56.373  0.3237  0.1062  0.2352
 3093TIP3    H130770   1.965   0.306  56.326  0.0107 -0.5651 -0.2654
 3093TIP3    H230771   1.907   0.325  56.465  1.0218 -0.8701  0.2105
 3094TIP3   OH230772   1.521   0.560   2.829  0.2535  0.4561 -0.4553
 3094TIP3    H130773   1.615   0.544   2.842  0.4813  3.0391  1.9539
 3094TIP3    H230774   1.513   0.587   2.738  1.8095 -0.0420 -0.7624
 3095TIP3   OH230775   1.683   0.905  53.077  0.4960 -0.2800 -0.2320
 3095TIP3    H130776   1.604   0.957  53.068 -0.1212 -0.6205  2.3721
 3095TIP3    H230777   1.656   0.816  53.056  0.5863 -0.1743 -0.8234
 3096TIP3   OH230778   1.489   0.695  10.730  0.5419  0.6390 -0.3000
 3096TIP3    H130779   1.552   0.708  10.659 -2.1494  0.0620 -3.0034
 3096TIP3    H230780   1.470   0.601  10.727 -1.3058  0.9833 -0.4310
 3097TIP3   OH230781   3.419   0.142  50.060 -0.4916 -0.5912 -0.4563
 3097TIP3    H130782   3.343   0.181  50.103 -1.2321 -3.6877  1.3025
 3097TIP3    H230783   3.419   0.181  49.972 -1.9138  2.1824  0.6370
 3098TIP3   OH230784   3.253   0.022  62.227 -0.2409  0.4543  0.0300
 3098TIP3    H130785   3.348   0.031  62.237 -0.2265 -0.2146  0.5096
 3098TIP3    H230786   3.232   0.077  62.151  0.4936  0.8043  0.0720
 3099TIP3   OH230787   0.562   2.600  66.186  0.0984  0.0660  0.1803
 3099TIP3    H130788   0.565   2.548  66.266  0.3799 -0.7463 -0.3436
 3099TIP3    H230789   0.654   2.621  66.168  0.2461 -1.4312 -0.9779
 3100TIP3   OH230790   1.414   1.556  11.973 -0.6831 -0.4964  0.2726
 3100TIP3    H130791   1.504   1.528  11.987 -0.8729 -2.3080 -1.6492
 3100TIP3    H230792   1.381   1.498  11.905 -2.4865  1.7789 -0.9597
 3101TIP3   OH230793   2.972   0.875  25.947 -0.3328 -0.3010 -0.6738
 3101TIP3    H130794   3.049   0.877  26.004 -0.9999 -0.7382  0.2791
 3101TIP3    H230795   2.955   0.967  25.926 -1.3832  0.1240  1.7069
 3102TIP3   OH230796   2.006   2.623  21.505  0.2225  0.3522 -0.2451
 3102TIP3    H130797   1.995   2.619  21.410  0.7132 -1.9209 -0.2656
 3102TIP3    H230798   2.092   2.664  21.517  0.6215 -0.2798 -0.8354
 3103TIP3   OH230799   2.768   0.230   6.419 -0.1988  0.4731  0.3589
 3103TIP3    H130800   2.748   0.234   6.325  0.3126  0.0559  0.2305
 3103TIP3    H230801   2.696   0.278   6.460 -0.5254  0.5034 -0.2318
 3104TIP3   OH230802   1.447   0.085  59.706 -0.2293 -0.1670 -0.5569
 3104TIP3    H130803   1.425   0.178  59.704  0.4777  0.0639  0.9228
 3104TIP3    H230804   1.498   0.071  59.626  3.1659  1.7074  1.0628
 3105TIP3   OH230805   2.913   1.149  44.002 -0.2390  0.0036 -0.3882
 3105TIP3    H130806   2.871   1.077  43.954 -0.6313  0.4382 -0.7051
 3105TIP3    H230807   2.900   1.225  43.946 -0.1748  0.4000  0.1326
 3106TIP3   OH230808   2.704   1.129   5.843 -0.2130  0.0515 -0.0967
 3106TIP3    H130809   2.764   1.098   5.775 -2.0776 -0.1732 -1.7225
 3106TIP3    H230810   2.618   1.098   5.816 -1.3159  1.6590  1.3305
 3107TIP3   OH230811   2.454   0.116  58.817  0.1965 -0.4031 -0.3751
 3107TIP3    H130812   2.382   0.081  58.764 -0.0908  1.2831 -1.1656
 3107TIP3    H230813   2.529   0.117  58.757  0.1723  0.3946 -0.4018
 3108TIP3   OH230814   0.546   1.829  50.959  0.2429  0.4099  0.1426
 3108TIP3    H130815   0.526   1.915  50.922 -0.4537 -0.1746 -0.8851
 3108TIP3    H230816   0.469   1.808  51.012 -0.0355 -0.0277 -0.4363
 3109TIP3   OH230817   2.180   1.245   6.114 -0.1306 -0.4419  0.0818
 3109TIP3    H130818   2.205   1.166   6.066 -0.4822  1.3177 -3.3146
 3109TIP3    H230819   2.088   1.259   6.091 -0.0908  0.9247  0.6403
 3110TIP3   OH230820   0.793   1.959  12.124  0.0348 -0.0903 -0.1974
 3110TIP3    H130821   0.834   2.020  12.063  1.6244  0.5727  1.4149
 3110TIP3    H230822   0.724   2.009  12.166  1.2677  0.6446  1.0453
 3111TIP3   OH230823   1.018   3.140  17.754 -0.2588 -0.0394  0.3598
 3111TIP3    H130824   1.024   3.055  17.798  2.9066 -0.0954  0.0739
 3111TIP3    H230825   1.053   3.124  17.666  1.8098  1.7568  0.7544
 3112TIP3   OH230826   0.678   3.203  21.316 -0.1814 -0.6226 -0.8306
 3112TIP3    H130827   0.763   3.245  21.316  0.3973 -1.7446 -1.5419
 3112TIP3    H230828   0.672   3.160  21.401 -1.2466  1.7351  0.3567
 3113TIP3   OH230829   2.900   1.613  53.217 -0.1765  0.3155  0.4469
 3113TIP3    H130830   2.921   1.687  53.160 -1.0261 -1.0508 -1.7884
 3113TIP3    H230831   2.945   1.632  53.299  1.6207  2.1245 -0.8564
 3114TIP3   OH230832   3.276   1.244  43.103  0.1121 -0.1396  0.2140
 3114TIP3    H130833   3.326   1.321  43.077  1.9290 -1.7615 -1.4284
 3114TIP3    H230834   3.333   1.197  43.164 -0.8066 -0.3899  0.9011
 3115TIP3   OH230835   0.204   0.748  11.841  0.2846 -0.0758 -0.0577
 3115TIP3    H130836   0.218   0.783  11.753  0.4533 -0.5161 -0.2133
 3115TIP3    H230837   0.221   0.822  11.900  1.1612 -0.0242 -0.3514
 3116TIP3   OH230838   1.548   0.784  61.476  0.1986  0.2926  0.3757
 3116TIP3    H130839   1.643   0.797  61.488  0.2972  0.9863 -1.0256
 3116TIP3    H230840   1.532   0.803  61.384 -1.5475  1.6070  0.8968
 3117TIP3   OH230841   2.153   2.150   5.705  0.5551 -0.0227 -0.0817
 3117TIP3    H130842   2.184   2.061   5.722 -0.1878 -0.8802 -2.6319
 3117TIP3    H230843   2.079   2.161   5.766 -0.7314 -2.0544 -1.1403
 3118TIP3   OH230844   0.691   1.819  36.549 -0.2548  0.3263  0.2692
 3118TIP3    H130845   0.752   1.893  36.549  0.1975 -0.0465  0.1215
 3118TIP3    H230846   0.736   1.750  36.502 -0.8616  0.1002  0.0081
 3119TIP3   OH230847   2.711   3.319   7.678 -0.0753 -0.3013  0.0512
 3119TIP3    H130848   2.736   3.410   7.689  0.1310 -0.5755  2.3630
 3119TIP3    H230849   2.793   3.270   7.691 -0.3573 -0.8681 -0.2495
 3120TIP3   OH230850   3.152   2.266   5.630  0.0059  0.3838 -0.3385
 3120TIP3    H130851   3.173   2.208   5.557 -1.8992  0.2941 -0.8816
 3120TIP3    H230852   3.068   2.306   5.606 -1.4086 -0.6792  2.3374
 3121TIP3   OH230853   0.586   1.174   8.597  0.7330 -0.1727  0.6897
 3121TIP3    H130854   0.622   1.221   8.521 -0.3038  0.0570  0.3251
 3121TIP3    H230855   0.578   1.242   8.664  0.8489 -0.2000  0.7328
 3122TIP3   OH230856   0.280   2.912  20.495 -0.2406 -0.7122  0.6469
 3122TIP3    H130857   0.190   2.879  20.501 -0.5393 -0.8114 -2.5324
 3122TIP3    H230858   0.329   2.838  20.459  0.3978  0.3320 -0.7053
 3123TIP3   OH230859   2.934   3.065   3.507  0.2639 -0.2334 -0.2252
 3123TIP3    H130860   2.915   2.973   3.525  2.3730 -0.6071  0.3534
 3123TIP3    H230861   2.904   3.111   3.585 -0.5868 -0.4335 -0.4201
 3124TIP3   OH230862   0.055   2.758   5.826  0.0182  0.0216 -0.5771
 3124TIP3    H130863   0.028   2.668   5.844 -0.0566  0.0276 -0.6635
 3124TIP3    H230864   0.009   2.811   5.892  0.4538 -0.0559 -0.1967
 3125TIP3   OH230865   1.534   0.522  22.392 -0.3257 -0.2431  0.1264
 3125TIP3    H130866   1.591   0.585  22.436  0.5119 -0.7682 -0.1914
 3125TIP3    H230867   1.506   0.462  22.461  0.6714 -0.8305  0.0454
 3126TIP3   OH230868   2.382   2.964  22.596  1.1790 -0.0142  0.1340
 3126TIP3    H130869   2.445   3.001  22.534  1.7325  0.5684  1.0287
 3126TIP3    H230870   2.406   2.871  22.602  0.7729 -0.2084 -0.9241
 3127TIP3   OH230871   1.844   2.251  12.724  0.3900 -0.2766  0.3742
 3127TIP3    H130872   1.783   2.217  12.658  1.2526 -0.7812 -0.1898
 3127TIP3    H230873   1.868   2.338  12.692  1.8538 -1.0492 -0.7328
 3128TIP3   OH230874   0.631   1.108  55.666  0.2442  0.1458  0.3451
 3128TIP3    H130875   0.620   1.033  55.725 -1.3462  0.2922  0.2658
 3128TIP3    H230876   0.649   1.181  55.724 -0.6291  0.1550  0.6201
 3129TIP3   OH230877   2.575   2.439   0.577 -0.0913 -0.0615 -0.0796
 3129TIP3    H130878   2.491   2.484   0.564 -0.5744 -0.8920  0.0835
 3129TIP3    H230879   2.552   2.346   0.580  0.6066 -0.2238  1.6456
 3130TIP3   OH230880   0.572   1.881  43.212 -0.0613 -0.6405  0.2658
 3130TIP3    H130881   0.501   1.818  43.197 -2.9223  2.0750  1.2650
 3130TIP3    H230882   0.579   1.886  43.307  1.3416 -0.6506  0.1794
 3131TIP3   OH230883   1.474   3.299  43.503  0.5743 -0.0562 -0.0088
 3131TIP3    H130884   1.544   3.363  43.515  1.0787 -0.4124 -0.8913
 3131TIP3    H230885   1.436   3.287  43.590  2.3253 -0.6332  0.7233
 3132TIP3   OH230886   0.275   0.372   0.418  0.4778 -0.4568 -0.6341
 3132TIP3    H130887   0.358   0.413   0.442  0.6942 -0.3507 -1.5322
 3132TIP3    H230888   0.278   0.285   0.458 -1.0643  1.1560  3.5114
 3133TIP3   OH230889   2.610   2.281   2.919  0.0746  0.0994 -0.0258
 3133TIP3    H130890   2.699   2.284   2.885  0.5009 -1.2967  0.8992
 3133TIP3    H230891   2.593   2.371   2.948  0.6824  0.6806 -1.3708
 3134TIP3   OH230892   1.059   2.025  21.342  0.1599 -0.1494  0.2684
 3134TIP3    H130893   0.964   2.021  21.339 -0.5747  4.2609  4.7017
 3134TIP3    H230894   1.082   2.106  21.297  1.7585 -0.6381  0.1184
 3135TIP3   OH230895   1.612   0.335  56.225 -0.2888  0.0314  0.6998
 3135TIP3    H130896   1.643   0.425  56.212  1.1217 -0.3484  1.2471
 3135TIP3    H230897   1.678   0.295  56.280 -1.0468 -1.2790  0.6945
 3136TIP3   OH230898   1.053   2.117  53.462  0.9755 -0.3654  0.5260
 3136TIP3    H130899   1.073   2.073  53.545  0.2663  0.3857  1.1165
 3136TIP3    H230900   1.132   2.167  53.442  0.9381 -0.0731  1.0741
 3137TIP3   OH230901   0.548   1.216  61.010  0.2860 -0.0274 -0.1408
 3137TIP3    H130902   0.557   1.301  60.966 -1.4737  0.0643 -0.3951
 3137TIP3    H230903   0.466   1.181  60.977  0.1895 -1.1192  1.1866
 3138TIP3   OH230904   1.574   1.745  63.406  0.0476 -0.1382  0.5078
 3138TIP3    H130905   1.485   1.727  63.376 -0.2750  0.9003  0.8027
 3138TIP3    H230906   1.595   1.831  63.370  0.4647  0.1697  1.4407
 3139TIP3   OH230907   1.911   0.828   6.473  0.0854  0.2999 -0.2428
 3139TIP3    H130908   1.877   0.739   6.474  2.0102 -0.5316 -1.5130
 3139TIP3    H230909   1.860   0.873   6.406 -1.7141  0.5891  1.2241
 3140TIP3   OH230910   1.242   0.766  56.320 -0.1746  1.1379  0.6230
 3140TIP3    H130911   1.166   0.714  56.297  1.1715 -0.6252 -0.0762
 3140TIP3    H230912   1.262   0.816  56.241  1.9799 -1.8062 -0.8919
 3141TIP3   OH230913   1.483   2.216   5.594  0.3569  0.1119  0.6948
 3141TIP3    H130914   1.503   2.200   5.687  1.6090  0.2257  0.4634
 3141TIP3    H230915   1.567   2.210   5.550 -0.2669 -0.2288 -0.4968
 3142TIP3   OH230916   0.750   2.615   4.912  0.7398 -0.0120 -1.0228
 3142TIP3    H130917   0.811   2.652   4.848  1.6947  0.4888  0.1410
 3142TIP3    H230918   0.741   2.523   4.885  1.1341  0.1833 -1.8669
 3143TIP3   OH230919   2.596   2.243  11.140 -0.2161  0.2624 -0.1207
 3143TIP3    H130920   2.670   2.294  11.171  0.6264  0.0125 -1.5937
 3143TIP3    H230921   2.542   2.306  11.092 -0.5311  0.2753  0.2450
 3144TIP3   OH230922   1.135   3.002  61.519 -0.2557  0.1194 -0.3631
 3144TIP3    H130923   1.139   2.915  61.481  0.9870  0.6795 -1.6176
 3144TIP3    H230924   1.147   2.988  61.613 -1.4480 -1.1531 -0.3764
 3145TIP3   OH230925   0.366   0.681  66.001  0.9888 -0.1430 -0.1955
 3145TIP3    H130926   0.420   0.759  65.990 -0.0702  0.5733 -0.3900
 3145TIP3    H230927   0.277   0.714  66.015  0.7322 -1.2590  1.1290
 3146TIP3   OH230928   1.539   2.975  16.339 -0.2181  0.4323  0.6601
 3146TIP3    H130929   1.630   2.999  16.355 -0.0324  0.6938 -0.6097
 3146TIP3    H230930   1.513   2.923  16.415  1.0056  0.3130  1.0146
 3147TIP3   OH230931   0.039   2.074  58.683  0.0721 -0.7563  0.1314
 3147TIP3    H130932   0.034   2.040  58.772 -0.9760 -1.7480 -0.2891
 3147TIP3    H230933  -0.051   2.078  58.654  0.4777 -1.4446 -1.2667
 3148TIP3   OH230934   2.009   2.559  56.950 -0.3205 -0.0574 -0.2840
 3148TIP3    H130935   2.105   2.560  56.959 -0.3428 -0.3145 -0.0331
 3148TIP3    H230936   1.991   2.631  56.889  0.0112  0.1481 -0.1447
 3149TIP3   OH230937   2.270   3.097  20.556 -0.5568 -0.0840  0.1933
 3149TIP3    H130938   2.222   3.179  20.552 -1.3223 -0.4467  1.4979
 3149TIP3    H230939   2.335   3.109  20.625  0.1203 -0.1896 -0.4033
 3150TIP3   OH230940   2.156   3.378   9.044 -0.2032 -0.6496 -0.0295
 3150TIP3    H130941   2.185   3.300   8.996 -3.6325 -2.9700  1.2537
 3150TIP3    H230942   2.189   3.364   9.133  1.6895  1.0115 -0.3891
 3151TIP3   OH230943   2.900   0.176   3.731 -0.1007  0.1310  0.5148
 3151TIP3    H130944   2.813   0.215   3.724  0.0357  0.4766  0.7138
 3151TIP3    H230945   2.889   0.103   3.792 -0.1796  0.3874  0.8066
 3152TIP3   OH230946   0.931   0.343  44.883  0.5227  0.2502  0.2433
 3152TIP3    H130947   0.952   0.431  44.852  2.0597  0.6166  2.1609
 3152TIP3    H230948   1.006   0.290  44.857 -0.5289 -0.6195 -1.1708
 3153TIP3   OH230949   0.289   2.569  44.515  0.1800  0.4387 -0.0790
 3153TIP3    H130950   0.282   2.610  44.429 -2.4706  0.3341 -0.0084
 3153TIP3    H230951   0.208   2.594  44.559  0.3538 -1.5317  1.4705
 3154TIP3   OH230952   0.346   2.320   7.566  0.1079 -0.1814 -0.5064
 3154TIP3    H130953   0.314   2.247   7.618 -0.7739 -1.5668 -2.8273
 3154TIP3    H230954   0.272   2.380   7.561 -0.4726 -0.9618 -1.6789
 3155TIP3   OH230955   0.131   3.401  66.292 -0.3780  0.2753 -0.3384
 3155TIP3    H130956   0.075   3.475  66.268 -1.0983  0.3197  1.3610
 3155TIP3    H230957   0.083   3.324  66.262 -1.1375  0.3431  0.6611
 3156TIP3   OH230958   0.935   0.120  63.478 -0.3055  0.1307 -0.6930
 3156TIP3    H130959   0.867   0.187  63.483 -1.8226 -1.4027  0.1710
 3156TIP3    H230960   0.892   0.045  63.436  0.4166 -1.3420  1.0517
 3157TIP3   OH230961   0.928   0.129  67.024  0.5162 -0.3748 -0.4455
 3157TIP3    H130962   0.834   0.115  67.037  0.7110 -0.1753  1.6552
 3157TIP3    H230963   0.967   0.100  67.107  2.0439  1.8475 -0.3171
 3158TIP3   OH230964   1.793   1.388   1.095 -0.2308 -0.0209  0.2734
 3158TIP3    H130965   1.714   1.355   1.139  0.7947 -1.4743  1.1155
 3158TIP3    H230966   1.816   1.319   1.033 -0.8279  1.3720 -1.6107
 3159TIP3   OH230967   2.375   3.198   1.552  0.6050 -0.2358  0.4792
 3159TIP3    H130968   2.455   3.146   1.542  0.2640 -0.5731 -0.6910
 3159TIP3    H230969   2.322   3.148   1.613 -0.7824 -2.7179 -2.4577
 3160TIP3   OH230970   3.017   2.919  17.329  0.2895 -0.4446  0.0931
 3160TIP3    H130971   3.052   2.983  17.391  0.7236 -0.6074  0.0222
 3160TIP3    H230972   2.955   2.969  17.276  2.0089  0.4037 -1.2198
 3161TIP3   OH230973   3.238   1.812  17.311 -0.3755 -0.2256 -1.2327
 3161TIP3    H130974   3.270   1.757  17.239  0.7223 -1.1810 -0.0606
 3161TIP3    H230975   3.266   1.900  17.288 -0.3846 -0.4431 -2.1503
 3162TIP3   OH230976   3.386   2.688  50.650  0.6089  0.3166 -0.6158
 3162TIP3    H130977   3.322   2.675  50.581  1.1299 -0.2491 -1.0045
 3162TIP3    H230978   3.334   2.691  50.730 -0.1144  2.1317 -1.1124
 3163TIP3   OH230979   3.350   1.701  67.205 -0.9854 -1.1293 -0.3921
 3163TIP3    H130980   3.285   1.658  67.260 -0.1207 -1.6819  0.2268
 3163TIP3    H230981   3.391   1.766  67.263 -0.2450 -1.5388 -0.4407
 3164TIP3   OH230982   3.191   1.457  44.752 -0.5628  0.4766 -0.7528
 3164TIP3    H130983   3.130   1.385  44.740 -0.9917  0.5925  0.5780
 3164TIP3    H230984   3.213   1.455  44.845  1.8377  0.1508 -1.2476
 3165TIP3   OH230985   2.463   1.692  43.290  0.7167 -0.0831  0.5268
 3165TIP3    H130986   2.509   1.741  43.222 -0.2894 -0.9672 -0.8404
 3165TIP3    H230987   2.409   1.757  43.335  0.7479  0.3630 -0.0762
 3166TIP3   OH230988   0.185   1.445   3.237 -0.1060  0.1761  0.4189
 3166TIP3    H130989   0.188   1.363   3.287 -1.9024 -0.4163 -0.3645
 3166TIP3    H230990   0.264   1.491   3.263  1.9904 -2.5926 -0.5156
 3167TIP3   OH230991   0.678   1.794  48.840  0.0698 -0.1013  0.3654
 3167TIP3    H130992   0.620   1.717  48.844  1.0657 -0.9477 -0.6450
 3167TIP3    H230993   0.739   1.782  48.912  0.3622 -0.3948  0.0747
 3168TIP3   OH230994   1.082   0.052  36.880  0.0378  0.6070 -0.0804
 3168TIP3    H130995   1.020   0.112  36.921 -1.3770  0.1765 -1.5032
 3168TIP3    H230996   1.163   0.102  36.872  0.0484  1.0566  2.1688
 3169TIP3   OH230997   3.383   0.724  62.513  0.2018 -0.0552  0.3256
 3169TIP3    H130998   3.464   0.703  62.468  0.4796 -0.0510  0.8132
 3169TIP3    H230999   3.322   0.750  62.444  1.2716  2.1285  0.1161
 3170TIP3   OH231000   2.131   0.476  43.574 -0.0605 -0.4257 -0.0536
 3170TIP3    H131001   2.049   0.525  43.568 -0.6147 -1.4338 -1.2247
 3170TIP3    H231002   2.167   0.479  43.486  0.8485 -0.5139  0.3096
 3171TIP3   OH231003   0.079   0.752  57.030  0.4250  0.4423 -0.0881
 3171TIP3    H131004   0.002   0.741  57.086  1.8473 -0.0423  1.8540
 3171TIP3    H231005   0.056   0.706  56.949 -1.2094  0.0627  0.5539
 3172TIP3   OH231006   2.119   1.495  14.743  0.0170 -0.1129 -0.8148
 3172TIP3    H131007   2.185   1.515  14.810 -0.2348 -2.4919  0.2664
 3172TIP3    H231008   2.036   1.497  14.791 -0.4162  0.2445 -1.5684
 3173TIP3   OH231009   2.787   2.781  62.878 -0.1277  0.1026  0.4190
 3173TIP3    H131010   2.820   2.735  62.955  0.0302  0.7178  0.7270
 3173TIP3    H231011   2.711   2.729  62.850  0.3066 -0.5841  0.4881
 3174TIP3   OH231012   2.960   0.103   7.983  0.1664 -0.0246  0.6525
 3174TIP3    H131013   2.998   0.189   7.968  1.2968 -0.4526  0.8934
 3174TIP3    H231014   2.926   0.107   8.073 -3.2470  1.3400 -0.5261
 3175TIP3   OH231015   0.889   0.831  21.340  0.8970 -0.6227  0.0616
 3175TIP3    H131016   0.855   0.831  21.251 -3.0850  1.6872  1.3661
 3175TIP3    H231017   0.850   0.753  21.380 -1.8711  1.1512  1.0961
 3176TIP3   OH231018   0.788   0.110  21.630  0.3820 -0.0485  0.0663
 3176TIP3    H131019   0.712   0.156  21.665  0.6803 -0.1801  0.9234
 3176TIP3    H231020   0.787   0.025  21.674  1.3008  0.1362  0.4802
 3177TIP3   OH231021   2.194   1.396  45.442  0.4309 -0.0177 -0.7812
 3177TIP3    H131022   2.226   1.310  45.467  1.1303  0.4883  0.1230
 3177TIP3    H231023   2.132   1.379  45.371 -0.3068 -1.3529  0.1497
 3178TIP3   OH231024   0.433   0.531  48.630  0.3539 -0.2597 -0.2754
 3178TIP3    H131025   0.351   0.484  48.614 -0.3795  1.2624 -1.2796
 3178TIP3    H231026   0.419   0.578  48.712 -0.9708  2.2731 -1.8277
 3179TIP3   OH231027   1.414   2.243  50.159 -0.3469  0.8196 -0.0866
 3179TIP3    H131028   1.448   2.154  50.175 -2.2765 -0.0407 -0.5513
 3179TIP3    H231029   1.448   2.294  50.233  0.2180 -0.4593  0.5817
 3180TIP3   OH231030   2.682   2.737  53.146 -0.2774  0.2286  0.7750
 3180TIP3    H131031   2.644   2.695  53.069  0.8265  0.4807  0.0706
 3180TIP3    H231032   2.607   2.764  53.198 -1.1357  1.4285 -0.9563
 3181TIP3   OH231033   3.328   2.476  54.837  0.0694  0.5187 -0.1380
 3181TIP3    H131034   3.298   2.432  54.758 -0.6965  0.3839  0.2189
 3181TIP3    H231035   3.248   2.505  54.880  0.4380 -0.0381  0.9538
 3182TIP3   OH231036   2.889   3.406  45.856 -0.1096  0.3398 -0.6140
 3182TIP3    H131037   2.924   3.320  45.879 -1.2767  0.0885  0.3481
 3182TIP3    H231038   2.921   3.464  45.926 -0.2915  0.4422 -0.6176
 3183TIP3   OH231039   2.865   2.984   7.092 -0.3463 -0.4392  0.6639
 3183TIP3    H131040   2.907   2.924   7.154 -0.9522 -0.0443  1.4733
 3183TIP3    H231041   2.932   3.000   7.025  0.1873 -1.1752  1.0102
 3184TIP3   OH231042   2.840   0.664  19.329 -0.1358 -0.3113  0.4309
 3184TIP3    H131043   2.913   0.666  19.267  0.4681 -0.8109  1.1071
 3184TIP3    H231044   2.777   0.727  19.294  1.3908  1.4955  0.7680
 3185TIP3   OH231045   3.144   3.145  59.762  0.1913 -0.1650 -0.1601
 3185TIP3    H131046   3.122   3.079  59.829 -0.3906 -0.6778 -0.8417
 3185TIP3    H231047   3.235   3.126  59.739  1.0199  1.1480  1.7537
 3186TIP3   OH231048   0.902   0.577  54.291 -0.1653  0.7143 -0.4331
 3186TIP3    H131049   0.914   0.498  54.343  0.6466 -1.1066 -3.1340
 3186TIP3    H231050   0.960   0.642  54.331  2.4459 -1.4036 -0.5445
 3187TIP3   OH231051   2.619   2.158  60.815 -0.3443  0.8190 -0.0392
 3187TIP3    H131052   2.596   2.240  60.858 -1.5369  1.3529 -1.5802
 3187TIP3    H231053   2.550   2.145  60.750 -0.6278 -1.8251  0.6602
 3188TIP3   OH231054   1.486   2.269   7.573 -0.4545 -0.3313  0.1151
 3188TIP3    H131055   1.494   2.318   7.491  2.2285 -0.4226  0.2125
 3188TIP3    H231056   1.520   2.329   7.640  3.2088 -2.1791  0.1991
 3189TIP3   OH231057   0.621   0.742  53.996 -0.1199  0.7936 -0.1205
 3189TIP3    H131058   0.606   0.763  53.904 -0.3377  0.0184 -0.2740
 3189TIP3    H231059   0.698   0.685  53.995 -1.4705 -1.1548 -0.1084
 3190TIP3   OH231060   0.750   2.818  53.679 -0.1481  0.3713 -0.2417
 3190TIP3    H131061   0.721   2.731  53.652 -1.3855  0.3719  0.9541
 3190TIP3    H231062   0.807   2.803  53.754  0.5470  0.5510 -0.7178
 3191TIP3   OH231063   1.735   0.047  61.071  0.1320 -0.1077 -0.2282
 3191TIP3    H131064   1.811   0.089  61.110 -0.6566  0.1946  1.0445
 3191TIP3    H231065   1.668   0.051  61.139 -0.5344 -1.8032 -0.7336
 3192TIP3   OH231066   2.839   0.676   5.718  0.2031  0.3699  0.4514
 3192TIP3    H131067   2.875   0.755   5.759  0.4780  1.0725 -1.0841
 3192TIP3    H231068   2.784   0.637   5.786  1.2177  1.0799  1.7389
 3193TIP3   OH231069   1.496   1.977  60.573 -0.3215 -0.4646  0.2486
 3193TIP3    H131070   1.408   1.953  60.604  0.7780 -2.9007  1.7764
 3193TIP3    H231071   1.555   1.945  60.640  1.9114 -1.4526 -2.0190
 3194TIP3   OH231072   1.345   3.260  55.948  0.6182  0.0216 -0.0631
 3194TIP3    H131073   1.403   3.299  55.883  2.4405 -0.3918  1.2447
 3194TIP3    H231074   1.309   3.336  55.995  0.3989  0.2621 -0.5998
 3195TIP3   OH231075   1.162   3.387  62.631  0.2597 -0.0841  0.3246
 3195TIP3    H131076   1.120   3.306  62.604  0.1144 -0.4841  1.6543
 3195TIP3    H231077   1.200   3.366  62.717  0.3941  1.1876  0.5928
 3196TIP3   OH231078   1.279   2.627  63.681  0.4684 -0.7021  0.1375
 3196TIP3    H131079   1.216   2.556  63.687  1.3352 -1.4333  0.7273
 3196TIP3    H231080   1.362   2.585  63.658  0.3664  0.4441 -2.7542
 3197TIP3   OH231081   1.297   0.027  12.298 -0.0967 -0.1657  0.0856
 3197TIP3    H131082   1.363  -0.034  12.265 -0.9816 -1.3447  0.3826
 3197TIP3    H231083   1.340   0.112  12.300  1.3100 -0.8531  0.0105
 3198TIP3   OH231084   1.450   1.676  61.955 -0.6307 -0.2497 -0.3780
 3198TIP3    H131085   1.370   1.691  62.004 -0.1953 -0.6000  0.4639
 3198TIP3    H231086   1.443   1.734  61.879 -2.4981 -1.5633 -1.2914
 3199TIP3   OH231087   2.778   0.140   4.851  0.4749 -0.2233 -0.3649
 3199TIP3    H131088   2.750   0.166   4.763 -0.4211  0.2777  0.0538
 3199TIP3    H231089   2.843   0.205   4.876 -0.7529  0.8653  0.1299
 3200TIP3   OH231090   1.734   0.156  57.940  0.1292  0.1061 -0.5121
 3200TIP3    H131091   1.782   0.110  58.009 -0.3798  0.6490  0.2099
 3200TIP3    H231092   1.788   0.233  57.921 -0.8351  1.1858  0.9124
 3201TIP3   OH231093   1.322   2.876   1.859 -0.3105  0.5635 -0.2238
 3201TIP3    H131094   1.370   2.840   1.785 -0.0557  2.6717 -1.1630
 3201TIP3    H231095   1.391   2.901   1.921 -0.4529 -0.0247  0.1803
 3202TIP3   OH231096   1.297   2.168  48.633 -0.0242  0.5255 -0.2647
 3202TIP3    H131097   1.370   2.139  48.578  0.2160 -0.2896  0.4783
 3202TIP3    H231098   1.237   2.210  48.571  1.1043  1.3053 -0.8698
 3203TIP3   OH231099   3.100   1.892  56.876 -0.6836  0.5513 -0.0104
 3203TIP3    H131100   3.011   1.856  56.869 -0.8930  1.3113 -1.5172
 3203TIP3    H231101   3.156   1.826  56.835 -0.7341  0.7345 -0.3738
 3204TIP3   OH231102   0.200   0.074  64.904 -0.3594  0.4247 -0.3850
 3204TIP3    H131103   0.168  -0.016  64.909 -1.1822  0.7180 -0.2337
 3204TIP3    H231104   0.128   0.128  64.937  0.5662  1.0517  0.7391
 3205TIP3   OH231105   0.755   2.485  11.904  0.3015  0.0126 -0.5165
 3205TIP3    H131106   0.844   2.496  11.938  0.9176  0.4788 -2.1907
 3205TIP3    H231107   0.767   2.469  11.811 -1.3401 -0.9743 -0.5960
 3206TIP3   OH231108   1.379   1.496  44.421 -0.4499  0.1149  0.5371
 3206TIP3    H131109   1.344   1.566  44.477  2.5596  2.0732  0.2319
 3206TIP3    H231110   1.461   1.470  44.463  0.1306 -0.8926 -1.0964
 3207TIP3   OH231111   2.892   0.691  10.158  0.0335 -0.0802 -1.2092
 3207TIP3    H131112   2.855   0.766  10.205  2.5102  0.1292  0.6272
 3207TIP3    H231113   2.976   0.723  10.126  0.2206 -1.5019 -2.2151
 3208TIP3   OH231114   3.286   0.363  50.333  0.6012 -0.4459  1.1331
 3208TIP3    H131115   3.330   0.366  50.417  1.0744 -1.6231  0.9438
 3208TIP3    H231116   3.233   0.284  50.336  1.0363 -0.7989  0.1351
 3209TIP3   OH231117   3.423   0.882  43.621  0.5965  0.3097  0.3129
 3209TIP3    H131118   3.435   0.841  43.707  2.9659  0.9551  0.3732
 3209TIP3    H231119   3.433   0.810  43.559 -0.7397 -0.0925  0.5295
 3210TIP3   OH231120   3.389   1.621  15.308  0.1482 -0.5309 -0.7179
 3210TIP3    H131121   3.379   1.600  15.215 -1.3577 -0.7820 -0.5334
 3210TIP3    H231122   3.481   1.646  15.318  0.4081 -0.8134 -2.2057
 3211TIP3   OH231123   3.425   1.692  63.353  0.0146  0.2772  0.4374
 3211TIP3    H131124   3.410   1.639  63.275 -0.4101  0.6512  0.2592
 3211TIP3    H231125   3.426   1.782  63.321  2.3976  0.3066  0.4800
 3212TIP3   OH231126   2.897   0.382  18.833 -0.0779 -0.3493  0.1789
 3212TIP3    H131127   2.907   0.469  18.871  0.2604  0.0770 -0.8573
 3212TIP3    H231128   2.961   0.328  18.879 -0.4593 -0.1195  0.9963
 3213TIP3   OH231129   0.556   1.817  49.794 -0.1784 -0.1289 -0.5659
 3213TIP3    H131130   0.549   1.841  49.886 -0.3607  1.9870 -1.0782
 3213TIP3    H231131   0.650   1.803  49.780 -0.3314 -2.9024  0.4201
 3214TIP3   OH231132   2.191   3.236  19.337 -0.0639  0.0434  0.2135
 3214TIP3    H131133   2.276   3.253  19.297  0.4532 -3.6821 -0.6463
 3214TIP3    H231134   2.206   3.163  19.397 -2.2228  0.9682  2.0506
 3215TIP3   OH231135   3.419   2.214  14.110  0.3664 -0.3858  0.2409
 3215TIP3    H131136   3.323   2.217  14.117  0.1821 -0.1495 -1.8029
 3215TIP3    H231137   3.443   2.131  14.151 -0.7618 -0.7089  0.2825
 3216TIP3   OH231138   2.903   3.154  47.979 -0.2218 -0.2270  0.3028
 3216TIP3    H131139   2.815   3.187  47.962  0.5555  1.0786 -1.4722
 3216TIP3    H231140   2.891   3.059  47.988 -1.5963 -0.3604 -2.0317
 3217TIP3   OH231141   0.432   2.171   0.359  0.0051  0.2413  0.4045
 3217TIP3    H131142   0.494   2.130   0.299  1.0047  1.4571  0.5797
 3217TIP3    H231143   0.480   2.177   0.442 -0.7838  0.0891  0.8798
 3218TIP3   OH231144   3.325   0.816  42.880 -0.4791  0.5533 -0.1653
 3218TIP3    H131145   3.349   0.734  42.836  0.3428  1.5946 -1.7676
 3218TIP3    H231146   3.409   0.857  42.899 -0.7736 -0.1425  3.0988
 3219TIP3   OH231147   0.774   1.392  11.443  0.4138 -0.0533 -0.6110
 3219TIP3    H131148   0.767   1.299  11.464 -3.2580  0.1177 -0.4942
 3219TIP3    H231149   0.756   1.396  11.349 -0.7055  0.6241 -0.3766
 3220TIP3   OH231150   2.564   0.492  20.648 -0.5160 -0.5905 -0.5206
 3220TIP3    H131151   2.538   0.542  20.570 -0.5229 -1.0906 -0.8397
 3220TIP3    H231152   2.637   0.542  20.684 -1.1047  0.1414 -0.3259
 3221TIP3   OH231153   1.302   1.074  18.616 -0.3054  1.0565 -0.0243
 3221TIP3    H131154   1.290   1.155  18.566  0.8669  1.5519  0.4486
 3221TIP3    H231155   1.218   1.029  18.611 -1.0056  2.3580 -0.2143
 3222TIP3   OH231156   0.040   2.140  12.573  0.0375  0.1625 -0.2065
 3222TIP3    H131157   0.013   2.152  12.482 -0.4338  2.4805  0.1662
 3222TIP3    H231158   0.102   2.211  12.589  2.0061 -1.6369  0.6388
 3223TIP3   OH231159   2.214   2.547  56.324 -0.2105 -0.1373 -0.0665
 3223TIP3    H131160   2.242   2.635  56.351 -1.9855  0.6763 -0.6638
 3223TIP3    H231161   2.179   2.508  56.404  0.4379 -0.2508  0.1655
 3224TIP3   OH231162   0.169   1.944  13.487 -0.0028 -0.3694  0.3627
 3224TIP3    H131163   0.083   1.984  13.474  0.8062  1.7949  1.1825
 3224TIP3    H231164   0.229   2.018  13.493  1.8149 -1.7905  0.6485
 3225TIP3   OH231165   1.120   3.073  17.506  0.0140 -0.1903 -0.4650
 3225TIP3    H131166   1.209   3.051  17.534 -0.3724 -1.3625 -0.1280
 3225TIP3    H231167   1.129   3.091  17.412  0.6199 -0.1807 -0.4115
 3226TIP3   OH231168   2.206   1.116  14.245 -0.0460 -0.0098 -0.0913
 3226TIP3    H131169   2.295   1.087  14.222  0.2070 -0.1102  0.9687
 3226TIP3    H231170   2.216   1.207  14.271 -0.3509  0.1422 -0.4938
 3227TIP3   OH231171   1.450   0.441  12.853  0.2240 -0.0928  0.1688
 3227TIP3    H131172   1.494   0.519  12.887  1.1299 -0.4082 -0.2517
 3227TIP3    H231173   1.369   0.474  12.816  1.5126  0.9944 -1.8937
 3228TIP3   OH231174   0.930   2.331  50.093  1.0549 -0.0192  0.1125
 3228TIP3    H131175   1.015   2.306  50.057  1.2983 -0.0651  0.6982
 3228TIP3    H231176   0.875   2.346  50.017  1.5379 -0.1652 -0.2730
 3229TIP3   OH231177   1.050   2.463  55.982 -0.1869  0.2865 -0.3150
 3229TIP3    H131178   1.039   2.524  56.055 -1.8391  0.3110 -0.5431
 3229TIP3    H231179   1.107   2.394  56.016  1.7320  1.9102 -0.0485
 3230TIP3   OH231180   3.122   1.758  58.762 -0.1921 -0.1264 -0.3646
 3230TIP3    H131181   3.087   1.833  58.811 -1.6132 -1.0285  0.0797
 3230TIP3    H231182   3.190   1.722  58.819 -0.9301 -0.3808  0.3772
 3231TIP3   OH231183   2.774   2.968  45.825  0.5124  0.0457  0.0939
 3231TIP3    H131184   2.750   2.893  45.880 -1.0845 -0.2853 -0.9964
 3231TIP3    H231185   2.850   3.006  45.869 -0.3197 -0.5697  2.1851
 3232TIP3   OH231186   2.208   1.911  64.308  0.1731  0.3507  0.1605
 3232TIP3    H131187   2.125   1.955  64.327 -0.4792 -1.5644  2.0958
 3232TIP3    H231188   2.188   1.854  64.234  0.0160  0.5923  0.0201
 3233TIP3   OH231189   1.065   1.152  62.852  0.5258  0.3022 -0.0288
 3233TIP3    H131190   1.021   1.091  62.911  1.4470 -0.5147 -0.1569
 3233TIP3    H231191   1.027   1.134  62.766  0.7989 -0.1125 -0.0676
 3234TIP3   OH231192   2.256   2.760  49.989 -0.7146  0.0296  0.5708
 3234TIP3    H131193   2.247   2.735  49.897 -1.5912  0.6984  0.4678
 3234TIP3    H231194   2.166   2.767  50.021 -0.4207  0.1069  1.4029
 3235TIP3   OH231195   2.485   1.649  53.675 -0.0567 -0.3611 -0.2955
 3235TIP3    H131196   2.486   1.671  53.582 -1.6280 -0.5609 -0.3913
 3235TIP3    H231197   2.550   1.580  53.685  0.1660 -0.2959 -1.2437
 3236TIP3   OH231198   1.630   1.033  16.513  0.2495  0.4036 -0.0240
 3236TIP3    H131199   1.583   1.097  16.460  0.4409  0.0993 -0.5568
 3236TIP3    H231200   1.669   1.085  16.584 -1.6724  0.5500  0.9966
 3237TIP3   OH231201   0.906   1.865  21.052  0.0840  0.1258  0.8371
 3237TIP3    H131202   0.918   1.797  21.118 -0.2757 -1.1913 -0.4142
 3237TIP3    H231203   0.968   1.843  20.983 -0.5251  0.6488  0.1043
 3238TIP3   OH231204   3.355   3.039  65.715 -0.6689  0.0881 -0.2047
 3238TIP3    H131205   3.300   3.044  65.793 -1.2513  1.3787 -0.6699
 3238TIP3    H231206   3.431   2.988  65.742 -0.8441  0.5497  1.2245
 3239TIP3   OH231207   2.803   1.277  17.653  0.0187 -0.0160 -0.0972
 3239TIP3    H131208   2.758   1.314  17.728  0.6838 -1.2001  0.9238
 3239TIP3    H231209   2.873   1.340  17.634  0.9749 -0.5473  1.4490
 3240TIP3   OH231210   1.955   0.697  49.152  0.4601 -0.4222 -0.2958
 3240TIP3    H131211   2.018   0.768  49.135 -0.5013  0.7449  0.7651
 3240TIP3    H231212   1.930   0.709  49.244 -1.2791 -0.8692 -0.6714
 3241TIP3   OH231213   0.752   2.296  36.138  0.4186 -0.1131 -0.0173
 3241TIP3    H131214   0.757   2.240  36.216 -1.1911  2.1398  1.8369
 3241TIP3    H231215   0.659   2.309  36.124  0.7048 -0.1214 -2.1209
 3242TIP3   OH231216   1.332   2.631  18.107 -0.3613 -0.5980  0.3734
 3242TIP3    H131217   1.415   2.677  18.108 -0.0409 -1.0964 -1.2194
 3242TIP3    H231218   1.347   2.555  18.050 -2.0684 -0.3583 -0.4515
 3243TIP3   OH231219   3.399   0.275  21.056 -0.4910  0.3726 -0.1081
 3243TIP3    H131220   3.495   0.286  21.056 -0.3477 -0.8287 -0.1435
 3243TIP3    H231221   3.372   0.305  21.143 -0.1182  0.9739 -0.1909
 3244TIP3   OH231222   1.329   2.430  55.222  0.0493 -0.0112 -0.3874
 3244TIP3    H131223   1.309   2.454  55.312 -0.2283 -1.9099  0.1105
 3244TIP3    H231224   1.243   2.421  55.180  0.1278 -0.5539 -0.4340
 3245TIP3   OH231225   2.238   2.755  51.841 -0.2549  0.2165 -0.0554
 3245TIP3    H131226   2.202   2.679  51.795  0.2507 -0.1752  0.1783
 3245TIP3    H231227   2.329   2.730  51.861 -0.5250  0.2694  1.3741
 3246TIP3   OH231228   1.642   0.063  44.605  0.6057  0.3620  0.6104
 3246TIP3    H131229   1.611   0.153  44.597  1.0374  0.4754  0.1157
 3246TIP3    H231230   1.613   0.035  44.691  0.1689  0.8592  0.6312
 3247TIP3   OH231231   3.084   2.853  13.051  0.2857  0.4385 -0.3273
 3247TIP3    H131232   3.174   2.886  13.053  0.9831 -1.3333  1.2650
 3247TIP3    H231233   3.092   2.760  13.073 -2.1340  0.7789  2.7637
 3248TIP3   OH231234   1.644   0.712  11.547  0.1624  0.0893  0.6364
 3248TIP3    H131235   1.712   0.761  11.593 -0.1133 -0.0191  1.1695
 3248TIP3    H231236   1.637   0.755  11.462  2.1630 -1.0178 -0.1472
 3249TIP3   OH231237   1.929   3.328   7.358  0.1873  0.6081 -0.1361
 3249TIP3    H131238   1.840   3.301   7.381  0.3183  0.8127  0.6682
 3249TIP3    H231239   1.983   3.297   7.431  1.0447 -0.9752 -1.3829
 3250TIP3   OH231240   3.212   2.345  45.965  0.0737 -0.6472 -0.4089
 3250TIP3    H131241   3.204   2.354  46.060  2.0157  0.8916 -0.3378
 3250TIP3    H231242   3.135   2.390  45.930  0.4452  0.6566  0.4051
 3251TIP3   OH231243   1.831   1.430  15.268 -0.1226  0.3390 -0.1717
 3251TIP3    H131244   1.766   1.387  15.213  1.6550 -0.4959 -1.6948
 3251TIP3    H231245   1.880   1.486  15.208  2.3418 -1.1383  0.3377
 3252TIP3   OH231246   2.079   1.619  17.183 -0.3136 -0.6653 -0.0865
 3252TIP3    H131247   2.002   1.583  17.225 -1.4458  0.7591 -0.8573
 3252TIP3    H231248   2.058   1.620  17.090  0.9598 -0.9744 -0.4030
 3253TIP3   OH231249   2.939   1.997  22.516 -0.4035 -0.2513  0.3438
 3253TIP3    H131250   2.958   1.906  22.492  0.6924 -0.4192  1.6847
 3253TIP3    H231251   2.987   2.050  22.452  0.4368 -0.6516  0.6314
 3254TIP3   OH231252   2.556   3.157  60.679  0.3948  0.2612 -0.2513
 3254TIP3    H131253   2.594   3.152  60.591  0.5407 -2.1259 -0.1170
 3254TIP3    H231254   2.579   3.245  60.710 -0.9597  1.7863 -3.1181
 3255TIP3   OH231255   0.250   0.353  61.088  0.2722  0.2807 -0.0718
 3255TIP3    H131256   0.287   0.305  61.162  1.0448  0.6625 -0.1955
 3255TIP3    H231257   0.323   0.363  61.028 -0.2066  0.4893 -0.6230
 3256TIP3   OH231258   1.654   2.322  25.927  0.2396  0.5903  0.0716
 3256TIP3    H131259   1.579   2.306  25.870 -0.3351  0.7291  0.7751
 3256TIP3    H231260   1.692   2.404  25.895  0.3355  0.3108 -0.5395
 3257TIP3   OH231261   2.782   0.745  55.483 -0.2240 -0.0319  0.1782
 3257TIP3    H131262   2.686   0.739  55.482 -0.2912  0.8831  0.0951
 3257TIP3    H231263   2.806   0.760  55.391  0.1331 -1.8970 -0.0608
 3258TIP3   OH231264   3.235   0.904  57.005  0.4202  0.1993 -0.4707
 3258TIP3    H131265   3.183   0.863  56.936 -0.6947 -0.2719  0.5995
 3258TIP3    H231266   3.300   0.957  56.959 -1.0572  0.8657 -1.8731
 3259TIP3   OH231267   2.289   0.092  47.507  0.1786  0.2368  0.1114
 3259TIP3    H131268   2.347   0.030  47.462  1.4784  1.8662 -0.5428
 3259TIP3    H231269   2.340   0.173  47.513 -2.0201  1.7393 -0.4136
 3260TIP3   OH231270   1.304   2.995  54.738 -0.0944  0.4824  0.0913
 3260TIP3    H131271   1.318   3.052  54.814  2.1732 -1.4736  1.2613
 3260TIP3    H231272   1.293   3.056  54.665  0.1393  2.4238  1.5714
 3261TIP3   OH231273   0.523   1.485   5.470  0.2906 -0.2463  0.3094
 3261TIP3    H131274   0.485   1.571   5.451 -0.3202 -0.7823 -1.0791
 3261TIP3    H231275   0.575   1.464   5.393 -0.7736 -1.7353 -0.0655
 3262TIP3   OH231276   0.649   1.205  44.723  0.2136  0.5392 -0.3590
 3262TIP3    H131277   0.580   1.159  44.770 -0.2034  1.5787  0.0913
 3262TIP3    H231278   0.605   1.280  44.683  0.9043  0.6698 -0.8933
 3263TIP3   OH231279   1.889   2.139   2.397 -0.2871  0.0264  0.3982
 3263TIP3    H131280   1.832   2.215   2.409 -1.2310 -0.4830 -0.7138
 3263TIP3    H231281   1.830   2.064   2.393  0.6258 -0.7820  1.3507
 3264TIP3   OH231282   3.219   2.720  63.424  0.3787 -0.4648  0.0429
 3264TIP3    H131283   3.135   2.765  63.415  1.0683  0.8293 -0.1680
 3264TIP3    H231284   3.270   2.776  63.482  0.7038 -1.8428  1.1262
 3265TIP3   OH231285   0.839   2.109  58.051 -0.1604 -0.2454  0.0361
 3265TIP3    H131286   0.757   2.067  58.026 -0.5093 -0.0452  0.8246
 3265TIP3    H231287   0.906   2.063  58.000 -0.6246 -1.2157  0.2901
 3266TIP3   OH231288   0.824   2.519  58.281  0.1511 -0.5886  0.2814
 3266TIP3    H131289   0.865   2.470  58.210 -1.4550  2.4262 -3.0370
 3266TIP3    H231290   0.890   2.583  58.307 -0.1654  0.0549 -0.4625
 3267TIP3   OH231291   0.564   2.113  65.218 -0.5098 -0.7008  0.4043
 3267TIP3    H131292   0.483   2.065  65.206 -0.7415 -0.0305 -0.8884
 3267TIP3    H231293   0.632   2.046  65.217 -0.6913 -0.9813 -2.7359
 3268TIP3   OH231294   2.842   1.812  15.468 -0.0941 -0.3540  0.5370
 3268TIP3    H131295   2.839   1.759  15.548 -0.4583 -0.9567  0.1356
 3268TIP3    H231296   2.775   1.878  15.480  1.0020  0.6446  1.4529
 3269TIP3   OH231297   2.430   1.617  16.544  0.1352 -0.7805 -0.2468
 3269TIP3    H131298   2.470   1.695  16.582  0.4609 -0.2958 -1.5339
 3269TIP3    H231299   2.480   1.544  16.580  1.0294 -0.2852 -0.4721
 3270TIP3   OH231300   2.131   3.423  46.748 -0.4825  0.6893  0.2354
 3270TIP3    H131301   2.226   3.436  46.749 -0.1116 -1.5840 -0.0920
 3270TIP3    H231302   2.103   3.458  46.663  0.1361  0.8206  0.0773
 3271TIP3   OH231303   3.049   1.374  65.842 -0.8241  0.0597 -0.3518
 3271TIP3    H131304   3.084   1.286  65.852 -0.3717  0.2900  0.0964
 3271TIP3    H231305   3.089   1.407  65.762  1.1842  0.8649  0.9030
 3272TIP3   OH231306   0.999   1.111  63.854 -0.0582 -0.0713  0.4345
 3272TIP3    H131307   1.022   1.031  63.901  0.5795 -0.1614 -0.0109
 3272TIP3    H231308   1.057   1.178  63.891  0.5976 -0.1899 -0.3501
 3273TIP3   OH231309   0.583   3.384   4.213 -0.1156  0.2608  0.0158
 3273TIP3    H131310   0.604   3.299   4.249  0.9013 -0.0437 -1.2259
 3273TIP3    H231311   0.654   3.403   4.151 -1.4773  0.9630 -1.4191
 3274TIP3   OH231312   2.334   0.978   2.725  0.1961  0.3683 -0.2244
 3274TIP3    H131313   2.348   0.937   2.639  1.3556  2.4792 -1.1061
 3274TIP3    H231314   2.414   1.028   2.742 -0.4355  0.8349  1.6108
 3275TIP3   OH231315   0.441   1.627  46.551 -0.4953 -0.0009  0.3791
 3275TIP3    H131316   0.448   1.719  46.524  4.1864 -0.4550 -0.8407
 3275TIP3    H231317   0.429   1.632  46.646 -2.8784  1.7558  0.0748
 3276TIP3   OH231318   1.445   3.055  48.566 -0.1018  0.5084 -0.1020
 3276TIP3    H131319   1.408   2.972  48.597 -1.1290  1.7465  2.1686
 3276TIP3    H231320   1.394   3.123  48.610  2.7087  2.3617  0.5441
 3277TIP3   OH231321   1.139   1.096  16.588  0.2972  0.0152  0.6838
 3277TIP3    H131322   1.066   1.134  16.637  0.3609 -4.6159  5.1989
 3277TIP3    H231323   1.103   1.017  16.548  1.9877 -0.1978 -0.5383
 3278TIP3   OH231324   1.845   0.523   7.042 -0.4469  0.8192 -0.4047
 3278TIP3    H131325   1.826   0.591   7.106 -0.8357  0.3105  0.0307
 3278TIP3    H231326   1.856   0.443   7.094  2.6629  0.9968 -0.6288
 3279TIP3   OH231327   1.808   1.203  27.578  0.2017  0.0507 -0.5814
 3279TIP3    H131328   1.810   1.297  27.593 -1.9753  0.8039 -4.0586
 3279TIP3    H231329   1.890   1.185  27.532 -0.1228  0.5852 -1.3843
 3280TIP3   OH231330   0.317   1.410   0.034  0.8882  0.2413  0.2062
 3280TIP3    H131331   0.278   1.372   0.113 -1.0371  1.0794 -0.2716
 3280TIP3    H231332   0.339   1.336  -0.021 -1.5628 -0.3005 -0.1558
 3281TIP3   OH231333   0.507   0.349  43.404 -0.5929 -0.0540  0.0828
 3281TIP3    H131334   0.440   0.313  43.347  0.3131 -2.9806  0.7147
 3281TIP3    H231335   0.587   0.302  43.381  0.4791  0.8594  1.7039
 3282TIP3   OH231336   2.831   2.818   3.578 -0.4256 -0.5193 -0.3124
 3282TIP3    H131337   2.856   2.725   3.580  0.5286 -0.2771 -0.5794
 3282TIP3    H231338   2.775   2.829   3.655 -0.3497 -1.2641 -0.1405
 3283TIP3   OH231339   0.624   2.323   0.082  0.2697  0.3020  0.8407
 3283TIP3    H131340   0.540   2.328   0.037  0.6102  0.4062  0.2116
 3283TIP3    H231341   0.624   2.235   0.122  0.4778 -0.2831 -0.3969
 3284TIP3   OH231342   3.099   2.055  65.257 -0.0729  0.3719  0.3742
 3284TIP3    H131343   3.038   1.998  65.210 -0.9155  1.5820 -0.0713
 3284TIP3    H231344   3.044   2.105  65.317  0.9499 -0.9020  2.4803
 3285TIP3   OH231345   0.701   2.420  43.103 -0.0537 -0.0633 -0.6414
 3285TIP3    H131346   0.732   2.511  43.108 -0.2978  0.0072 -0.4085
 3285TIP3    H231347   0.717   2.394  43.012  0.1645  0.1599 -0.6681
 3286TIP3   OH231348   1.904   2.714  61.775  0.2096  0.0929  0.3053
 3286TIP3    H131349   1.812   2.719  61.803  0.4213  1.2575  0.8736
 3286TIP3    H231350   1.949   2.776  61.832  1.1385  0.4431 -0.7824
 3287TIP3   OH231351   1.741   2.909  20.392 -0.1294  0.1919 -0.5528
 3287TIP3    H131352   1.823   2.952  20.369 -0.2314  0.1417 -1.0250
 3287TIP3    H231353   1.739   2.909  20.488 -0.3178  1.6305 -0.5332
 3288TIP3   OH231354   2.790   1.815  54.546  0.5063  0.4122  0.7428
 3288TIP3    H131355   2.781   1.883  54.480  0.5266  0.0112  0.3244
 3288TIP3    H231356   2.863   1.761  54.516 -0.1136 -0.3528  0.5590
 3289TIP3   OH231357   0.305   2.739  21.769 -0.8832 -0.3356 -0.3851
 3289TIP3    H131358   0.264   2.683  21.836 -1.4446  0.3314 -0.1548
 3289TIP3    H231359   0.357   2.679  21.716  0.2022 -0.7734  1.1133
 3290TIP3   OH231360   1.263   1.368  10.985 -0.6499 -0.0102 -0.2856
 3290TIP3    H131361   1.189   1.378  11.045  1.2175  1.5933  1.9680
 3290TIP3    H231362   1.247   1.432  10.916 -0.8737  1.1944  0.8239
 3291TIP3   OH231363   3.383   0.995  14.445 -0.6300  0.1073 -0.0228
 3291TIP3    H131364   3.373   0.949  14.362 -0.1860  0.2469 -0.1562
 3291TIP3    H231365   3.303   0.975  14.494 -1.0697  0.3410 -0.6385
 3292TIP3   OH231366   2.929   1.850  18.905  0.5320 -0.0398 -0.0888
 3292TIP3    H131367   2.894   1.905  18.835  2.0813 -1.2738 -1.9254
 3292TIP3    H231368   2.974   1.911  18.964  0.6115  0.8637 -1.0626
 3293TIP3   OH231369   0.633   2.370  45.845  0.0929  0.4759 -0.0680
 3293TIP3    H131370   0.662   2.413  45.926  2.7135 -0.1790 -0.5599
 3293TIP3    H231371   0.553   2.417  45.820 -0.7659  0.7641  2.8144
 3294TIP3   OH231372   0.011   1.138  41.699 -0.0634  0.0831 -0.5314
 3294TIP3    H131373  -0.024   1.153  41.787 -0.0902  0.6544 -0.6343
 3294TIP3    H231374  -0.058   1.088  41.654 -0.1987  0.0897 -0.3317
 3295TIP3   OH231375   2.559   0.129   8.518 -0.3252 -0.4915 -0.6053
 3295TIP3    H131376   2.623   0.189   8.557 -0.8745 -1.7389  2.5062
 3295TIP3    H231377   2.476   0.177   8.522 -0.3836 -0.6203 -0.1229
 3296TIP3   OH231378   2.521   3.271  55.302 -0.0074  0.3071 -0.5040
 3296TIP3    H131379   2.480   3.238  55.222 -1.2455  2.6159 -0.9194
 3296TIP3    H231380   2.562   3.194  55.342 -2.2752 -1.5988 -1.5828
 3297TIP3   OH231381   3.040   2.298  58.086 -0.0129  0.3295  0.0830
 3297TIP3    H131382   3.067   2.232  58.022  0.8355 -0.0052  0.7698
 3297TIP3    H231383   2.998   2.247  58.156  1.9268  0.3183  1.3122
 3298TIP3   OH231384   0.643   1.003  52.426  0.2399  0.0461  0.0234
 3298TIP3    H131385   0.652   0.929  52.485  1.8470 -0.3062 -0.5914
 3298TIP3    H231386   0.569   0.981  52.369 -0.1990 -0.4072  0.7628
 3299TIP3   OH231387   0.312   0.352  30.445 -0.5101 -1.0376 -0.0476
 3299TIP3    H131388   0.364   0.409  30.502 -0.6565 -1.1158  0.1673
 3299TIP3    H231389   0.227   0.395  30.439 -1.1253 -1.9714  1.3465
 3300TIP3   OH231390   0.833   0.675  19.675 -0.3256  0.3179 -0.5711
 3300TIP3    H131391   0.881   0.633  19.746  2.1415 -0.8250 -2.7509
 3300TIP3    H231392   0.870   0.637  19.595 -2.9570  1.5237 -2.5047
 3301TIP3   OH231393   0.058   3.339   5.209  0.2266 -0.1314  0.4594
 3301TIP3    H131394   0.043   3.340   5.304 -0.2845 -0.6086  0.3875
 3301TIP3    H231395   0.042   3.430   5.182 -0.6600 -0.2123  0.6757
 3302TIP3   OH231396   0.975   1.027  10.147 -0.3646  0.4013  0.7035
 3302TIP3    H131397   0.911   0.978  10.096  0.6656 -2.0877  1.6550
 3302TIP3    H231398   1.060   1.002  10.110  0.2604  0.4273  2.0545
 3303TIP3   OH231399   0.155   3.013   8.466  0.7624  0.1921  0.1741
 3303TIP3    H131400   0.085   2.997   8.530  1.8475 -1.2650  1.0627
 3303TIP3    H231401   0.172   3.107   8.472 -0.6106  0.4478  0.4605
 3304TIP3   OH231402   0.320   0.530  62.747  0.3735 -0.4121  0.3365
 3304TIP3    H131403   0.348   0.440  62.729  0.7951 -0.1711 -0.2324
 3304TIP3    H231404   0.401   0.579  62.757  0.1935  0.2980 -1.3497
 3305TIP3   OH231405   0.560   2.507  60.504 -0.4051  0.6434  0.4235
 3305TIP3    H131406   0.628   2.557  60.459 -0.1756 -0.0248  0.0104
 3305TIP3    H231407   0.607   2.460  60.573 -0.5625  0.7072  0.5766
 3306TIP3   OH231408   1.796   0.224  44.994  0.8536 -0.3254 -0.1395
 3306TIP3    H131409   1.825   0.270  44.915  0.7186 -0.7183 -0.4183
 3306TIP3    H231410   1.827   0.279  45.066  1.2954 -0.1558 -0.4566
 3307TIP3   OH231411   2.261   0.566  63.276  0.3498  0.1245  0.0682
 3307TIP3    H131412   2.346   0.587  63.315 -0.2520  0.7567  1.0876
 3307TIP3    H231413   2.276   0.571  63.182  1.3862  0.4546  0.2386
 3308TIP3   OH231414   3.273   0.514  56.592  0.3479 -0.0835  0.6145
 3308TIP3    H131415   3.294   0.425  56.622 -0.8511 -0.8467 -0.6694
 3308TIP3    H231416   3.226   0.501  56.510 -0.3626  1.7357  0.6880
 3309TIP3   OH231417   0.783   1.216  43.051 -0.1171 -0.0702 -0.4262
 3309TIP3    H131418   0.771   1.123  43.069 -1.0633  0.0151 -0.5887
 3309TIP3    H231419   0.875   1.224  43.027 -0.1257 -1.0307 -0.8200
 3310TIP3   OH231420   3.315   2.457  14.915 -0.1725 -0.3890  0.1926
 3310TIP3    H131421   3.286   2.366  14.925  1.2605 -0.8618  0.2585
 3310TIP3    H231422   3.404   2.458  14.951  0.1989  0.8120 -0.7015
 3311TIP3   OH231423   1.223   2.778  45.139  0.3062  0.3741 -0.0513
 3311TIP3    H131424   1.148   2.812  45.188  0.0188  0.8424 -0.8069
 3311TIP3    H231425   1.215   2.817  45.052  0.4246 -0.9921 -0.6988
 3312TIP3   OH231426   0.247   3.404  22.509 -0.6142 -0.7977  0.0498
 3312TIP3    H131427   0.286   3.332  22.560  3.0915  0.0194 -1.3442
 3312TIP3    H231428   0.220   3.363  22.427  1.6604 -0.7032 -0.8172
 3313TIP3   OH231429   1.304   1.177   0.201 -0.3824 -0.8976  0.3489
 3313TIP3    H131430   1.335   1.189   0.111 -0.7017 -0.3984  0.3025
 3313TIP3    H231431   1.305   1.082   0.214 -1.2123 -1.0337 -0.4891
 3314TIP3   OH231432   3.153   1.425  58.373 -0.3159 -0.3062  0.0956
 3314TIP3    H131433   3.211   1.396  58.443  1.0691 -2.0998 -1.6584
 3314TIP3    H231434   3.083   1.472  58.417  1.8609  0.9848  2.4320
 3315TIP3   OH231435   1.339   2.912  50.970  0.5930  0.3570  0.1323
 3315TIP3    H131436   1.369   2.850  50.904 -0.1510  0.2318 -0.0945
 3315TIP3    H231437   1.309   2.857  51.043  1.8072  0.5012  0.7642
 3316TIP3   OH231438   0.758   2.323   4.860  0.1754 -0.2659  0.0965
 3316TIP3    H131439   0.811   2.246   4.836  0.1184 -1.2075  2.6500
 3316TIP3    H231440   0.669   2.288   4.872 -0.4899  0.7877 -1.4969
 3317TIP3   OH231441   1.895   2.601  45.349  0.3149  0.6469 -0.2655
 3317TIP3    H131442   1.808   2.563  45.344  0.1666  0.7398  1.2149
 3317TIP3    H231443   1.953   2.537  45.307 -0.0261 -0.8872  1.5236
 3318TIP3   OH231444   0.766   1.937  65.188 -0.4406  0.1314  0.0677
 3318TIP3    H131445   0.693   1.900  65.140 -0.1589  0.0776 -0.3245
 3318TIP3    H231446   0.826   1.864  65.202  0.6461  0.6353 -1.6850
 3319TIP3   OH231447   0.488   1.078  65.818  0.3214  0.2949  0.0821
 3319TIP3    H131448   0.531   1.144  65.873 -0.2012  0.5077  0.2422
 3319TIP3    H231449   0.518   0.994  65.853 -0.3183  0.4162  0.9579
 3320TIP3   OH231450   3.344   0.409  42.478  0.5051  0.5318  0.6402
 3320TIP3    H131451   3.318   0.346  42.546  2.9229 -1.5568 -0.1952
 3320TIP3    H231452   3.424   0.449  42.513  1.0086  0.4296 -0.3759
 3321TIP3   OH231453   2.498   3.099  46.864 -0.0326 -0.3564  0.1931
 3321TIP3    H131454   2.452   3.114  46.946 -2.8648 -1.0316 -1.1506
 3321TIP3    H231455   2.520   3.187  46.832 -0.3847 -0.0177  0.8679
 3322TIP3   OH231456   0.806   2.906  21.327 -0.4172  0.2784 -0.2029
 3322TIP3    H131457   0.772   2.819  21.305 -0.8267  0.1688  0.7851
 3322TIP3    H231458   0.901   2.899  21.313 -0.6946  0.4170 -2.4316
 3323TIP3   OH231459   2.937   0.149  48.961  0.1083 -0.3244 -0.2999
 3323TIP3    H131460   2.931   0.116  49.051  1.8930 -0.9216 -0.3669
 3323TIP3    H231461   2.933   0.070  48.906  0.0371 -0.0526 -0.6881
 3324TIP3   OH231462   1.692   2.002  14.717  0.1552  0.4343  0.2539
 3324TIP3    H131463   1.613   2.015  14.664  0.1898  2.8700  0.6417
 3324TIP3    H231464   1.673   2.050  14.798  1.6730  0.2383  0.7479
 3325TIP3   OH231465   0.215   3.029  14.461 -0.6683  0.2929 -0.0292
 3325TIP3    H131466   0.296   2.983  14.485  0.2210  2.1840  0.8495
 3325TIP3    H231467   0.179   3.059  14.545 -1.6660  0.4670 -0.5047
 3326TIP3   OH231468   2.155   0.013  62.265 -0.3833  0.0615  0.2378
 3326TIP3    H131469   2.216   0.052  62.203 -1.5485  0.5992 -0.6088
 3326TIP3    H231470   2.081  -0.015  62.211 -0.3622 -1.7176  1.0717
 3327TIP3   OH231471   2.244   1.399   2.882 -0.0310  0.0789  0.4483
 3327TIP3    H131472   2.234   1.424   2.974 -1.3302  0.8311  0.1139
 3327TIP3    H231473   2.267   1.306   2.885  3.9115  0.8939  1.6748
 3328TIP3   OH231474   0.533   0.504  31.399 -0.0056 -0.0724  0.5208
 3328TIP3    H131475   0.462   0.502  31.335  0.9001 -1.4298 -0.4874
 3328TIP3    H231476   0.491   0.482  31.482 -1.3634  2.5847  0.6445
 3329TIP3   OH231477   1.633   0.866  61.808 -0.0933 -0.0944  0.1840
 3329TIP3    H131478   1.550   0.830  61.777  0.0527  0.0136 -0.3362
 3329TIP3    H231479   1.620   0.878  61.902 -0.9734  0.7624 -0.0349
 3330TIP3   OH231480   1.847   1.092  19.607  0.4969  0.0735  0.2966
 3330TIP3    H131481   1.840   1.005  19.568  2.4933 -0.2290  0.4912
 3330TIP3    H231482   1.797   1.086  19.689  1.2407 -1.1693  0.6970
 3331TIP3   OH231483   2.807   1.953  52.667  0.4651 -0.2521 -0.4465
 3331TIP3    H131484   2.847   1.879  52.713 -0.1691 -0.3116  0.0077
 3331TIP3    H231485   2.713   1.938  52.673  0.2268  1.5461  1.2896
 3332TIP3   OH231486   1.139   2.562  34.945  0.2432 -0.5212  0.0391
 3332TIP3    H131487   1.214   2.505  34.955 -1.7314 -3.4905 -0.6903
 3332TIP3    H231488   1.071   2.524  35.001 -0.3946  2.8657  1.8234
 3333TIP3   OH231489   2.185   1.458  62.925 -0.2753  0.2866 -0.1349
 3333TIP3    H131490   2.119   1.525  62.938 -1.3757 -0.1951 -2.5500
 3333TIP3    H231491   2.145   1.398  62.861  1.6411 -1.2505  0.0272
 3334TIP3   OH231492   2.118   1.491  54.612  0.1482 -0.3676  0.3512
 3334TIP3    H131493   2.041   1.532  54.651 -1.4207 -1.0359 -1.8904
 3334TIP3    H231494   2.187   1.558  54.620 -1.6356  1.7671 -0.8516
 3335TIP3   OH231495   1.177   1.541  17.811 -0.1540 -0.2229 -0.6384
 3335TIP3    H131496   1.109   1.591  17.854  1.6186  2.9992 -1.2076
 3335TIP3    H231497   1.156   1.548  17.717  2.1209  3.1770 -1.0893
 3336TIP3   OH231498   3.157   2.425  63.935  0.7564 -0.0442 -0.4552
 3336TIP3    H131499   3.151   2.491  64.004  0.3605 -0.2637 -0.2733
 3336TIP3    H231500   3.191   2.472  63.859  0.1216  0.4546 -0.4391
 3337TIP3   OH231501   1.275   2.429   9.210 -0.1294 -0.2510  0.0071
 3337TIP3    H131502   1.259   2.497   9.275 -0.2794 -1.4234  1.2460
 3337TIP3    H231503   1.189   2.407   9.176 -0.1417 -0.1903 -0.0002
 3338TIP3   OH231504   2.128   1.279  65.625 -0.3043 -0.1561  0.4492
 3338TIP3    H131505   2.099   1.340  65.557 -1.5732 -0.6657  0.4888
 3338TIP3    H231506   2.200   1.324  65.669 -0.8918  1.1052  0.1639
 3339TIP3   OH231507   2.429   0.149  15.510 -0.1783  0.2632 -0.2541
 3339TIP3    H131508   2.361   0.129  15.446  0.7760  1.8910 -1.8736
 3339TIP3    H231509   2.385   0.199  15.578 -0.9157 -0.2296 -0.3552
 3340TIP3   OH231510   0.526   2.022  51.248 -0.1857  0.4694 -0.9724
 3340TIP3    H131511   0.597   1.959  51.237 -0.9625 -1.5281  3.2464
 3340TIP3    H231512   0.570   2.107  51.255  1.8127 -0.5952  0.6515
 3341TIP3   OH231513   2.252   3.441  65.546  0.1088 -0.1794  0.0147
 3341TIP3    H131514   2.251   3.537  65.542 -0.8680 -0.0969  1.3200
 3341TIP3    H231515   2.188   3.414  65.479 -0.8579  0.1767  0.7656
 3342TIP3   OH231516   0.407   0.452   4.597 -0.0647 -0.0639  0.0381
 3342TIP3    H131517   0.388   0.499   4.678 -0.4397 -1.0786  0.5585
 3342TIP3    H231518   0.398   0.518   4.528  1.5727  1.1325  0.9156
 3343TIP3   OH231519   1.928   1.363  50.447 -0.6431 -0.5909 -0.0723
 3343TIP3    H131520   1.868   1.383  50.519 -0.4662 -1.6819  0.4034
 3343TIP3    H231521   2.012   1.399  50.475 -0.8397  0.0256 -0.2684
 3344TIP3   OH231522   1.082   1.212   7.745  0.2389 -0.2435  0.1907
 3344TIP3    H131523   1.063   1.292   7.795  1.1945 -1.2967  2.3905
 3344TIP3    H231524   1.080   1.143   7.811 -1.0886 -2.1533 -1.7465
 3345TIP3   OH231525   2.218   0.554  61.260 -0.0899  0.3270 -0.4243
 3345TIP3    H131526   2.134   0.598  61.265 -0.7795 -0.9894 -0.0132
 3345TIP3    H231527   2.204   0.482  61.199  0.8467  0.3135 -0.6398
 3346TIP3   OH231528   2.036   2.087  65.934  0.4598 -0.3761 -0.0912
 3346TIP3    H131529   2.007   2.092  66.025  1.2453 -1.1534  0.2156
 3346TIP3    H231530   2.124   2.050  65.939  1.0582  0.8505 -1.0861
 3347TIP3   OH231531   2.389   1.659  21.514 -0.5426  0.0743  0.0259
 3347TIP3    H131532   2.398   1.566  21.495 -0.2633 -0.0336  0.6934
 3347TIP3    H231533   2.446   1.675  21.589  2.0760  1.4730 -2.1158
 3348TIP3   OH231534   2.187   3.028  12.615  0.1289 -0.0879  0.5659
 3348TIP3    H131535   2.163   3.110  12.571 -1.3194 -0.9806 -0.3971
 3348TIP3    H231536   2.278   3.042  12.644  0.1907  1.5458 -0.2863
 3349TIP3   OH231537   2.164   1.691  49.968 -0.3874 -0.0591 -0.4729
 3349TIP3    H131538   2.104   1.697  50.042  0.4054  0.5769  0.1379
 3349TIP3    H231539   2.186   1.598  49.962 -0.3154 -0.0859  0.2059
 3350TIP3   OH231540   2.454   1.496  54.967 -0.3767 -0.2946  0.7020
 3350TIP3    H131541   2.467   1.428  55.034 -2.9843 -0.7924  0.8154
 3350TIP3    H231542   2.496   1.461  54.889 -0.2883 -1.3156  1.1814
 3351TIP3   OH231543   2.012   1.468  47.115  0.3070 -0.0764  0.1640
 3351TIP3    H131544   1.992   1.397  47.054  1.7108 -1.7288  1.5060
 3351TIP3    H231545   2.098   1.499  47.088  0.0984  0.4979  0.1495
 3352TIP3   OH231546   2.119   2.824  55.787 -0.6378 -0.0337 -0.4410
 3352TIP3    H131547   2.046   2.867  55.833 -1.2136  0.0164 -1.3689
 3352TIP3    H231548   2.157   2.765  55.852 -0.6691  0.9137  0.4566
 3353TIP3   OH231549   3.013   0.102  57.771 -0.3377 -0.2746  0.0834
 3353TIP3    H131550   3.032   0.092  57.865 -2.1064  1.1526  0.6676
 3353TIP3    H231551   3.056   0.184  57.748 -1.1194  0.1325  0.0381
 3354TIP3   OH231552   1.037   1.692   3.598  0.1892  0.3528 -0.3798
 3354TIP3    H131553   1.101   1.751   3.639 -0.0366  0.3105  0.0349
 3354TIP3    H231554   1.072   1.604   3.615 -0.5537  0.2663  0.8586
 3355TIP3   OH231555   2.259   3.260   7.807 -0.1148 -0.2895  0.4440
 3355TIP3    H131556   2.258   3.348   7.844 -0.4470 -0.4724  0.8760
 3355TIP3    H231557   2.181   3.257   7.751  0.3601 -0.0290 -0.2458
 3356TIP3   OH231558   2.197   1.741  66.328  0.0600  0.0275  0.0054
 3356TIP3    H131559   2.129   1.703  66.383  0.6443 -0.1611  0.6066
 3356TIP3    H231560   2.161   1.736  66.239 -1.0546  0.6985  0.4038
 3357TIP3   OH231561   2.955   0.745   1.011 -0.0304  0.6312 -0.2314
 3357TIP3    H131562   2.983   0.721   1.100 -0.9888 -2.3201 -0.5999
 3357TIP3    H231563   3.036   0.772   0.967  0.6595  0.9883  1.2099
 3358TIP3   OH231564   0.175   0.476  20.972 -0.4164 -0.0509 -0.0207
 3358TIP3    H131565   0.097   0.511  20.929 -0.1811  2.2397  1.2751
 3358TIP3    H231566   0.240   0.469  20.902 -0.6918  1.5596 -0.4849
 3359TIP3   OH231567   0.218   1.902   7.495 -0.4388 -0.2107 -0.1488
 3359TIP3    H131568   0.226   1.977   7.437 -0.5368 -0.5395 -0.5890
 3359TIP3    H231569   0.182   1.832   7.440  0.5487 -0.8607  0.0023
 3360TIP3   OH231570   1.153   1.542  22.709 -0.3015  0.1460 -0.1597
 3360TIP3    H131571   1.137   1.623  22.662  0.7874 -0.4996 -1.7202
 3360TIP3    H231572   1.117   1.473  22.653 -0.1135 -0.5628  0.5582
 3361TIP3   OH231573   1.602   2.418  55.286  0.2505  0.7338 -0.0142
 3361TIP3    H131574   1.516   2.391  55.252  0.8735 -1.2337 -0.1330
 3361TIP3    H231575   1.659   2.343  55.271  1.6723  1.4784  1.3152
 3362TIP3   OH231576   2.196   0.354  14.478 -0.2913 -0.0375  0.0629
 3362TIP3    H131577   2.288   0.381  14.479 -0.5619  0.9444  1.1331
 3362TIP3    H231578   2.171   0.358  14.386  1.4039 -2.8702 -0.6484
 3363TIP3   OH231579   2.684   0.902  57.214 -0.3458  0.3881 -0.5413
 3363TIP3    H131580   2.745   0.937  57.279 -0.6700  0.1191 -0.0919
 3363TIP3    H231581   2.730   0.913  57.130  0.9644 -1.1799 -0.0735
 3364TIP3   OH231582   2.288   0.507  47.637 -0.0672  0.7525  0.0597
 3364TIP3    H131583   2.257   0.456  47.563 -0.8217  1.0549  0.1575
 3364TIP3    H231584   2.312   0.592  47.599  0.7324  0.4947 -0.0273
 3365TIP3   OH231585   0.794   1.314  66.422 -0.5568 -0.9721  0.4280
 3365TIP3    H131586   0.825   1.402  66.444 -2.1782 -0.3718  0.3841
 3365TIP3    H231587   0.874   1.261  66.419  0.6880  0.8599 -1.4126
 3366TIP3   OH231588   2.398   0.060  17.624  0.0022  0.3158 -0.6102
 3366TIP3    H131589   2.386   0.133  17.685  0.2548  0.7036 -1.0174
 3366TIP3    H231590   2.442   0.099  17.549  1.3811 -0.5289 -0.2754
 3367TIP3   OH231591   2.119   2.762  28.285 -0.0748 -0.3642  0.0960
 3367TIP3    H131592   2.210   2.732  28.278  0.8340  1.4040  2.7384
 3367TIP3    H231593   2.118   2.845  28.238  0.1204  0.3503  1.3113
 3368TIP3   OH231594   2.020   1.469  21.238 -0.0039  1.1454  0.0280
 3368TIP3    H131595   1.962   1.506  21.304  0.3015 -0.4511  1.2340
 3368TIP3    H231596   2.012   1.375  21.248  1.1003  0.8688 -1.3075
 3369TIP3   OH231597   1.189   2.893  10.170 -0.2414  0.1433  0.4855
 3369TIP3    H131598   1.273   2.855  10.145 -1.3947 -1.2774 -1.5894
 3369TIP3    H231599   1.150   2.829  10.230  0.9181  1.7640  3.1406
 3370TIP3   OH231600   2.448   0.386  66.170  0.0710  0.0322 -0.3892
 3370TIP3    H131601   2.534   0.378  66.212 -0.9190  0.2631  1.8188
 3370TIP3    H231602   2.451   0.322  66.099  3.0170  1.9645 -2.2092
 3371TIP3   OH231603   0.203   2.128   1.405 -0.3948  0.2430  0.2339
 3371TIP3    H131604   0.261   2.200   1.380  0.2171  0.2286  1.5325
 3371TIP3    H231605   0.231   2.105   1.494  0.0915 -2.2505 -0.4840
 3372TIP3   OH231606   2.175   1.371   5.132 -0.2514  0.5039  0.0016
 3372TIP3    H131607   2.097   1.319   5.147 -0.6119  0.2791 -2.3181
 3372TIP3    H231608   2.156   1.455   5.174 -0.7253 -0.3219  1.5071
 3373TIP3   OH231609   2.754   2.761  59.623 -0.5518  0.1754  0.0813
 3373TIP3    H131610   2.828   2.759  59.564 -0.0405  0.3074  0.7060
 3373TIP3    H231611   2.738   2.854  59.639 -0.4888  0.1342  0.3931
 3374TIP3   OH231612   3.052   1.817  61.882  0.3977 -0.4314  0.4518
 3374TIP3    H131613   3.107   1.842  61.956  0.4231 -0.3896  0.4195
 3374TIP3    H231614   3.009   1.736  61.910 -0.6901  0.3299  1.0747
 3375TIP3   OH231615   0.265   1.851  11.514 -0.0513  0.3056  0.5308
 3375TIP3    H131616   0.197   1.918  11.515 -0.0026  0.3669 -0.1755
 3375TIP3    H231617   0.217   1.768  11.521 -0.0654  0.4125  2.4682
 3376TIP3   OH231618   1.158   1.124  20.232  0.1036 -0.2569 -0.3420
 3376TIP3    H131619   1.165   1.115  20.137 -0.6877 -0.0999 -0.4197
 3376TIP3    H231620   1.247   1.146  20.260 -0.3329  3.7552 -1.4866
 3377TIP3   OH231621   1.111   1.036  52.459  0.2097 -0.3717  0.3125
 3377TIP3    H131622   1.188   1.093  52.453  0.4649 -0.8371 -1.5514
 3377TIP3    H231623   1.138   0.965  52.517  0.2916  0.7601  1.7056
 3378TIP3   OH231624   1.655   0.770  16.089  0.4666  0.2358  0.1419
 3378TIP3    H131625   1.695   0.709  16.028  0.1570  0.1786 -0.0084
 3378TIP3    H231626   1.566   0.737  16.100 -0.4719  1.9206 -1.7237
 3379TIP3   OH231627   0.662   2.963  36.567  0.1371  0.9104  0.9030
 3379TIP3    H131628   0.593   2.920  36.616  1.4772 -0.9839  1.2298
 3379TIP3    H231629   0.615   3.021  36.506 -1.7236 -0.4183  0.9901
 3380TIP3   OH231630   1.373   0.337  18.170  0.3635  0.0634 -0.1018
 3380TIP3    H131631   1.416   0.379  18.096  0.4401 -0.1231 -0.1654
 3380TIP3    H231632   1.416   0.374  18.247  1.0297 -0.5268 -0.1751
 3381TIP3   OH231633   2.318   0.350   2.212  0.3114  0.0687  0.1222
 3381TIP3    H131634   2.290   0.260   2.196 -1.0438  0.8302 -2.3771
 3381TIP3    H231635   2.258   0.403   2.160 -0.2500  2.6221  3.0820
 3382TIP3   OH231636   0.266   2.464   3.157 -0.6948 -0.6466 -0.1256
 3382TIP3    H131637   0.334   2.525   3.131 -1.1985  0.4189  0.9593
 3382TIP3    H231638   0.184   2.513   3.147 -1.1242 -1.1882  0.6168
 3383TIP3   OH231639   2.175   1.883  22.138 -0.0416  0.1247  0.2473
 3383TIP3    H131640   2.148   1.970  22.165  1.4126  1.3625 -1.9475
 3383TIP3    H231641   2.269   1.891  22.122  0.3876 -2.1937  1.1398
 3384TIP3   OH231642   3.240   0.869   0.024 -0.5081  0.0492  0.0929
 3384TIP3    H131643   3.177   0.865  -0.049  0.1034  0.5520 -0.4759
 3384TIP3    H231644   3.326   0.870  -0.018 -0.0915 -1.0459  0.8733
 3385TIP3   OH231645   0.742   2.494  38.112  0.0762  0.2103  0.5328
 3385TIP3    H131646   0.695   2.547  38.176  0.4037  1.3804 -0.1506
 3385TIP3    H231647   0.834   2.522  38.121  0.0425  0.8644 -0.8399
 3386TIP3   OH231648   0.444   0.101  13.557 -0.2882  0.5804  0.4785
 3386TIP3    H131649   0.516   0.112  13.619 -0.2417  0.5583  0.4277
 3386TIP3    H231650   0.470   0.152  13.480  0.6462 -1.1073 -0.3740
 3387TIP3   OH231651   2.089   2.954  61.625  0.0578 -0.5251 -0.3855
 3387TIP3    H131652   2.096   2.869  61.582  0.6820 -0.3173 -0.7076
 3387TIP3    H231653   2.176   2.972  61.659 -0.3178 -0.4787  0.6012
 3388TIP3   OH231654   2.508   3.279   4.940  0.2113 -0.1320 -0.4961
 3388TIP3    H131655   2.431   3.303   4.889 -0.5585 -0.9958  0.2128
 3388TIP3    H231656   2.533   3.359   4.985  1.5395  0.9284 -2.9695
 3389TIP3   OH231657   2.446   2.511  48.186 -0.6101 -0.4698  0.0987
 3389TIP3    H131658   2.356   2.507  48.156 -1.2617 -2.1638  2.0730
 3389TIP3    H231659   2.486   2.430  48.154  0.5414  0.6509 -1.5036
 3390TIP3   OH231660   0.540   3.205   6.882 -0.1566 -0.3383  0.1419
 3390TIP3    H131661   0.581   3.119   6.882  1.3129  0.3202 -0.1480
 3390TIP3    H231662   0.510   3.218   6.792 -0.3624 -0.5327  0.1818
 3391TIP3   OH231663   0.856   1.082  48.877 -0.0170  0.6948  0.6268
 3391TIP3    H131664   0.890   1.032  48.951 -1.0238  0.6300  1.0629
 3391TIP3    H231665   0.931   1.091  48.818  0.5231 -0.1879  1.1463
 3392TIP3   OH231666   2.890   1.272  28.017 -0.3420 -0.2073 -0.0704
 3392TIP3    H131667   2.834   1.206  27.977  0.2599 -0.2406 -0.8849
 3392TIP3    H231668   2.965   1.280  27.958  0.6040 -0.2880  1.0631
 3393TIP3   OH231669   1.485   2.351   7.279  0.2336  0.0043 -0.6986
 3393TIP3    H131670   1.474   2.361   7.185 -0.2523 -2.0504 -0.9084
 3393TIP3    H231671   1.418   2.408   7.317 -0.6155 -0.3230 -1.6493
 3394TIP3   OH231672   1.783   1.065  12.484 -0.1998  0.4064  0.2681
 3394TIP3    H131673   1.738   1.016  12.554  1.5246 -0.3915  0.8857
 3394TIP3    H231674   1.824   0.997  12.431  0.9545  1.1083  0.2288
 3395TIP3   OH231675   1.617   1.248  14.470  0.0443  0.0525  0.1691
 3395TIP3    H131676   1.688   1.291  14.517  0.3978 -1.8261  1.4367
 3395TIP3    H231677   1.583   1.183  14.531  0.1433 -2.1083 -1.9487
 3396TIP3   OH231678   2.338   1.440  63.789  0.4704 -0.9139  0.5624
 3396TIP3    H131679   2.414   1.401  63.747  0.2298 -2.0649  1.1380
 3396TIP3    H231680   2.272   1.445  63.721  0.3306 -2.0478  0.6013
 3397TIP3   OH231681   1.318   1.705  21.359 -0.1052  0.8783 -0.2974
 3397TIP3    H131682   1.250   1.759  21.320 -0.3682  1.1613  0.5219
 3397TIP3    H231683   1.317   1.729  21.452  0.1852 -0.1043 -0.0318
 3398TIP3   OH231684   0.829   1.539  59.139  0.1625 -0.1152 -0.3263
 3398TIP3    H131685   0.855   1.594  59.212 -1.2933  2.0114 -1.3026
 3398TIP3    H231686   0.910   1.522  59.091  0.9116 -0.4232  1.0102
 3399TIP3   OH231687   0.795   0.935  18.762  0.2490  0.0443  0.0441
 3399TIP3    H131688   0.825   0.897  18.844  2.3262  0.7198 -0.3562
 3399TIP3    H231689   0.775   0.860  18.706  0.7582 -0.4306  0.4891
 3400TIP3   OH231690   0.042   0.682  13.475  0.1747  0.1019  0.5558
 3400TIP3    H131691   0.083   0.596  13.479  1.3630  0.6198  0.3425
 3400TIP3    H231692  -0.036   0.675  13.529 -0.3572 -1.4093 -0.3362
 3401TIP3   OH231693   0.249   0.612  15.739  0.6443 -0.2911  0.1174
 3401TIP3    H131694   0.294   0.534  15.706 -0.2146 -0.4582 -0.7040
 3401TIP3    H231695   0.291   0.630  15.823  1.4574 -1.1109 -0.0954
 3402TIP3   OH231696   3.315   0.126  43.879  0.1397 -0.1700 -0.2708
 3402TIP3    H131697   3.320   0.102  43.972 -0.2161 -1.1207 -0.4811
 3402TIP3    H231698   3.405   0.150  43.855  0.1469  0.5395  0.4266
 3403TIP3   OH231699   1.065   3.286   4.606 -0.2140 -0.2189  0.2308
 3403TIP3    H131700   1.003   3.219   4.635 -0.5711  0.0787  0.1614
 3403TIP3    H231701   1.106   3.318   4.686 -1.0029  0.4119  0.3989
 3404TIP3   OH231702   0.738   1.442  53.593  0.2708 -0.0398 -0.0236
 3404TIP3    H131703   0.745   1.537  53.601 -1.3205  0.1813 -0.9681
 3404TIP3    H231704   0.769   1.423  53.505 -0.0348 -0.3242 -0.0726
 3405TIP3   OH231705   1.786   1.032  56.938 -0.3320 -0.1202 -0.2727
 3405TIP3    H131706   1.852   1.094  56.966 -0.0957 -0.0361 -0.9972
 3405TIP3    H231707   1.777   0.971  57.011 -1.4423  1.4473  0.9428
 3406TIP3   OH231708   3.341   3.291  52.489 -0.7947  0.4032  0.2777
 3406TIP3    H131709   3.315   3.199  52.484 -0.6377  0.3226  0.8404
 3406TIP3    H231710   3.276   3.337  52.436 -1.8755  0.1501  1.3210
 3407TIP3   OH231711   3.323   0.868  20.798 -0.4064  0.0730 -0.3035
 3407TIP3    H131712   3.251   0.821  20.757  0.2763 -0.6278 -0.7387
 3407TIP3    H231713   3.375   0.800  20.841  0.1815  0.5168 -0.2916
 3408TIP3   OH231714   0.556   0.272  45.222  0.2318 -0.0643 -0.1627
 3408TIP3    H131715   0.585   0.268  45.131 -0.3047  0.1248 -0.3481
 3408TIP3    H231716   0.635   0.258  45.273  0.7706  1.0671 -0.6395
 3409TIP3   OH231717   0.855   0.539  57.699 -0.2342 -0.2906  0.0127
 3409TIP3    H131718   0.867   0.634  57.696 -0.2502 -0.1434  2.4998
 3409TIP3    H231719   0.939   0.505  57.729  0.0570 -1.1974 -1.7135
 3410TIP3   OH231720   1.619   2.650  19.897 -0.0205  0.2113  0.1985
 3410TIP3    H131721   1.616   2.712  19.971 -1.3065 -0.6716  0.9259
 3410TIP3    H231722   1.537   2.665  19.850  0.3526  0.0943 -0.5070
 3411TIP3   OH231723   0.446   0.604  38.293  0.1841  0.5086 -0.0519
 3411TIP3    H131724   0.435   0.525  38.346 -1.7882  1.1678  0.5965
 3411TIP3    H231725   0.503   0.576  38.221  0.0089 -1.3493  0.4615
 3412TIP3   OH231726   1.459   0.493   0.505  0.1828 -0.0451 -0.0600
 3412TIP3    H131727   1.532   0.552   0.521  1.0538 -1.0009 -0.4049
 3412TIP3    H231728   1.460   0.432   0.578  0.8837 -1.1740 -0.9772
 3413TIP3   OH231729   1.939   2.305  51.826 -0.3990  0.4521 -0.1019
 3413TIP3    H131730   2.020   2.261  51.852 -0.0104  0.7252 -0.8340
 3413TIP3    H231731   1.873   2.269  51.885  0.4959  1.2639  1.4647
 3414TIP3   OH231732   0.950   0.771  42.808 -0.3417 -0.1562  0.2998
 3414TIP3    H131733   0.867   0.732  42.780 -0.2328 -0.6747  0.6800
 3414TIP3    H231734   1.000   0.697  42.842  0.0787  0.2396  0.5380
 3415TIP3   OH231735   3.343   3.044  64.933  0.0200 -0.1625 -0.3604
 3415TIP3    H131736   3.346   3.053  65.028 -0.3333  0.8286 -0.4321
 3415TIP3    H231737   3.282   2.972  64.917 -0.2829 -0.0215  0.1490
 3416TIP3   OH231738   1.415   1.204   3.498 -0.1395 -0.3010  0.1302
 3416TIP3    H131739   1.391   1.268   3.564  0.8601 -0.7400  0.9350
 3416TIP3    H231740   1.455   1.132   3.546  2.6922  0.3283 -1.0883
 3417TIP3   OH231741   1.710   0.391  51.443  0.2295 -0.4484  0.1315
 3417TIP3    H131742   1.766   0.419  51.370 -0.0901 -2.6617 -1.0539
 3417TIP3    H231743   1.772   0.369  51.513  0.5367  1.7937  0.6421
 3418TIP3   OH231744   0.246   0.752   9.138 -0.3039 -0.5260  0.0181
 3418TIP3    H131745   0.257   0.820   9.071  0.1226 -0.7605 -0.1550
 3418TIP3    H231746   0.225   0.673   9.088 -0.3979 -0.6118  0.1919
 3419TIP3   OH231747   2.659   0.642  58.925  0.0910 -0.0828 -0.6515
 3419TIP3    H131748   2.581   0.635  58.980  0.0680  1.3719 -0.4645
 3419TIP3    H231749   2.679   0.735  58.922  1.1203 -0.2995 -1.7007
 3420TIP3   OH231750   2.501   1.013  67.131  0.3693 -0.3686  0.1640
 3420TIP3    H131751   2.555   0.997  67.208 -0.1507  0.5039  0.7317
 3420TIP3    H231752   2.463   1.100  67.147  1.4681  0.5515 -1.7822
 3421TIP3   OH231753   1.295   2.832  48.620  0.5624  0.4526  0.1181
 3421TIP3    H131754   1.246   2.808  48.698  0.2032  0.7613 -0.0142
 3421TIP3    H231755   1.318   2.748  48.580 -0.8696  0.3039 -0.4523
 3422TIP3   OH231756   0.617   1.049  21.004  0.9207  0.4822 -0.2756
 3422TIP3    H131757   0.678   1.093  20.946 -1.1562  2.7211 -0.9096
 3422TIP3    H231758   0.586   1.118  21.063  0.0044 -0.8708  0.8938
 3423TIP3   OH231759   1.679   2.042   8.134 -0.4563 -0.1916 -0.0865
 3423TIP3    H131760   1.608   2.028   8.071 -1.4369  1.6749  0.5355
 3423TIP3    H231761   1.736   2.107   8.093 -0.1896 -0.2066  0.2525
 3424TIP3   OH231762   2.064   2.158  16.942 -0.3390 -0.2464 -0.7659
 3424TIP3    H131763   2.115   2.082  16.970 -0.3024 -0.3058 -0.9948
 3424TIP3    H231764   2.007   2.177  17.017 -0.6028 -0.7177 -0.8426
 3425TIP3   OH231765   2.094   2.247  21.704  0.7197  0.7926  0.6780
 3425TIP3    H131766   2.075   2.161  21.742  0.2600  1.0695  1.0903
 3425TIP3    H231767   2.173   2.234  21.652 -1.2923 -0.7711 -2.2518
 3426TIP3   OH231768   1.915   2.955  11.383  0.2489  0.1561  0.0441
 3426TIP3    H131769   1.968   2.978  11.459 -0.7336  0.8196  0.5535
 3426TIP3    H231770   1.889   2.864  11.398 -0.2424  0.3960  0.6939
 3427TIP3   OH231771   1.311   0.258  43.146 -0.0197  0.1912 -0.2224
 3427TIP3    H131772   1.244   0.325  43.134  0.1390  0.4738  0.4314
 3427TIP3    H231773   1.388   0.294  43.102  0.5542  1.2151  1.5043
 3428TIP3   OH231774   0.280   0.633   6.737  0.3377 -0.4276  0.1035
 3428TIP3    H131775   0.297   0.626   6.643  0.5002  0.7413  0.0264
 3428TIP3    H231776   0.216   0.564   6.756  0.3137 -0.6796 -0.8535
 3429TIP3   OH231777   1.995   1.684  14.407 -0.4428 -0.4141 -0.2913
 3429TIP3    H131778   1.957   1.761  14.447 -3.1835 -1.1290 -1.2961
 3429TIP3    H231779   2.009   1.708  14.315  0.5550 -0.5237 -0.1841
 3430TIP3   OH231780   1.657   3.257  17.103 -0.2786  0.1520  0.4747
 3430TIP3    H131781   1.622   3.270  17.191 -0.0827  2.6270  0.2674
 3430TIP3    H231782   1.751   3.248  17.115 -0.4799 -2.1954  0.6814
 3431TIP3   OH231783   2.403   1.007  49.131 -0.3937 -0.0168 -0.3294
 3431TIP3    H131784   2.410   1.031  49.038 -1.9773 -2.6311 -1.2383
 3431TIP3    H231785   2.309   1.013  49.150 -0.0199  1.1329  1.3542
 3432TIP3   OH231786   0.925   1.764  17.379 -0.1269  0.5104  0.2738
 3432TIP3    H131787   0.848   1.816  17.403 -0.7763 -0.4402  0.3091
 3432TIP3    H231788   0.898   1.718  17.300  0.1809 -0.3063  0.6373
 3433TIP3   OH231789   2.277   1.324  49.016  0.5397 -0.7436  0.0683
 3433TIP3    H131790   2.244   1.359  48.933 -0.0011 -0.8097  0.2470
 3433TIP3    H231791   2.372   1.322  49.006  0.5860  0.6241 -0.0069
 3434TIP3   OH231792   1.997   2.432   9.006 -0.4390  0.0253  0.0853
 3434TIP3    H131793   1.949   2.512   9.028 -0.3586 -0.3633  1.7267
 3434TIP3    H231794   2.064   2.462   8.943 -1.2887  0.9784 -0.3973
 3435TIP3   OH231795   1.452   2.987  13.397  0.1639  0.0035  0.3214
 3435TIP3    H131796   1.408   2.914  13.354 -0.2804  0.7666 -0.5317
 3435TIP3    H231797   1.518   3.016  13.334 -0.1598  0.8130  0.3494
 3436TIP3   OH231798   2.157   1.261  17.073 -0.7636 -0.0844  0.0900
 3436TIP3    H131799   2.150   1.318  17.150 -1.2903  0.9776 -0.7206
 3436TIP3    H231800   2.148   1.320  16.998 -2.0391 -1.3022 -0.7865
 3437TIP3   OH231801   2.847   0.979  50.438  0.0136 -0.4094  0.0271
 3437TIP3    H131802   2.882   0.891  50.423  1.0562 -0.3180  1.7392
 3437TIP3    H231803   2.767   0.982  50.385 -0.4965 -2.6738  0.5709
 3438TIP3   OH231804   1.692   2.560  56.890 -0.4874  0.0663 -0.3048
 3438TIP3    H131805   1.690   2.464  56.890  0.7187  0.0289  0.2441
 3438TIP3    H231806   1.784   2.582  56.903 -0.7116  1.3070 -0.7590
 3439TIP3   OH231807   0.801   2.015  41.848  0.6013  0.5072 -0.4898
 3439TIP3    H131808   0.755   1.931  41.846  2.4431 -0.9799  4.4904
 3439TIP3    H231809   0.750   2.069  41.908  1.6108  1.4015 -0.4033
 3440TIP3   OH231810   0.481   2.185  59.121  0.2897 -0.2638 -0.3059
 3440TIP3    H131811   0.428   2.263  59.107 -0.6314 -0.5964  1.1477
 3440TIP3    H231812   0.538   2.207  59.194  0.9830 -0.5002 -0.7658
 3441TIP3   OH231813   2.037   1.534  15.865 -0.2086 -0.1466 -0.2043
 3441TIP3    H131814   2.071   1.618  15.894  0.6540 -0.1228 -1.2285
 3441TIP3    H231815   2.083   1.469  15.918 -1.7436  0.0310  1.4432
 3442TIP3   OH231816   2.158   2.447  56.583 -0.3068  0.3203  0.6911
 3442TIP3    H131817   2.130   2.381  56.646  0.3830 -0.8035 -0.1383
 3442TIP3    H231818   2.248   2.467  56.607 -0.1610  0.1539  0.3048
 3443TIP3   OH231819   1.704   0.339  61.536  0.0150 -0.4062 -0.3521
 3443TIP3    H131820   1.610   0.335  61.518  0.1961  1.4939 -2.0143
 3443TIP3    H231821   1.710   0.379  61.622 -0.6992  0.2851 -0.6108
 3444TIP3   OH231822   0.081   0.308  20.573  0.0362  0.3870  0.5154
 3444TIP3    H131823   0.044   0.284  20.658  2.0914 -0.8731  1.1327
 3444TIP3    H231824   0.094   0.403  20.579 -0.7990  0.4786  1.1864
 3445TIP3   OH231825   0.463   0.255  57.826  1.0880  0.2718  0.0164
 3445TIP3    H131826   0.527   0.325  57.841 -0.2312  1.3278  1.0276
 3445TIP3    H231827   0.442   0.262  57.733  3.0846 -0.7120 -0.5614
 3446TIP3   OH231828   2.945   1.284  42.413 -0.3447 -0.8270  0.4408
 3446TIP3    H131829   3.024   1.286  42.468 -0.7286  0.6867  1.0097
 3446TIP3    H231830   2.975   1.250  42.329  1.4209  1.4999  0.0002
 3447TIP3   OH231831   2.164   2.357  49.873  0.3061 -0.0902 -0.1605
 3447TIP3    H131832   2.209   2.403  49.803 -1.5930  1.0519 -0.6953
 3447TIP3    H231833   2.223   2.363  49.948  1.3150  0.7664 -1.0043
 3448TIP3   OH231834   0.509   3.421  60.584  0.0791  0.6301 -0.0268
 3448TIP3    H131835   0.535   3.419  60.492  1.4298 -1.1519  0.3300
 3448TIP3    H231836   0.590   3.402  60.632 -0.5373  1.8330  1.5687
 3449TIP3   OH231837   1.724   2.802   4.871  0.0661  0.2446 -0.0949
 3449TIP3    H131838   1.811   2.763   4.863 -0.6833 -1.7639  0.6114
 3449TIP3    H231839   1.733   2.868   4.940  0.7109 -1.1019  1.1660
 3450TIP3   OH231840   1.147   3.367  53.675 -0.1368 -0.0275  0.1552
 3450TIP3    H131841   1.163   3.293  53.733 -0.7268 -1.2941 -1.2485
 3450TIP3    H231842   1.166   3.444  53.729 -0.5521 -1.1436  1.9697
 3451TIP3   OH231843   3.128   2.272  57.228  0.2744  0.2906 -0.4499
 3451TIP3    H131844   3.151   2.360  57.257  0.6413  0.2831 -0.7025
 3451TIP3    H231845   3.098   2.284  57.138 -0.0597  0.2080 -0.3478
 3452TIP3   OH231846   1.371   0.897  36.144  0.0911 -0.0468  0.0794
 3452TIP3    H131847   1.319   0.942  36.077 -0.5761 -0.8124  0.0593
 3452TIP3    H231848   1.443   0.857  36.096  0.4102  0.5758  0.0307
 3453TIP3   OH231849   0.891   1.897  14.229  0.5673 -0.4075 -0.7244
 3453TIP3    H131850   0.876   1.830  14.296  0.2530 -0.5462 -0.9348
 3453TIP3    H231851   0.884   1.980  14.277  1.0421 -0.5217 -0.4471
 3454TIP3   OH231852   3.328   3.289   4.383  0.3349 -0.0348  0.1415
 3454TIP3    H131853   3.423   3.295   4.394  0.4141 -0.7073 -0.1439
 3454TIP3    H231854   3.296   3.248   4.463  0.1937  0.8176  0.5411
 3455TIP3   OH231855   0.236   2.459  64.239  0.4503 -0.1130 -0.0340
 3455TIP3    H131856   0.165   2.474  64.176  1.1252  0.6686 -0.6324
 3455TIP3    H231857   0.200   2.488  64.323  0.4553  1.3851 -0.5319
 3456TIP3   OH231858   2.269   0.865  63.083 -0.0362 -0.2548 -0.1158
 3456TIP3    H131859   2.218   0.909  63.014  0.0450 -1.7684 -1.1772
 3456TIP3    H231860   2.217   0.878  63.162  1.3629  4.2987  0.3591
 3457TIP3   OH231861   0.335   0.180  55.088  0.3197  0.2703 -0.1290
 3457TIP3    H131862   0.254   0.210  55.047  0.5837  0.6974 -0.3474
 3457TIP3    H231863   0.359   0.101  55.038 -1.3199 -1.4113  1.5907
 3458TIP3   OH231864   1.576   0.759  10.465  0.1759 -0.8511 -0.0694
 3458TIP3    H131865   1.492   0.730  10.427 -0.2563 -2.3712  1.8720
 3458TIP3    H231866   1.623   0.797  10.392 -1.8049 -0.8898 -1.4576
 3459TIP3   OH231867   2.864   1.388  20.408  0.1017 -0.1730  0.3415
 3459TIP3    H131868   2.832   1.304  20.443  2.8848 -1.7943 -0.6581
 3459TIP3    H231869   2.865   1.447  20.484 -2.1458 -0.9265  1.0285
 3460TIP3   OH231870   2.634   0.036   1.717 -0.2046 -0.0120  0.4875
 3460TIP3    H131871   2.543   0.009   1.706 -0.2998  0.6406 -0.4560
 3460TIP3    H231872   2.672   0.028   1.629  0.1624  1.4007  0.4887
 3461TIP3   OH231873   2.619   3.186   8.235 -0.4150 -0.2584 -0.5010
 3461TIP3    H131874   2.646   3.118   8.173  1.1875 -0.6015  0.5190
 3461TIP3    H231875   2.584   3.138   8.310  1.5891 -0.0723  0.6273
 3462TIP3   OH231876   2.642   1.047  64.392 -0.4013 -0.4289 -0.1148
 3462TIP3    H131877   2.689   1.127  64.368 -1.1391 -0.2748 -1.0992
 3462TIP3    H231878   2.634   1.051  64.487  1.7681 -0.5693  0.1259
 3463TIP3   OH231879   1.637   1.414  64.640 -0.9767 -0.2651  0.2553
 3463TIP3    H131880   1.652   1.499  64.597  2.0006 -1.0943 -0.5908
 3463TIP3    H231881   1.621   1.353  64.567  2.2376 -1.3290  0.2656
 3464TIP3   OH231882   2.574   3.301  29.022  0.4103  0.0595  0.0708
 3464TIP3    H131883   2.503   3.266  29.077 -1.5220  1.8389 -1.1248
 3464TIP3    H231884   2.596   3.385  29.062 -1.4700  1.6932 -2.0289
 3465TIP3   OH231885   3.404   2.052   8.606  0.2261  0.1949 -0.3806
 3465TIP3    H131886   3.360   2.013   8.681  0.5808  0.4424 -0.0418
 3465TIP3    H231887   3.447   1.979   8.562  1.1830  0.2295  0.4508
 3466TIP3   OH231888   1.693   1.333   7.607 -0.0721  0.5500 -0.5125
 3466TIP3    H131889   1.729   1.390   7.538  0.1162  1.7815  0.5621
 3466TIP3    H231890   1.629   1.278   7.562  0.3847  1.0002 -1.7516
 3467TIP3   OH231891   1.303   1.140   0.643  0.5228 -0.3184 -0.0965
 3467TIP3    H131892   1.354   1.114   0.720 -0.2531 -0.5366  0.3511
 3467TIP3    H231893   1.367   1.185   0.586  0.8034  1.1887  1.3333
 3468TIP3   OH231894   2.385   2.926  50.180 -0.0447 -0.5774 -0.1867
 3468TIP3    H131895   2.339   2.875  50.113 -0.1575 -0.5156 -0.1569
 3468TIP3    H231896   2.349   2.894  50.263  1.4114 -1.9726 -0.0453
 3469TIP3   OH231897   0.908   2.741  43.474 -0.1071  0.4033  0.0277
 3469TIP3    H131898   0.831   2.757  43.420  1.5653  0.3439 -2.5349
 3469TIP3    H231899   0.873   2.710  43.558 -2.8374  0.5613 -0.9698
 3470TIP3   OH231900   0.217   2.768   6.306  0.2215  0.1648  0.4431
 3470TIP3    H131901   0.123   2.755   6.296  0.4240 -0.2762 -1.0916
 3470TIP3    H231902   0.254   2.746   6.221  1.6081  1.3829  0.6860
 3471TIP3   OH231903   1.882   0.614  20.288 -0.1223  0.1032 -0.4495
 3471TIP3    H131904   1.885   0.645  20.198  0.1030 -0.0828 -0.5084
 3471TIP3    H231905   1.931   0.680  20.338  0.0426  0.0305 -0.5157
 3472TIP3   OH231906   0.010   2.496  51.261 -0.1020 -0.0663  0.1441
 3472TIP3    H131907  -0.037   2.482  51.343  0.4536  1.0711  0.6594
 3472TIP3    H231908   0.086   2.437  51.266 -0.1320 -0.0829  0.3855
 3473TIP3   OH231909   0.059   1.995   7.789  0.0068 -0.1322 -0.7363
 3473TIP3    H131910  -0.025   1.977   7.747 -0.5502  0.7067 -0.0122
 3473TIP3    H231911   0.058   1.942   7.869 -0.2199  0.5480 -0.2815
 3474TIP3   OH231912   1.256   2.812  42.510  0.1276  0.6462  0.0946
 3474TIP3    H131913   1.209   2.797  42.429 -0.3980  0.3157  0.4569
 3474TIP3    H231914   1.213   2.888  42.549 -0.6095 -0.1044  0.7878
 3475TIP3   OH231915   1.977   2.300  62.907  0.3068  0.3772 -0.0938
 3475TIP3    H131916   1.920   2.287  62.831 -0.5488 -1.7500  0.8223
 3475TIP3    H231917   1.919   2.336  62.974  0.2055 -0.9517  0.5653
 3476TIP3   OH231918   1.179   1.061   4.997 -0.1570  0.1051 -0.0118
 3476TIP3    H131919   1.161   1.155   5.003  0.8907  0.3401 -0.3537
 3476TIP3    H231920   1.209   1.037   5.085 -0.9858 -0.0392  0.2364
 3477TIP3   OH231921   3.243   1.552  48.176  0.2557 -0.1119  0.0945
 3477TIP3    H131922   3.223   1.631  48.226 -0.9915 -0.2603 -0.1382
 3477TIP3    H231923   3.263   1.584  48.088  0.2286 -0.0289  0.1192
 3478TIP3   OH231924   2.423   1.752  53.965  0.5430  0.7011 -0.1483
 3478TIP3    H131925   2.465   1.684  54.019  1.1576  1.6698  0.6275
 3478TIP3    H231926   2.496   1.804  53.932  0.0527  1.2815 -0.3211
 3479TIP3   OH231927   0.441   1.579  65.770 -0.0101  0.1882  0.2448
 3479TIP3    H131928   0.474   1.494  65.740 -0.1925  0.2536 -0.1468
 3479TIP3    H231929   0.520   1.626  65.798  0.1807  0.1807 -0.2696
 3480TIP3   OH231930   0.105   1.828  52.490 -0.3944 -0.3815 -0.0798
 3480TIP3    H131931   0.186   1.858  52.531 -0.7699  1.3748 -0.5646
 3480TIP3    H231932   0.118   1.734  52.478  1.5991 -0.1290 -0.2007
 3481TIP3   OH231933   2.544   3.086  45.975 -0.0276  0.2078  0.0200
 3481TIP3    H131934   2.614   3.067  45.913  0.3103  2.7737 -0.4831
 3481TIP3    H231935   2.467   3.043  45.937  0.5968  0.0161 -1.0868
 3482TIP3   OH231936   0.851   2.772  64.546  0.1917  0.1426 -0.6008
 3482TIP3    H131937   0.836   2.736  64.633 -2.3097 -1.0239 -1.4388
 3482TIP3    H231938   0.946   2.768  64.535  0.4635 -0.8543  1.5720
 3483TIP3   OH231939   1.177   0.015  66.238  0.0409  0.3239  0.1421
 3483TIP3    H131940   1.088   0.050  66.245  0.5288  1.7162 -0.3909
 3483TIP3    H231941   1.233   0.092  66.238  1.3002 -0.5549  0.9293
 3484TIP3   OH231942   2.588   1.102  64.069  0.2290 -0.0138 -0.0519
 3484TIP3    H131943   2.541   1.092  63.987  0.1233  0.9955 -0.1357
 3484TIP3    H231944   2.680   1.091  64.046  0.0540 -2.5919  0.2194
 3485TIP3   OH231945   0.940   3.179  36.444  0.2633  0.3571 -0.1477
 3485TIP3    H131946   0.958   3.129  36.364  1.5428 -0.2564  0.4789
 3485TIP3    H231947   0.922   3.112  36.511  1.0859  0.7618  0.4988
 3486TIP3   OH231948   2.698   1.728  12.399 -0.4114  0.2506  0.1884
 3486TIP3    H131949   2.607   1.706  12.379  0.1100 -0.5572 -1.5188
 3486TIP3    H231950   2.701   1.824  12.396 -1.5118  0.3710  1.8890
 3487TIP3   OH231951   0.852   1.505  48.010 -0.4477 -0.6429 -0.4470
 3487TIP3    H131952   0.770   1.493  47.962 -0.6324  2.1423 -0.9524
 3487TIP3    H231953   0.919   1.506  47.941 -0.3471  0.1000 -0.3432
 3488TIP3   OH231954   3.194   2.759  50.230  0.3482 -0.0275 -0.1593
 3488TIP3    H131955   3.118   2.707  50.207  0.2115 -0.2407  0.7444
 3488TIP3    H231956   3.222   2.725  50.315 -0.0116  1.6530  0.6768
 3489TIP3   OH231957   2.271   1.037  19.155 -0.0679 -0.1029 -0.6589
 3489TIP3    H131958   2.228   1.032  19.240  0.3772  0.6390 -0.3825
 3489TIP3    H231959   2.252   1.125  19.123  1.1544  0.2249 -0.5565
 3490TIP3   OH231960   1.468   2.355  14.074 -0.1838  0.0169  0.3096
 3490TIP3    H131961   1.438   2.359  14.164 -1.8725  0.3827 -0.2353
 3490TIP3    H231962   1.455   2.263  14.048  1.1308 -0.2985  0.6740
 3491TIP3   OH231963   0.353   0.270   2.300  0.0402  0.1132 -0.3568
 3491TIP3    H131964   0.289   0.267   2.372  0.6107 -1.4144  0.1298
 3491TIP3    H231965   0.302   0.246   2.223 -0.3136  0.5343 -0.2600
 3492TIP3   OH231966   2.722   0.724  61.988 -0.3770 -0.5299 -0.0895
 3492TIP3    H131967   2.681   0.769  62.061 -0.3912  1.4247 -1.2369
 3492TIP3    H231968   2.814   0.752  61.990 -0.5632  0.2327 -1.2915
 3493TIP3   OH231969   1.027   0.035  45.287  0.5969  0.4135  1.0183
 3493TIP3    H131970   0.976   0.109  45.253  0.4786  1.3548  3.0677
 3493TIP3    H231971   0.973   0.001  45.358  0.2604 -2.2339 -0.4050
 3494TIP3   OH231972   0.349   2.127  54.352  0.6036  0.2952  0.3792
 3494TIP3    H131973   0.332   2.214  54.316 -0.4468 -0.7065 -1.7882
 3494TIP3    H231974   0.397   2.082  54.282  0.5241 -1.0563  1.1676
 3495TIP3   OH231975   3.039   1.559  42.521 -0.0020  0.4327  0.2195
 3495TIP3    H131976   3.068   1.491  42.580  0.7431 -0.5973 -1.2687
 3495TIP3    H231977   2.972   1.517  42.467  0.1307  1.0024 -0.4013
 3496TIP3   OH231978   0.512   0.729   2.511  0.0328  0.0231 -0.0250
 3496TIP3    H131979   0.501   0.670   2.437  0.2250 -2.5110  1.8189
 3496TIP3    H231980   0.592   0.778   2.491 -0.0030 -0.4743 -1.5330
 3497TIP3   OH231981   0.071   1.138   4.653 -0.5097  0.2830 -0.2375
 3497TIP3    H131982   0.141   1.112   4.593 -0.6286 -0.2860 -0.1325
 3497TIP3    H231983   0.090   1.229   4.674 -0.6180  0.5786 -1.3595
 3498TIP3   OH231984   2.090   2.659  20.176  0.4486 -0.4178  0.3354
 3498TIP3    H131985   2.096   2.753  20.192  1.9413 -0.8436  2.7982
 3498TIP3    H231986   2.004   2.634  20.211 -0.0249  0.0148 -0.4802
 3499TIP3   OH231987   1.470   2.446  12.798  0.1241 -0.0026  0.6910
 3499TIP3    H131988   1.508   2.427  12.712  0.3980 -0.2991  0.8762
 3499TIP3    H231989   1.496   2.372  12.853 -2.4033 -1.2800  0.3089
 3500TIP3   OH231990   1.984   3.444   0.588  0.8783  0.2953 -0.0884
 3500TIP3    H131991   2.052   3.434   0.522  0.0801  0.2320 -0.9149
 3500TIP3    H231992   2.005   3.378   0.654  0.7068 -0.8401 -1.1358
 3501TIP3   OH231993   0.352   0.565  57.920 -0.4121 -0.3438  0.2659
 3501TIP3    H131994   0.416   0.625  57.882  0.3312 -1.5752 -0.4796
 3501TIP3    H231995   0.385   0.548  58.008 -0.5522  0.2123  0.4326
 3502TIP3   OH231996   0.784   2.652  63.873 -0.2350 -0.0617  0.2436
 3502TIP3    H131997   0.872   2.662  63.837  0.8791 -0.6749  2.5540
 3502TIP3    H231998   0.750   2.742  63.877  1.3681  0.5491  1.6928
 3503TIP3   OH231999   3.000   3.430  27.089  0.3921  0.4100 -0.6052
 3503TIP3    H132000   3.045   3.354  27.052 -2.7256 -1.9474  0.0010
 3503TIP3    H232001   2.918   3.435  27.040 -0.2201  2.3609  0.5056
 3504TIP3   OH232002   3.121   0.201  53.495 -0.5238  0.2292  0.4739
 3504TIP3    H132003   3.053   0.189  53.561 -0.1836  0.3042  0.8404
 3504TIP3    H232004   3.140   0.112  53.464 -0.9647  0.2305  0.1846
 3505TIP3   OH232005   3.421   1.019  18.004 -0.2568  0.3433 -0.2363
 3505TIP3    H132006   3.343   0.987  17.958  0.7806 -1.1389 -1.0195
 3505TIP3    H232007   3.386   1.061  18.082 -1.8888  0.3333 -0.9083
 3506TIP3   OH232008   0.753   1.753  22.919 -0.0822 -0.0206  0.2489
 3506TIP3    H132009   0.813   1.790  22.982 -0.5838  1.4952 -0.1342
 3506TIP3    H232010   0.774   1.795  22.836 -1.9752  0.9707  0.2050
 3507TIP3   OH232011   0.294   2.478   7.947  0.2400 -0.1643  0.0526
 3507TIP3    H132012   0.206   2.507   7.971 -1.0756 -1.5333 -2.6315
 3507TIP3    H232013   0.308   2.398   7.998  1.3432  1.6565  2.8349
 3508TIP3   OH232014   0.961   2.633  64.872 -0.1366 -0.1925  0.2160
 3508TIP3    H132015   0.973   2.593  64.958  0.2905 -1.1281 -0.2690
 3508TIP3    H232016   0.890   2.697  64.885  0.5356  0.3336  1.4563
 3509TIP3   OH232017   2.563   2.080  17.334 -0.0199  0.5217  0.1025
 3509TIP3    H132018   2.549   2.033  17.416  0.1142  0.8897  0.3377
 3509TIP3    H232019   2.649   2.120  17.344  1.1194 -1.4453 -1.1912
 3510TIP3   OH232020   0.018   2.688  59.380  0.1035  0.0329 -0.4499
 3510TIP3    H132021   0.030   2.737  59.299  0.0939 -0.0837 -0.5223
 3510TIP3    H232022   0.106   2.662  59.407  0.1333  0.2949 -0.2846
 3511TIP3   OH232023   1.648   2.586  50.947  0.1918 -0.2137  0.0197
 3511TIP3    H132024   1.616   2.498  50.925  2.5912 -1.3172  0.6487
 3511TIP3    H232025   1.686   2.619  50.865 -1.6921  0.7792 -0.5209
 3512TIP3   OH232026   1.879   3.049  64.235 -0.5823 -0.3593  0.5518
 3512TIP3    H132027   1.905   2.997  64.311 -2.6285 -0.1995  1.4338
 3512TIP3    H232028   1.799   3.094  64.263 -0.7873  0.5566 -1.3448
 3513TIP3   OH232029   0.310   1.829  51.073 -0.2329 -0.2582 -0.5403
 3513TIP3    H132030   0.234   1.874  51.037 -0.1409 -0.1908 -0.6550
 3513TIP3    H232031   0.287   1.737  51.072 -0.6183 -0.1768  0.1634
 3514TIP3   OH232032   0.535   2.762  61.558  0.1996 -0.3364 -0.4534
 3514TIP3    H132033   0.453   2.810  61.546  0.0641  0.2808  2.3231
 3514TIP3    H232034   0.526   2.720  61.643  2.5719 -0.6865 -0.3097
 3515TIP3   OH232035   0.902   3.244   6.595 -0.2489  0.5216  0.0200
 3515TIP3    H132036   0.963   3.273   6.527 -1.2293  0.2677 -0.9943
 3515TIP3    H232037   0.897   3.149   6.585 -0.5451  0.5013  0.3192
 3516TIP3   OH232038   1.249   2.496  52.992 -0.1069  0.8442  0.0288
 3516TIP3    H132039   1.271   2.404  52.979 -0.3105  0.6740  0.8610
 3516TIP3    H232040   1.286   2.541  52.915  0.4553  0.1488 -0.1112
 3517TIP3   OH232041   2.725   1.342  55.715  0.2452  0.4683 -0.0059
 3517TIP3    H132042   2.730   1.352  55.620 -1.0141 -2.0025 -0.3897
 3517TIP3    H232043   2.633   1.323  55.733  0.7217 -0.6240  1.5199
 3518TIP3   OH232044   2.291   3.182   5.670  0.4746 -0.8633  0.4903
 3518TIP3    H132045   2.338   3.240   5.730  0.3375 -0.8543  0.5892
 3518TIP3    H232046   2.254   3.115   5.727 -1.7492  0.4889  0.7460
 3519TIP3   OH232047   0.268   0.272  46.230  0.5114 -0.3912  0.0977
 3519TIP3    H132048   0.264   0.180  46.208  0.0980  0.1024 -2.1116
 3519TIP3    H232049   0.188   0.309  46.192  0.3195  0.7864  1.5242
 3520TIP3   OH232050   0.578   1.007  48.522  0.2325 -0.2716  0.0823
 3520TIP3    H132051   0.504   1.044  48.571 -0.2567 -0.2972 -0.6119
 3520TIP3    H232052   0.598   0.925  48.567  0.2586  0.0525  0.6642
 3521TIP3   OH232053   2.388   2.530  16.896 -0.3888 -0.4879 -0.4682
 3521TIP3    H132054   2.299   2.493  16.900 -0.6939  0.3285  0.6787
 3521TIP3    H232055   2.375   2.624  16.908  0.8060 -0.5756  1.9977
 3522TIP3   OH232056   2.484   1.251  55.808 -0.1804  0.1867 -0.4733
 3522TIP3    H132057   2.443   1.165  55.806  0.2888 -0.0633  0.3350
 3522TIP3    H232058   2.457   1.290  55.891 -0.5783  0.9199 -0.9336
 3523TIP3   OH232059   3.416   2.576  16.821  0.0007  0.1111  0.0933
 3523TIP3    H132060   3.324   2.563  16.797 -0.1075 -0.0510  0.5808
 3523TIP3    H232061   3.416   2.659  16.869  0.3695  0.9388 -1.2750
 3524TIP3   OH232062   1.187   0.543   6.203 -0.7968  0.5652  0.0540
 3524TIP3    H132063   1.275   0.560   6.237 -0.6180  2.6062 -1.2152
 3524TIP3    H232064   1.180   0.448   6.200  0.5910  0.3391  2.0457
 3525TIP3   OH232065   0.857   2.983  56.570  0.1398 -0.3731 -0.0540
 3525TIP3    H132066   0.821   3.018  56.488  1.9991 -1.9615 -1.6573
 3525TIP3    H232067   0.937   2.937  56.543  1.2865 -0.2299  2.7995
 3526TIP3   OH232068   0.254   0.067  22.058  0.9404  0.2477  0.0581
 3526TIP3    H132069   0.319   0.003  22.086  0.5247  0.4388  1.5946
 3526TIP3    H232070   0.281   0.093  21.970  1.9177 -0.9763 -0.0202
 3527TIP3   OH232071   1.498   0.140  53.673  0.2476  0.6182  0.3339
 3527TIP3    H132072   1.563   0.198  53.712 -0.0719 -0.0801  2.0284
 3527TIP3    H232073   1.487   0.070  53.738  1.0829 -1.6970 -1.8871
 3528TIP3   OH232074   1.352   2.914  53.672 -0.4784  0.6571 -0.1154
 3528TIP3    H132075   1.332   2.977  53.741  1.4208 -0.4918  1.5974
 3528TIP3    H232076   1.416   2.959  53.617 -1.3107  1.2343 -0.6513
 3529TIP3   OH232077   2.029   1.869  44.068  0.3451 -0.1154 -0.2742
 3529TIP3    H132078   2.043   1.816  44.146 -1.6183 -0.7680 -0.2952
 3529TIP3    H232079   1.994   1.951  44.101  0.0527 -0.1784 -0.4179
 3530TIP3   OH232080   1.404   3.229   7.072 -0.3524 -0.4054 -0.3251
 3530TIP3    H132081   1.313   3.219   7.044 -1.2876  1.6942  1.6018
 3530TIP3    H232082   1.430   3.315   7.039  0.3195 -0.2523  0.5551
 3531TIP3   OH232083   0.148   3.202  38.803 -0.7529  0.2640 -0.4715
 3531TIP3    H132084   0.181   3.112  38.808 -2.2019 -0.3216 -1.0549
 3531TIP3    H232085   0.217   3.250  38.757  0.5511 -0.2724  0.8328
 3532TIP3   OH232086   2.982   3.427   4.710 -0.2288  0.6078 -0.1664
 3532TIP3    H132087   2.987   3.522   4.700  0.5512  0.3804 -2.7038
 3532TIP3    H232088   2.916   3.413   4.778 -1.0217  2.9295 -0.3747
 3533TIP3   OH232089   1.921   1.566  54.826  0.3410  0.0923  0.2164
 3533TIP3    H132090   1.990   1.621  54.863 -0.7069  1.0919  0.7860
 3533TIP3    H232091   1.919   1.488  54.882  2.5082 -1.0618 -1.1963
 3534TIP3   OH232092   3.406   1.171  44.116 -0.1109 -0.2543 -0.1041
 3534TIP3    H132093   3.491   1.145  44.081 -0.0417 -1.6484  1.0334
 3534TIP3    H232094   3.395   1.262  44.087  1.4629 -0.2616 -0.8108
 3535TIP3   OH232095   2.459   2.228  43.566 -0.0530 -0.1523 -0.0261
 3535TIP3    H132096   2.497   2.313  43.542  0.5225  0.2087  1.9426
 3535TIP3    H232097   2.483   2.170  43.494 -0.1587  1.2641 -1.2519
 3536TIP3   OH232098   0.293   3.140  56.515 -0.5090  0.0179 -0.8738
 3536TIP3    H132099   0.288   3.190  56.434 -0.9873  2.1039  0.3772
 3536TIP3    H232100   0.211   3.158  56.560  0.5998  0.6338  1.0083
 3537TIP3   OH232101   3.049   1.553  19.959  0.0418  0.1139  0.6823
 3537TIP3    H132102   2.954   1.565  19.967 -0.0089 -0.6320  1.2472
 3537TIP3    H232103   3.084   1.586  20.041  0.2020 -0.3204  0.7903
 3538TIP3   OH232104   3.311   2.808  47.451 -0.6378  0.4624 -0.2986
 3538TIP3    H132105   3.386   2.763  47.412  0.3297  2.6550 -1.1343
 3538TIP3    H232106   3.307   2.775  47.541 -1.2238 -2.6612 -1.3280
 3539TIP3   OH232107   2.522   2.722   9.317 -0.1421  0.4333 -0.5194
 3539TIP3    H132108   2.534   2.750   9.226 -0.3134 -1.2591 -1.0948
 3539TIP3    H232109   2.608   2.691   9.345 -0.6113 -1.4033 -0.9796
 3540TIP3   OH232110   2.803   0.405  62.222  0.2114  0.2100  0.4047
 3540TIP3    H132111   2.873   0.461  62.190  1.8863 -0.6241  2.3999
 3540TIP3    H232112   2.757   0.375  62.143  0.7468  2.4295 -0.8287
 3541TIP3   OH232113   0.755   0.703   2.683  0.1111 -0.1707  0.4576
 3541TIP3    H132114   0.716   0.654   2.610  0.0954  0.1415  0.2569
 3541TIP3    H232115   0.763   0.638   2.753  3.7085 -1.5212 -1.0102
 3542TIP3   OH232116   3.136   3.004  43.707 -1.0488  0.1779  0.1476
 3542TIP3    H132117   3.123   3.082  43.761 -0.7397  1.1539 -1.1486
 3542TIP3    H232118   3.200   2.952  43.755 -1.9538  0.2596  1.4874
 3543TIP3   OH232119   0.428   0.589  51.922  0.0834  0.0620 -0.1889
 3543TIP3    H132120   0.521   0.606  51.937 -0.3329  2.8351 -0.1653
 3543TIP3    H232121   0.403   0.653  51.855 -2.1233  0.4669  0.9384
 3544TIP3   OH232122   1.754   2.338   9.200  0.4020  0.2314 -0.2318
 3544TIP3    H132123   1.665   2.358   9.227  0.7838  0.9628  0.5598
 3544TIP3    H232124   1.779   2.411   9.143  0.5417  0.1013 -0.3397
 3545TIP3   OH232125   1.066   2.969   6.245 -0.3573 -0.8925 -0.1220
 3545TIP3    H132126   1.147   3.009   6.277 -1.1665  0.1871  0.6183
 3545TIP3    H232127   1.090   2.935   6.158  0.3761  1.2142 -0.8165
 3546TIP3   OH232128   1.191   1.553   5.911  0.6893 -0.0818  0.5471
 3546TIP3    H132129   1.228   1.612   5.845 -0.3296  1.0947  0.9848
 3546TIP3    H232130   1.267   1.514   5.953  1.4411  1.4178  0.6644
 3547TIP3   OH232131   2.299   1.571  47.657  0.2081 -0.0432  0.0838
 3547TIP3    H132132   2.395   1.572  47.649  0.2328  1.0808  0.3482
 3547TIP3    H232133   2.268   1.600  47.572  0.0380 -1.7916 -0.4839
 3548TIP3   OH232134   0.013   2.899  59.200 -0.6140 -0.4334 -0.2223
 3548TIP3    H132135   0.041   2.982  59.239 -0.8960 -0.3878 -0.1190
 3548TIP3    H232136  -0.069   2.919  59.156 -1.2761 -0.8934  0.7442
 3549TIP3   OH232137   1.736   3.365   2.264  0.3253 -0.0816 -0.0012
 3549TIP3    H132138   1.763   3.350   2.354  0.8748 -0.4040 -0.2083
 3549TIP3    H232139   1.772   3.451   2.242  0.0824  0.0527  0.1266
 3550TIP3   OH232140   3.378   0.824  46.801 -0.9940  0.4463  0.8674
 3550TIP3    H132141   3.460   0.861  46.769 -0.7104 -0.8771 -0.0411
 3550TIP3    H232142   3.405   0.751  46.857 -1.5424 -0.1350  0.3839
 3551TIP3   OH232143   2.513   2.385  60.948  0.1910 -0.5067 -0.6964
 3551TIP3    H132144   2.441   2.401  61.009  1.4000  1.5939  0.3020
 3551TIP3    H232145   2.503   2.451  60.880  0.3810 -1.1099 -1.3229
 3552TIP3   OH232146   2.051   0.395  12.512 -0.3684  0.2753 -0.5469
 3552TIP3    H132147   2.119   0.457  12.484 -1.7873  1.5377 -1.3398
 3552TIP3    H232148   2.079   0.311  12.476  0.2132  0.9926 -1.8197
 3553TIP3   OH232149   1.491   0.651  61.704  0.0265  0.0674 -0.3431
 3553TIP3    H132150   1.508   0.702  61.625  0.3445  0.6321  0.0773
 3553TIP3    H232151   1.501   0.560  61.677  2.0538  0.3009 -0.5537
 3554TIP3   OH232152   1.950   3.235  50.799  0.3908  0.0149  0.0382
 3554TIP3    H132153   1.955   3.176  50.874  3.2230 -1.4345 -1.1627
 3554TIP3    H232154   1.857   3.254  50.790 -0.2069 -1.0012  2.9189
 3555TIP3   OH232155   1.284   2.472   2.716  0.0686  0.0060 -0.2932
 3555TIP3    H132156   1.279   2.504   2.806 -1.0942 -2.4654  0.6013
 3555TIP3    H232157   1.215   2.520   2.670 -1.6568 -1.1222  1.0024
 3556TIP3   OH232158   0.404   3.129  10.537 -0.8443 -0.1601 -0.7425
 3556TIP3    H132159   0.340   3.093  10.475 -2.3668 -0.4403  0.9020
 3556TIP3    H232160   0.398   3.224  10.525 -0.8551 -0.2303 -1.2935
 3557TIP3   OH232161   1.050   2.688   5.324 -0.1110  0.1902 -0.4826
 3557TIP3    H132162   1.106   2.756   5.284 -0.0929  0.1046 -0.6055
 3557TIP3    H232163   0.961   2.715   5.302 -0.2080  1.0555  0.8570
 3558TIP3   OH232164   1.406   0.122  46.946 -0.1384  0.1773 -0.3835
 3558TIP3    H132165   1.315   0.143  46.965 -0.3908 -1.7316  0.7194
 3558TIP3    H232166   1.449   0.208  46.937 -1.4800  1.1641  1.8396
 3559TIP3   OH232167   1.106   2.222  48.988  0.0556 -0.3230  0.0761
 3559TIP3    H132168   1.089   2.269  48.906  2.0955 -1.0375 -0.8384
 3559TIP3    H232169   1.135   2.289  49.049 -0.9106  0.1365  0.0448
 3560TIP3   OH232170   2.317   1.014   4.885  0.5709 -0.4218  0.3410
 3560TIP3    H132171   2.412   1.022   4.873  0.5160  0.4939  0.3965
 3560TIP3    H232172   2.286   1.105   4.884 -0.3817 -0.7513 -0.2599
 3561TIP3   OH232173   3.255   0.353  43.084  0.1292 -0.0857 -0.2282
 3561TIP3    H132174   3.231   0.401  43.005 -0.0711 -0.7043 -0.5531
 3561TIP3    H232175   3.172   0.317  43.116  0.3210 -0.4872 -0.1794
 3562TIP3   OH232176   0.222   3.243  57.189  0.2295  0.0071 -0.3772
 3562TIP3    H132177   0.286   3.266  57.256 -0.3246  1.4036 -0.2932
 3562TIP3    H232178   0.155   3.192  57.235  1.3962 -1.7649 -0.5310
 3563TIP3   OH232179   0.574   1.617   2.045 -0.4389 -0.2112 -0.0348
 3563TIP3    H132180   0.560   1.650   1.956 -1.5592 -1.0638 -0.2066
 3563TIP3    H232181   0.497   1.647   2.094 -0.4974 -0.8785  0.2948
 3564TIP3   OH232182   2.233   1.449   2.063 -0.3858  0.2634  0.5630
 3564TIP3    H132183   2.254   1.411   2.149 -1.9911 -0.9930  0.4546
 3564TIP3    H232184   2.138   1.440   2.056 -0.1737 -0.9305 -1.9035
 3565TIP3   OH232185   1.056   2.716  63.811  0.5332 -0.5308 -0.1134
 3565TIP3    H132186   1.065   2.674  63.897 -1.2156 -2.1750 -0.6954
 3565TIP3    H232187   1.146   2.733  63.784  1.1587  1.3931  2.6352
 3566TIP3   OH232188   1.243   1.480  59.695 -0.1920 -0.8110  0.2254
 3566TIP3    H132189   1.216   1.391  59.673 -0.9726 -0.0950 -1.9810
 3566TIP3    H232190   1.201   1.535  59.629  2.9155  0.9061 -0.5190
 3567TIP3   OH232191   3.199   3.044  52.494  0.3385 -0.2202  0.1991
 3567TIP3    H132192   3.146   2.976  52.537 -1.1543 -0.6466 -2.1221
 3567TIP3    H232193   3.256   2.995  52.435 -0.3740  0.4679 -1.1017
 3568TIP3   OH232194   1.060   1.675  22.312 -0.1909  0.3509  0.0184
 3568TIP3    H132195   1.093   1.586  22.318 -1.1939 -0.0807 -0.6551
 3568TIP3    H232196   1.040   1.700  22.402  1.1082  0.2995  0.3318
 3569TIP3   OH232197   3.445   0.902  60.085  0.1663 -0.1120 -0.1828
 3569TIP3    H132198   3.379   0.835  60.102  0.4308 -1.4300 -3.6357
 3569TIP3    H232199   3.397   0.973  60.042  0.6485 -0.1890 -0.8602
 3570TIP3   OH232200   3.365   1.733  56.102 -0.2824 -0.4194  0.0092
 3570TIP3    H132201   3.289   1.747  56.159 -0.7378  1.5320 -1.0003
 3570TIP3    H232202   3.351   1.645  56.066 -1.7195 -0.3640  0.3576
 3571TIP3   OH232203   1.534   3.163  16.039  0.0062 -0.3268  0.1129
 3571TIP3    H132204   1.453   3.117  16.062  0.4447 -1.5913 -0.7626
 3571TIP3    H232205   1.528   3.176  15.945  0.8311 -0.4196  0.0478
 3572TIP3   OH232206   0.916   0.626  15.248  0.2106  0.4387 -0.5710
 3572TIP3    H132207   0.922   0.591  15.160  0.8162 -1.4660  0.1713
 3572TIP3    H232208   0.924   0.549  15.305 -0.1461  1.6099  1.1412
 3573TIP3   OH232209   3.249   0.719  64.892  0.2421  0.4123 -0.2818
 3573TIP3    H132210   3.246   0.623  64.897 -0.7923  0.4151 -0.5637
 3573TIP3    H232211   3.300   0.736  64.813  1.3762  0.1209  0.3633
 3574TIP3   OH232212   0.387   1.660  38.762 -0.5361 -0.3234 -0.2040
 3574TIP3    H132213   0.331   1.583  38.750 -0.5209 -0.4977  0.7641
 3574TIP3    H232214   0.386   1.675  38.856  1.9145 -1.0000 -0.0069
 3575TIP3   OH232215   1.709   2.734  65.577 -0.5680 -0.7550 -0.0093
 3575TIP3    H132216   1.698   2.717  65.671 -0.9845 -0.2726  0.0379
 3575TIP3    H232217   1.736   2.826  65.573  0.7024 -1.1210 -0.2821
 3576TIP3   OH232218   2.773   0.696  55.203 -0.3016  0.1791  0.3488
 3576TIP3    H132219   2.811   0.714  55.117  0.3716  2.8267  1.1072
 3576TIP3    H232220   2.691   0.745  55.204 -1.1729 -1.2286  0.6446
 3577TIP3   OH232221   2.089   2.262  10.967 -0.2616  0.1949 -0.0300
 3577TIP3    H132222   2.053   2.189  11.018 -0.2257  0.5253  0.4805
 3577TIP3    H232223   2.083   2.233  10.876 -2.4219  0.4899 -0.0311
 3578TIP3   OH232224   2.891   3.060  65.771  0.3011 -0.0443  0.2601
 3578TIP3    H132225   2.799   3.072  65.749  0.4668 -0.1722 -0.5501
 3578TIP3    H232226   2.924   3.148  65.788  0.3801  0.1892 -0.9681
 3579TIP3   OH232227   1.124   0.120   8.050  0.6903 -0.3027  0.3788
 3579TIP3    H132228   1.068   0.179   8.100  0.4006 -1.6411  1.6904
 3579TIP3    H232229   1.073   0.098   7.972 -0.2921 -0.8849  1.1716
 3580TIP3   OH232230   1.501   1.008   7.228  0.2199  0.2953 -0.0720
 3580TIP3    H132231   1.413   0.979   7.253  0.2168 -2.2850 -2.5695
 3580TIP3    H232232   1.559   0.937   7.255  1.1090  0.6397 -0.9910
 3581TIP3   OH232233   0.577   0.927  11.467 -0.3144 -0.0543  0.5680
 3581TIP3    H132234   0.661   0.971  11.482 -0.3138  1.6705 -3.1719
 3581TIP3    H232235   0.600   0.845  11.424 -0.3833  0.9618 -1.6000
 3582TIP3   OH232236   3.048   3.036  14.408  0.2715 -0.2581  0.0486
 3582TIP3    H132237   3.010   3.035  14.496  0.6616 -0.4538  0.2177
 3582TIP3    H232238   3.125   3.093  14.415 -1.3882  2.2551 -0.8992
 3583TIP3   OH232239   0.508   3.302  16.395  0.4377  0.0766 -0.1693
 3583TIP3    H132240   0.432   3.359  16.381  0.8174  0.6320 -0.0072
 3583TIP3    H232241   0.556   3.305  16.312  1.2547  1.2097  0.3164
 3584TIP3   OH232242   1.628   0.331  16.456  0.2111 -1.2654  0.0179
 3584TIP3    H132243   1.594   0.406  16.504  2.7265  1.6281 -2.3159
 3584TIP3    H232244   1.702   0.301  16.508 -2.1468 -3.9278  2.1846
 3585TIP3   OH232245   2.464   0.198  13.824 -0.1890 -0.2164  0.1457
 3585TIP3    H132246   2.482   0.137  13.895  1.1793  0.0472  0.0537
 3585TIP3    H232247   2.472   0.146  13.744  0.9080  0.0419  0.0707
 3586TIP3   OH232248   3.140   2.224  21.502  0.0627  0.2452  0.4803
 3586TIP3    H132249   3.090   2.228  21.420 -1.8703 -1.8137  1.4562
 3586TIP3    H232250   3.099   2.290  21.558  0.1212  0.3222  0.4329
 3587TIP3   OH232251   1.017   3.373  57.272 -0.6436 -0.0471 -0.4036
 3587TIP3    H132252   1.102   3.385  57.314 -0.4325 -0.5462 -0.6861
 3587TIP3    H232253   0.956   3.421  57.328 -0.1843  0.2817 -0.1796
 3588TIP3   OH232254   2.837   3.094  61.750  0.5307  0.0402 -0.3108
 3588TIP3    H132255   2.894   3.020  61.731  0.6424  0.5896 -2.4643
 3588TIP3    H232256   2.897   3.165  61.774  0.5994  0.0293 -0.4482
 3589TIP3   OH232257   2.505   2.012  16.881 -0.3495  0.4791  0.2511
 3589TIP3    H132258   2.506   1.935  16.939  0.3944  0.1704 -0.1576
 3589TIP3    H232259   2.452   1.985  16.806  0.9161 -0.0926 -0.4710
 3590TIP3   OH232260   2.862   2.352  65.883  0.6404  0.0828 -0.6065
 3590TIP3    H132261   2.769   2.374  65.889  0.9723  1.2462  1.1799
 3590TIP3    H232262   2.871   2.271  65.933  0.5850 -0.0162 -0.7577
 3591TIP3   OH232263   2.839   1.150  45.454  0.3044 -0.0380  0.1398
 3591TIP3    H132264   2.781   1.224  45.435 -0.1817 -0.0463  1.4504
 3591TIP3    H232265   2.779   1.077  45.469  0.6679 -0.1819  0.9475
 3592TIP3   OH232266   2.892   2.692   6.315 -1.0063  0.6301 -0.0796
 3592TIP3    H132267   2.888   2.753   6.388  1.9560  1.6303 -0.6218
 3592TIP3    H232268   2.950   2.622   6.345  0.0105  0.9005 -1.3528
 3593TIP3   OH232269   2.462   1.482  17.477 -0.0467 -0.1050  0.4131
 3593TIP3    H132270   2.543   1.532  17.472 -0.0746 -0.1115 -0.1627
 3593TIP3    H232271   2.403   1.526  17.415  0.3866 -1.6682 -1.1991
 3594TIP3   OH232272   2.657   1.927  64.252 -0.0537  0.4805 -0.2012
 3594TIP3    H132273   2.654   1.951  64.345 -1.4422 -1.4314  0.3157
 3594TIP3    H232274   2.583   1.972  64.213  0.3218  1.0074 -0.3123
 3595TIP3   OH232275   3.334   0.705  64.217 -0.3672 -0.0662  0.2038
 3595TIP3    H132276   3.389   0.634  64.184 -0.7251 -0.2161 -0.0630
 3595TIP3    H232277   3.254   0.702  64.165 -0.1135  0.9678 -0.2773
 3596TIP3   OH232278   0.782   1.115  10.340 -0.0287  0.3471  0.0838
 3596TIP3    H132279   0.859   1.080  10.296 -0.1614  0.7622 -0.4867
 3596TIP3    H232280   0.810   1.198  10.376 -0.3123  0.6999 -0.4868
 3597TIP3   OH232281   2.644   0.674  51.426  0.1736  0.2476 -0.2116
 3597TIP3    H132282   2.642   0.740  51.357  1.0479 -0.7060 -1.1737
 3597TIP3    H232283   2.593   0.713  51.498 -0.6560  1.3082 -1.3307
 3598TIP3   OH232284   1.092   0.603  43.559 -0.1120 -0.2904  0.1189
 3598TIP3    H132285   1.125   0.632  43.474 -0.3611  0.7096  0.3436
 3598TIP3    H232286   1.012   0.555  43.538 -0.0653 -0.2207 -0.2281
 3599TIP3   OH232287   2.829   2.563  12.096 -0.2110 -0.2485  0.1417
 3599TIP3    H132288   2.783   2.587  12.016 -0.3396 -2.8497 -0.6386
 3599TIP3    H232289   2.762   2.567  12.164 -0.4239  0.5903 -0.0940
 3600TIP3   OH232290   2.385   0.639  44.276 -0.3182 -0.2120  0.0772
 3600TIP3    H132291   2.420   0.652  44.364  2.1788  0.3581 -0.9226
 3600TIP3    H232292   2.293   0.665  44.283 -0.7980 -2.2204  2.9756
 3601TIP3   OH232293   1.906   2.118  58.296  0.9767  0.2237  0.5852
 3601TIP3    H132294   1.820   2.078  58.303  1.0582  0.0319  0.4979
 3601TIP3    H232295   1.945   2.078  58.218  0.6697  1.2270 -0.0923
 3602TIP3   OH232296   2.833   2.286  22.309 -0.0425 -0.1421  0.0071
 3602TIP3    H132297   2.901   2.244  22.363 -1.3328 -0.4410  1.4757
 3602TIP3    H232298   2.877   2.361  22.270  1.6212 -1.3452 -0.5585
 3603TIP3   OH232299   1.702   1.185  65.808 -0.3068 -0.2164  0.0210
 3603TIP3    H132300   1.791   1.149  65.811  0.1528  0.8273 -0.6699
 3603TIP3    H232301   1.647   1.109  65.788  0.5133 -0.7354 -0.3476
 3604TIP3   OH232302   1.898   2.692  63.248  0.0652  0.3178 -0.5603
 3604TIP3    H132303   1.852   2.770  63.278  0.0608 -0.1494  0.7375
 3604TIP3    H232304   1.938   2.717  63.165 -0.7066  1.4012 -0.6185
 3605TIP3   OH232305   3.320   2.710   9.243  0.0056  0.3440 -0.2425
 3605TIP3    H132306   3.348   2.753   9.163 -1.3179  0.3022 -0.7590
 3605TIP3    H232307   3.336   2.617   9.227 -0.5240  0.3065 -0.5888
 3606TIP3   OH232308   2.334   3.434  42.258 -0.0007 -0.3951 -0.2933
 3606TIP3    H132309   2.248   3.436  42.302 -0.4310 -1.9404 -0.9863
 3606TIP3    H232310   2.325   3.493  42.184 -1.6368 -2.9163 -2.2756
 3607TIP3   OH232311   2.303   0.781  53.964 -0.7174  0.1221 -0.2337
 3607TIP3    H132312   2.212   0.806  53.981 -0.5017 -1.0083  3.4885
 3607TIP3    H232313   2.297   0.716  53.895 -2.7538  0.0864 -0.0857
 3608TIP3   OH232314   1.270   2.425  61.794  0.2145 -0.5395 -0.2281
 3608TIP3    H132315   1.332   2.407  61.724 -0.6617 -0.3588 -1.0772
 3608TIP3    H232316   1.187   2.442  61.749  0.0111  1.3387  0.7542
 3609TIP3   OH232317   3.444   1.158  17.653  0.0768 -0.2919 -0.1343
 3609TIP3    H132318   3.513   1.129  17.713  0.8068  0.9646 -0.3431
 3609TIP3    H232319   3.414   1.078  17.611  1.7539 -0.8118 -0.4100
 3610TIP3   OH232320   1.501   1.417  22.085 -0.6823  0.1391 -0.5668
 3610TIP3    H132321   1.539   1.365  22.156 -1.6016  1.6007  1.0723
 3610TIP3    H232322   1.559   1.401  22.010 -0.1280 -2.0672  0.2483
 3611TIP3   OH232323   1.651   3.306  49.374  0.0058  0.5551 -0.3940
 3611TIP3    H132324   1.689   3.223  49.403 -2.9839 -1.2283 -1.0644
 3611TIP3    H232325   1.660   3.365  49.448  0.5916 -0.9814  0.7970
 3612TIP3   OH232326   1.232   0.710  53.311 -0.2048 -0.1902  0.0118
 3612TIP3    H132327   1.236   0.646  53.240 -0.0515 -2.0124  1.5880
 3612TIP3    H232328   1.323   0.731  53.330 -0.2374  0.1022 -0.1485
 3613TIP3   OH232329   2.879   0.196  17.013 -0.1789 -0.3339 -0.3950
 3613TIP3    H132330   2.864   0.268  17.074  2.2123 -0.4847  0.4938
 3613TIP3    H232331   2.918   0.238  16.936 -1.3558 -0.3805 -1.0354
 3614TIP3   OH232332   0.472   1.591   4.754 -0.1620  0.3674  1.3127
 3614TIP3    H132333   0.377   1.591   4.744 -0.2335  1.5665  1.7338
 3614TIP3    H232334   0.503   1.645   4.680  0.0123  1.6308  2.2705
 3615TIP3   OH232335   2.521   0.490  17.206  0.4882  0.2624  0.1254
 3615TIP3    H132336   2.603   0.521  17.166  0.1826  2.3611  0.9915
 3615TIP3    H232337   2.523   0.526  17.295  0.1128 -2.4275  1.3148
 3616TIP3   OH232338   3.316   2.192  47.573  0.3033  0.0212  0.1077
 3616TIP3    H132339   3.351   2.281  47.566 -1.0788  0.6538  0.9839
 3616TIP3    H232340   3.281   2.186  47.662 -0.7252 -0.9929 -0.3412
 3617TIP3   OH232341   3.037   2.666  54.049  0.7192  0.0738  0.1787
 3617TIP3    H132342   3.084   2.742  54.013  0.0314  0.6057  0.3835
 3617TIP3    H232343   3.106   2.602  54.067  1.5048  1.2080  1.4107
 3618TIP3   OH232344   2.892   0.910  58.105 -0.5762 -0.4568 -0.0495
 3618TIP3    H132345   2.936   0.975  58.051 -2.6620 -0.4865 -1.9108
 3618TIP3    H232346   2.818   0.956  58.143 -0.0457 -0.8661  1.5768
 3619TIP3   OH232347   2.069   2.552  53.949 -0.4929 -0.3678 -0.6167
 3619TIP3    H132348   2.024   2.599  54.019 -0.7740  0.6215 -1.4391
 3619TIP3    H232349   2.125   2.489  53.995 -0.0820  0.7881  0.5433
 3620TIP3   OH232350   0.391   2.895   8.459 -0.5572 -1.0823 -0.1131
 3620TIP3    H132351   0.302   2.922   8.483 -0.7031 -0.7838 -0.9430
 3620TIP3    H232352   0.391   2.897   8.363  0.1369 -1.7694 -0.1371
 3621TIP3   OH232353   2.860   1.908  44.759 -0.2162 -0.1046  0.2343
 3621TIP3    H132354   2.778   1.875  44.723  0.6135 -0.9449 -0.9941
 3621TIP3    H232355   2.893   1.968  44.692  1.4107 -1.7707 -0.5286
 3622TIP3   OH232356   3.010   2.150   4.429  0.6000 -0.2852 -0.2968
 3622TIP3    H132357   3.098   2.121   4.403  0.3045 -1.6729  0.1779
 3622TIP3    H232358   2.952   2.081   4.399 -0.2835  0.3714 -0.1406
 3623TIP3   OH232359   3.021   2.653  20.992  0.2634  0.5739 -0.1784
 3623TIP3    H132360   3.035   2.728  21.049  1.2795  0.3661 -0.1419
 3623TIP3    H232361   3.052   2.578  21.043  0.0160  0.2277 -0.5281
 3624TIP3   OH232362   1.445   3.095  16.594 -0.4634 -0.4776 -0.4721
 3624TIP3    H132363   1.476   3.162  16.533  0.2447 -1.7128 -1.5199
 3624TIP3    H232364   1.502   3.102  16.670 -1.9599  1.7289  0.5655
 3625TIP3   OH232365   2.659   0.061  13.998  0.1469  0.0175  0.1341
 3625TIP3    H132366   2.736   0.085  13.948 -0.4828  1.8877 -0.0149
 3625TIP3    H232367   2.688   0.063  14.089  0.6997 -1.0683 -0.0027
 3626TIP3   OH232368   1.966   2.416  53.558 -0.5446 -0.4336 -0.1461
 3626TIP3    H132369   2.038   2.415  53.494 -0.4528 -0.0133 -0.0512
 3626TIP3    H232370   1.998   2.361  53.630 -0.1680  0.0285  0.0502
 3627TIP3   OH232371   0.981   1.857  60.283 -0.6775 -0.2449 -0.5702
 3627TIP3    H132372   0.944   1.771  60.269 -1.1540 -0.1585  0.1301
 3627TIP3    H232373   0.962   1.878  60.374  1.6846 -0.4896  0.0643
 3628TIP3   OH232374   1.124   2.213  56.141  0.1501 -0.6172 -0.0582
 3628TIP3    H132375   1.214   2.182  56.145  0.6909  0.8523 -0.2875
 3628TIP3    H232376   1.072   2.140  56.174  1.5457 -0.9973  1.4100
 3629TIP3   OH232377   2.539   2.014  52.613  0.2803  0.2520 -0.1807
 3629TIP3    H132378   2.504   1.996  52.525 -2.8623  1.3881  0.6930
 3629TIP3    H232379   2.574   2.103  52.607  0.0907  0.3200 -0.2929
 3630TIP3   OH232380   1.580   1.722  44.666 -0.3049  0.4686  0.3736
 3630TIP3    H132381   1.554   1.751  44.753 -1.1901 -0.7179  0.5334
 3630TIP3    H232382   1.559   1.629  44.664  0.7256  0.2269 -0.7349
 3631TIP3   OH232383   2.562   2.510   7.447 -0.7877  0.6897  0.3844
 3631TIP3    H132384   2.540   2.590   7.494 -0.8027  0.6794  0.3948
 3631TIP3    H232385   2.479   2.461   7.442 -0.6952  0.4950  0.7236
 3632TIP3   OH232386   2.946   1.668  13.554 -0.2028  0.1039 -0.0886
 3632TIP3    H132387   2.880   1.701  13.614 -1.5314  0.2861 -1.5784
 3632TIP3    H232388   2.914   1.581  13.529 -0.6792  0.7680 -1.9256
 3633TIP3   OH232389   1.433   3.257  46.780 -0.4164 -0.0315  0.6487
 3633TIP3    H132390   1.409   3.281  46.870 -0.8831  0.7071  0.3361
 3633TIP3    H232391   1.528   3.270  46.776 -0.4634  0.4060  0.8987
 3634TIP3   OH232392   1.426   1.259   2.365  0.5981  0.8993 -0.0976
 3634TIP3    H132393   1.449   1.168   2.346  1.8339  0.5453  2.5714
 3634TIP3    H232394   1.405   1.297   2.279 -1.8638 -2.3226 -1.1164
 3635TIP3   OH232395   0.493   1.129   6.994 -0.7617  0.1341  0.0850
 3635TIP3    H132396   0.425   1.195   6.983  0.3098  0.9377 -2.3771
 3635TIP3    H232397   0.561   1.173   7.046  0.0297  1.1223 -1.6982
 3636TIP3   OH232398   1.065   1.182   5.437  0.0716  0.0088 -0.0190
 3636TIP3    H132399   1.113   1.246   5.490  1.2977 -0.5302 -0.4392
 3636TIP3    H232400   0.984   1.226   5.414 -0.6288  0.1840  2.4924
 3637TIP3   OH232401   0.007   1.495  47.666 -0.5612  1.0112 -0.3063
 3637TIP3    H132402   0.095   1.523  47.693 -0.4144  0.0732  0.2297
 3637TIP3    H232403  -0.008   1.542  47.584  2.3805 -2.2158 -3.0391
 3638TIP3   OH232404   0.093   3.109  44.667  0.0575 -0.1888  0.2043
 3638TIP3    H132405   0.173   3.059  44.685 -0.2101 -1.0306 -0.8458
 3638TIP3    H232406   0.027   3.068  44.723 -0.6567 -2.4761 -2.0926
 3639TIP3   OH232407   3.121   2.449  50.933 -0.5906 -0.0679  0.4210
 3639TIP3    H132408   3.041   2.400  50.954 -0.4709  0.1771  1.4933
 3639TIP3    H232409   3.192   2.395  50.968  0.0127 -1.6903 -2.9443
 3640TIP3   OH232410   2.528   1.608  11.358 -0.3378 -0.1011 -0.2040
 3640TIP3    H132411   2.561   1.627  11.446 -1.1512  1.2432 -0.1734
 3640TIP3    H232412   2.536   1.512  11.350  2.8615  0.0340  0.0373
 3641TIP3   OH232413   2.126   1.195  52.801 -0.5934 -0.0812 -0.1770
 3641TIP3    H132414   2.221   1.187  52.789 -0.7768 -0.5798 -1.4574
 3641TIP3    H232415   2.097   1.247  52.725 -1.0258  2.5031  1.6224
 3642TIP3   OH232416   2.992   1.283  31.350  0.3282  0.3835 -0.5504
 3642TIP3    H132417   3.085   1.274  31.371  0.3849 -0.7198 -1.2486
 3642TIP3    H232418   2.979   1.231  31.272 -0.6646  1.4137 -1.1089
 3643TIP3   OH232419   1.705   1.974  17.883 -0.1709  0.4756  0.2566
 3643TIP3    H132420   1.646   1.901  17.902  0.1474  0.0694 -0.2528
 3643TIP3    H232421   1.793   1.935  17.890  0.0074  0.8622  0.1937
 3644TIP3   OH232422   1.984   1.921  61.771  0.0360  0.0291 -0.2777
 3644TIP3    H132423   1.994   1.907  61.677  0.8805  1.0673 -0.3617
 3644TIP3    H232424   2.051   1.986  61.793 -2.0261  2.0535  0.4690
 3645TIP3   OH232425   0.951   1.604  49.241 -0.4730  0.0897  0.2297
 3645TIP3    H132426   1.000   1.669  49.191 -0.8884  0.0497 -0.2353
 3645TIP3    H232427   0.860   1.617  49.214 -0.6680 -0.1109  0.7796
 3646TIP3   OH232428   2.675   2.693  30.378 -0.2537  0.1761  0.3324
 3646TIP3    H132429   2.691   2.603  30.405  0.5838 -0.0007 -0.7037
 3646TIP3    H232430   2.628   2.685  30.295 -0.2390  0.6977  0.2689
 3647TIP3   OH232431   2.001   1.320  61.805 -0.2083 -1.0131 -0.1776
 3647TIP3    H132432   2.042   1.350  61.886  1.3560 -1.2837 -0.8375
 3647TIP3    H232433   1.922   1.274  61.834 -1.1731  1.2474  1.0101
 3648TIP3   OH232434   0.273   2.135   6.631 -0.1395  0.3835  0.1897
 3648TIP3    H132435   0.339   2.203   6.622  0.4457 -0.2167 -0.1287
 3648TIP3    H232436   0.246   2.139   6.723  0.8056  0.2156  0.4863
 3649TIP3   OH232437   3.228   2.827  52.132  0.1485  0.1974 -0.0464
 3649TIP3    H132438   3.216   2.738  52.100  0.4480 -0.0214  0.4294
 3649TIP3    H232439   3.150   2.874  52.103 -0.7348 -0.5890  0.9803
 3650TIP3   OH232440   2.030   0.285  52.782 -0.5605 -0.5755  0.1764
 3650TIP3    H132441   2.046   0.194  52.806 -0.0649 -0.5381 -0.0061
 3650TIP3    H232442   1.999   0.326  52.863 -1.3899 -1.0427  0.1054
 3651TIP3   OH232443   0.032   2.909   0.873 -0.5737 -0.3054  0.0994
 3651TIP3    H132444   0.048   2.836   0.814 -0.9994 -0.4525  0.1654
 3651TIP3    H232445  -0.063   2.912   0.883 -0.7897  1.6710 -1.7086
 3652TIP3   OH232446   3.043   3.296  51.859 -0.4400 -0.2438 -0.1688
 3652TIP3    H132447   3.124   3.326  51.900 -1.3789  0.3873  1.3278
 3652TIP3    H232448   3.071   3.251  51.780  1.2238  2.7679 -1.4664
 3653TIP3   OH232449   1.147   1.627   1.861  0.2866  0.3880 -0.0453
 3653TIP3    H132450   1.176   1.718   1.863 -1.2260  0.8970  0.0557
 3653TIP3    H232451   1.225   1.576   1.882  1.0796  1.6801  0.2204
 3654TIP3   OH232452   2.250   2.632  57.258 -0.0401 -0.2734  0.3294
 3654TIP3    H132453   2.325   2.630  57.199 -0.5591 -0.8636 -0.3199
 3654TIP3    H232454   2.263   2.712  57.309 -0.5118  1.2601 -1.8179
 3655TIP3   OH232455   1.347   0.313   9.864  0.6362  0.1362 -0.4558
 3655TIP3    H132456   1.266   0.365   9.868  1.5638  1.6105  2.0975
 3655TIP3    H232457   1.326   0.234   9.914  1.0720  1.1505  1.4529
 3656TIP3   OH232458   2.147   1.856  21.090 -0.2365  0.5278  0.2850
 3656TIP3    H132459   2.130   1.824  21.179 -1.3895  0.3456  0.0234
 3656TIP3    H232460   2.242   1.853  21.080 -0.1478 -0.1612  1.2562
 3657TIP3   OH232461   2.913   0.408   8.177 -0.3381 -0.1768  0.6141
 3657TIP3    H132462   2.847   0.391   8.243 -0.4160 -1.4550  0.2361
 3657TIP3    H232463   2.919   0.504   8.172 -0.4372 -0.0526  2.3311
 3658TIP3   OH232464   1.408   2.690   0.493 -0.0786 -0.2402 -0.5889
 3658TIP3    H132465   1.449   2.731   0.569 -2.7989 -1.5775  1.8408
 3658TIP3    H232466   1.372   2.762   0.443 -0.4730  0.6368  0.8814
 3659TIP3   OH232467   0.490   1.902  58.996 -0.5240 -0.1419 -0.6797
 3659TIP3    H132468   0.478   1.996  58.986  1.1458  0.2359  0.4907
 3659TIP3    H232469   0.509   1.871  58.908  1.7475  1.1121 -0.7093
 3660TIP3   OH232470   2.927   2.464   9.247  0.2115 -0.8723  0.2811
 3660TIP3    H132471   2.984   2.390   9.268  0.0193 -0.8808  0.7797
 3660TIP3    H232472   2.970   2.507   9.172 -0.0427 -1.8853 -0.4583
 3661TIP3   OH232473   3.386   0.549   7.701 -0.1336  0.2872  0.0602
 3661TIP3    H132474   3.423   0.472   7.659 -0.3185  0.0821  0.2698
 3661TIP3    H232475   3.301   0.561   7.657 -0.7955 -0.5438  1.0742
 3662TIP3   OH232476   2.369   0.800  47.013 -0.1984 -0.2133  0.7145
 3662TIP3    H132477   2.411   0.874  46.968 -1.4241  1.0804  1.6324
 3662TIP3    H232478   2.433   0.773  47.079  1.1492 -1.4070 -1.0073
 3663TIP3   OH232479   0.277   0.526  49.299  0.1502 -0.1618 -0.0869
 3663TIP3    H132480   0.196   0.577  49.290  0.6144  0.5696 -0.2441
 3663TIP3    H232481   0.248   0.435  49.304 -0.6821  0.0913 -0.1379
 3664TIP3   OH232482   2.179   0.245  61.069  0.3235  0.1996 -0.3743
 3664TIP3    H132483   2.231   0.311  61.024  0.2619  0.6255  0.1601
 3664TIP3    H232484   2.236   0.168  61.073  1.0498  0.7587  0.4779
 3665TIP3   OH232485   0.674   2.541   6.517 -0.0387  0.3493  0.0699
 3665TIP3    H132486   0.750   2.542   6.575  1.3906  1.0132 -1.7313
 3665TIP3    H232487   0.702   2.492   6.440 -0.4433  2.8771 -1.8174
 3666TIP3   OH232488   0.281   1.903  47.184 -0.0939 -0.1916 -0.1447
 3666TIP3    H132489   0.255   1.853  47.261 -0.9866 -0.2025 -0.4319
 3666TIP3    H232490   0.256   1.847  47.110  2.4614 -1.0262 -0.4779
 3667TIP3   OH232491   2.485   0.129  55.561  0.0728  0.5758 -0.6036
 3667TIP3    H132492   2.414   0.065  55.557 -0.8376  1.1593  2.9247
 3667TIP3    H232493   2.563   0.076  55.576 -0.1872  0.1442 -0.7257
 3668TIP3   OH232494   1.297   0.750  52.816 -0.1435 -0.6787 -0.2904
 3668TIP3    H132495   1.263   0.837  52.837 -0.1849 -0.4623 -1.2030
 3668TIP3    H232496   1.368   0.735  52.878 -2.3758 -1.5025  2.3124
 3669TIP3   OH232497   0.558   2.775  60.564  0.3111 -0.6992  0.1015
 3669TIP3    H132498   0.557   2.755  60.658  1.0679  0.5887  0.3954
 3669TIP3    H232499   0.468   2.759  60.536  0.2624 -1.9230  0.8557
 3670TIP3   OH232500   0.790   1.428  11.779 -0.5835 -0.1527 -0.2349
 3670TIP3    H132501   0.820   1.469  11.698  0.9260  2.9859  1.7443
 3670TIP3    H232502   0.711   1.476  11.802 -0.6436 -0.5896  0.5023
 3671TIP3   OH232503   0.423   1.714  14.154 -0.4095  0.0220 -0.1691
 3671TIP3    H132504   0.423   1.701  14.249  0.0422 -0.1061 -0.1852
 3671TIP3    H232505   0.485   1.786  14.140 -1.0944  0.6079 -0.2957
 3672TIP3   OH232506   0.413   2.463  10.189  0.0441 -0.4945  0.2784
 3672TIP3    H132507   0.345   2.473  10.256  0.6396  0.4749  0.7536
 3672TIP3    H232508   0.396   2.533  10.126 -0.4183 -1.3052 -0.5209
 3673TIP3   OH232509   0.746   2.774  18.102 -0.3090  0.2602 -0.7822
 3673TIP3    H132510   0.792   2.792  18.020 -0.3269 -0.3662 -0.9424
 3673TIP3    H232511   0.815   2.774  18.168 -0.2920  0.7520 -0.7993
 3674TIP3   OH232512   1.617   1.857   9.663 -0.0420 -1.0552 -0.1544
 3674TIP3    H132513   1.626   1.833   9.571  0.2623 -0.5062 -0.2675
 3674TIP3    H232514   1.696   1.822   9.705  0.2343 -0.5562 -0.2572
 3675TIP3   OH232515   0.721   1.174  57.056 -0.3303 -0.0677 -0.5619
 3675TIP3    H132516   0.773   1.110  57.105 -1.4287  1.0690  2.2951
 3675TIP3    H232517   0.783   1.215  56.996  1.0110 -1.7983 -0.4379
 3676TIP3   OH232518   1.803   1.183   6.372  0.4984  0.3201 -0.0128
 3676TIP3    H132519   1.794   1.272   6.338  0.5650  0.4312  0.2615
 3676TIP3    H232520   1.767   1.128   6.302  0.4763  0.5585 -0.1933
 3677TIP3   OH232521   2.306   1.364   0.825  0.0226 -0.0806  0.2477
 3677TIP3    H132522   2.334   1.455   0.816  0.8216 -0.1113  2.1253
 3677TIP3    H232523   2.383   1.313   0.802 -0.0813 -0.2635  0.3026
 3678TIP3   OH232524   1.891   1.337  18.538 -0.7761 -0.0273  0.2123
 3678TIP3    H132525   1.886   1.249  18.575 -2.5692 -0.0263  0.0334
 3678TIP3    H232526   1.800   1.365  18.528 -0.3768  0.6094 -2.6691
 3679TIP3   OH232527   2.294   0.563   6.566  0.4127  0.6015 -0.3298
 3679TIP3    H132528   2.332   0.507   6.634  0.7494  0.8216 -0.3369
 3679TIP3    H232529   2.201   0.541   6.567  0.1581  1.5610  1.1343
 3680TIP3   OH232530   3.085   1.824  30.099 -0.1515  0.6725 -0.2607
 3680TIP3    H132531   3.072   1.913  30.064 -1.1653  0.8205  0.4398
 3680TIP3    H232532   3.012   1.773  30.063 -0.5083  0.5357  0.6207
 3681TIP3   OH232533   2.230   1.113  64.340 -0.6927  0.5683 -0.5737
 3681TIP3    H132534   2.269   1.191  64.300 -0.4823 -0.1592 -1.8308
 3681TIP3    H232535   2.150   1.097  64.290 -1.5607  0.8431  0.6646
 3682TIP3   OH232536   0.134   1.077  43.928  0.1457 -0.4035  0.0006
 3682TIP3    H132537   0.156   1.017  43.857 -2.0885 -2.8310  1.1842
 3682TIP3    H232538   0.162   1.032  44.008 -0.3436  0.7432  0.8510
 3683TIP3   OH232539   3.378   0.324  31.337 -0.0350 -0.4288 -0.2312
 3683TIP3    H132540   3.330   0.279  31.268  1.2570 -1.8087 -0.2886
 3683TIP3    H232541   3.467   0.290  31.330  0.2337 -0.3039  1.8468
 3684TIP3   OH232542   2.436   1.122  60.910  0.0293  0.0293 -0.2386
 3684TIP3    H132543   2.453   1.149  61.000 -1.6427  0.9857 -0.1665
 3684TIP3    H232544   2.496   1.176  60.857 -0.5251  1.0550  0.1690
 3685TIP3   OH232545   0.337   1.685  55.466 -0.4399  0.0294 -0.3506
 3685TIP3    H132546   0.272   1.754  55.453 -0.6098 -0.3836 -1.8897
 3685TIP3    H232547   0.344   1.677  55.561 -0.9804  1.6185 -0.1382
 3686TIP3   OH232548   2.446   2.340   4.014 -0.1090  0.3174 -0.3312
 3686TIP3    H132549   2.488   2.268   3.967  1.5259 -0.6031  2.2865
 3686TIP3    H232550   2.354   2.314   4.020  0.1539 -0.7994 -0.7817
 3687TIP3   OH232551   3.157   2.836  10.693 -0.4872 -0.3708 -0.1199
 3687TIP3    H132552   3.128   2.887  10.617  1.1610 -0.6939 -1.0333
 3687TIP3    H232553   3.240   2.797  10.665 -0.2321 -1.1611  1.5861
 3688TIP3   OH232554   0.205   0.400  17.567  0.0664  0.2533  0.2591
 3688TIP3    H132555   0.287   0.447  17.579 -0.4420  0.8968  1.4606
 3688TIP3    H232556   0.214   0.321  17.620  0.5606 -0.5474 -1.0012
 3689TIP3   OH232557   1.139   0.197  19.837 -0.0958  0.1737 -0.8725
 3689TIP3    H132558   1.114   0.289  19.848  2.3183  0.8538 -0.4144
 3689TIP3    H232559   1.144   0.185  19.742  0.9286  0.9652 -0.9406
 3690TIP3   OH232560   1.743   0.367  11.421 -0.5066 -0.1804 -0.1574
 3690TIP3    H132561   1.732   0.290  11.366 -2.8655 -0.0620  0.0429
 3690TIP3    H232562   1.769   0.437  11.361  1.3762 -1.0054 -0.3779
 3691TIP3   OH232563   1.269   3.090  52.441 -0.4493  0.2531 -0.5743
 3691TIP3    H132564   1.261   3.148  52.365  0.4305  0.8951 -0.1967
 3691TIP3    H232565   1.180   3.084  52.476 -0.2912  2.9676  0.5159
 3692TIP3   OH232566   0.044   1.791  64.108  0.2538 -0.0992 -0.0592
 3692TIP3    H132567  -0.000   1.746  64.036  0.5536 -1.1939  0.4156
 3692TIP3    H232568  -0.012   1.865  64.129  0.8500  1.0704 -2.3311
 3693TIP3   OH232569   1.915   2.669  47.614  0.0304  0.3444 -0.3001
 3693TIP3    H132570   1.988   2.613  47.586  0.9607  1.7906 -0.8999
 3693TIP3    H232571   1.943   2.704  47.699 -0.3139  0.2902 -0.1659
 3694TIP3   OH232572   2.552   0.192  52.245 -0.1702 -0.0334 -0.3435
 3694TIP3    H132573   2.460   0.194  52.219 -0.0971 -0.6050 -0.6611
 3694TIP3    H232574   2.571   0.099  52.259  0.3012  0.0997 -0.0740
 3695TIP3   OH232575   1.426   3.159  45.725 -0.5967 -0.4280  0.5253
 3695TIP3    H132576   1.415   3.248  45.691  0.1101 -0.7612 -0.6157
 3695TIP3    H232577   1.495   3.121  45.670 -2.7719 -2.6118 -0.8564
 3696TIP3   OH232578   3.251   0.185  17.202 -0.0603 -0.2834 -0.2489
 3696TIP3    H132579   3.167   0.140  17.200 -0.2853 -0.0666  1.9229
 3696TIP3    H232580   3.316   0.114  17.206 -0.2479 -0.4432  0.0012
 3697TIP3   OH232581   2.254   1.628  58.620  0.0287  0.8836 -0.2153
 3697TIP3    H132582   2.332   1.662  58.662  0.0340  0.8931 -0.2336
 3697TIP3    H232583   2.191   1.618  58.691  0.3044  0.1189 -0.0767
 3698TIP3   OH232584   1.119   3.451  21.914  0.5891  0.4260  0.0615
 3698TIP3    H132585   1.124   3.542  21.940  0.4751 -0.0433  1.8426
 3698TIP3    H232586   1.063   3.410  21.979  0.1102 -0.8024 -1.0693
 3699TIP3   OH232587   0.699   0.497  58.625 -0.2606 -0.5079  0.3843
 3699TIP3    H132588   0.662   0.531  58.706  0.5338 -0.2065  0.6326
 3699TIP3    H232589   0.793   0.517  58.632 -0.2787  0.0817 -0.8864
 3700TIP3   OH232590   1.350   0.681  56.769 -0.2791 -0.1438  0.2900
 3700TIP3    H132591   1.312   0.594  56.769  1.3523 -0.9059  1.4901
 3700TIP3    H232592   1.399   0.686  56.687  0.9048 -0.9815  0.9221
 3701TIP3   OH232593   3.321   0.534   1.830  0.0060  0.1362 -0.1132
 3701TIP3    H132594   3.346   0.527   1.738  1.1750 -1.1096  0.2709
 3701TIP3    H232595   3.367   0.612   1.861  2.0012 -1.0701  0.1024
 3702TIP3   OH232596   0.468   0.314   9.876 -0.7267  0.0323  0.2431
 3702TIP3    H132597   0.414   0.315   9.955  0.9547  0.7967  1.4314
 3702TIP3    H232598   0.511   0.399   9.875 -0.7390  0.0440 -1.5318
 3703TIP3   OH232599   0.261   2.554  18.513  0.0967  0.1350  0.3856
 3703TIP3    H132600   0.276   2.577  18.421  0.0030 -1.5708 -0.0771
 3703TIP3    H232601   0.205   2.477  18.510  0.8797 -0.5299  1.8687
 3704TIP3   OH232602   2.706   1.116   6.975  0.1818  0.2540 -0.2231
 3704TIP3    H132603   2.690   1.203   7.012 -0.5265  0.3629 -0.7764
 3704TIP3    H232604   2.674   1.055   7.042 -0.1409  0.4374 -0.2084
 3705TIP3   OH232605   2.620   3.020  12.940  0.3747 -0.0476  0.7921
 3705TIP3    H132606   2.703   2.973  12.928  0.0739 -0.1347 -1.3446
 3705TIP3    H232607   2.639   3.109  12.911 -0.4278 -0.2370 -0.3608
 3706TIP3   OH232608   2.799   1.640   5.198  0.0811 -0.1200  0.3129
 3706TIP3    H132609   2.784   1.729   5.229  0.0869  0.0117 -0.0603
 3706TIP3    H232610   2.893   1.628   5.205  0.0706 -0.1271  0.4435
 3707TIP3   OH232611   3.196   0.749  15.855  0.0207 -0.8137 -0.2523
 3707TIP3    H132612   3.128   0.771  15.918  0.2312 -1.4106  0.1860
 3707TIP3    H232613   3.153   0.690  15.793 -0.0698 -0.5661 -0.4268
 3708TIP3   OH232614   1.106   2.267  12.104 -0.2788 -0.1475  0.0836
 3708TIP3    H132615   1.145   2.258  12.191  0.7525  1.3012 -0.1784
 3708TIP3    H232616   1.174   2.237  12.044 -0.7060 -0.4440 -0.2586
 3709TIP3   OH232617   2.988   0.025  22.840  0.7336 -0.6786 -0.4405
 3709TIP3    H132618   3.002   0.116  22.868  0.6353 -0.7443 -0.1718
 3709TIP3    H232619   2.980  -0.024  22.922  0.6271 -0.9062 -0.5869
 3710TIP3   OH232620   2.170   0.749  11.102 -0.2352 -0.5520 -0.4134
 3710TIP3    H132621   2.149   0.739  11.009 -0.7657 -1.0200 -0.2530
 3710TIP3    H232622   2.266   0.750  11.105 -0.1825 -1.7657 -0.8607
 3711TIP3   OH232623   1.615   1.239  56.939 -0.0533  0.0569  0.7248
 3711TIP3    H132624   1.553   1.261  56.870 -0.1570  1.6931  1.2978
 3711TIP3    H232625   1.658   1.158  56.908 -0.0989  0.7310 -1.2338
 3712TIP3   OH232626   0.699   1.841  65.784 -0.3560 -0.1512  0.3887
 3712TIP3    H132627   0.775   1.792  65.816 -1.0147 -2.6386 -1.5133
 3712TIP3    H232628   0.719   1.859  65.692 -0.8610  1.8309  0.6144
 3713TIP3   OH232629   2.120   0.274  54.797 -0.5861 -0.5792  0.6500
 3713TIP3    H132630   2.063   0.351  54.795  1.9503  1.4398  0.7612
 3713TIP3    H232631   2.139   0.255  54.706  2.3167  1.8866  0.5894
 3714TIP3   OH232632   3.112   2.199  42.769  0.6584  0.5789  0.7918
 3714TIP3    H132633   3.159   2.262  42.823  0.1670  1.6098  0.0381
 3714TIP3    H232634   3.140   2.218  42.680 -1.1237  1.1833  0.3207
 3715TIP3   OH232635   2.983   2.122  45.900  0.4705 -0.5900 -0.3526
 3715TIP3    H132636   2.917   2.083  45.843  0.8752 -0.5884 -0.8182
 3715TIP3    H232637   2.984   2.215  45.876  0.8159 -0.6353 -0.5100
 3716TIP3   OH232638   1.451   0.732  18.343 -0.0721 -0.3762  0.4632
 3716TIP3    H132639   1.513   0.689  18.285 -0.2270 -0.3952  0.3115
 3716TIP3    H232640   1.408   0.660  18.389  1.5530 -0.3196  2.1863
 3717TIP3   OH232641   2.474   0.412  58.650  0.2552  0.3547  0.5577
 3717TIP3    H132642   2.522   0.389  58.729 -0.9705  1.4502  1.6695
 3717TIP3    H232643   2.431   0.495  58.671 -2.2927 -0.6587 -0.2877
 3718TIP3   OH232644   1.180   1.629  19.000  0.0474  0.6664  0.7184
 3718TIP3    H132645   1.093   1.658  19.028  0.1325  2.3818 -0.6295
 3718TIP3    H232646   1.238   1.701  19.025  0.7850  0.3217  0.0166
 3719TIP3   OH232647   1.816   0.870  10.573  0.0552  0.8262  0.0972
 3719TIP3    H132648   1.815   0.965  10.557  0.9103  0.9530  0.7481
 3719TIP3    H232649   1.730   0.840  10.543  0.4282  1.5167 -1.8646
 3720TIP3   OH232650   2.134   0.102  60.255  0.3759 -0.0457 -0.1843
 3720TIP3    H132651   2.091   0.180  60.289 -0.5345 -1.0955  1.2112
 3720TIP3    H232652   2.129   0.039  60.327  0.3260 -1.6636 -1.5337
 3721TIP3   OH232653   0.929   2.288  55.004  0.2557  0.3715  0.0527
 3721TIP3    H132654   1.012   2.260  54.966  0.7170  1.7339 -0.0206
 3721TIP3    H232655   0.880   2.325  54.931 -0.6617 -0.9070 -0.0082
 3722TIP3   OH232656   2.152   2.482  67.091 -0.0567  0.1111  0.0857
 3722TIP3    H132657   2.222   2.442  67.143  0.3439  1.4237  0.5944
 3722TIP3    H232658   2.071   2.446  67.129  0.3035 -1.1388 -0.2657
 3723TIP3   OH232659   0.649   2.493  55.509 -0.0728 -0.0943  0.0615
 3723TIP3    H132660   0.619   2.431  55.442 -0.9763  0.7060 -0.3116
 3723TIP3    H232661   0.744   2.488  55.505 -0.0857  0.2135 -1.5880
 3724TIP3   OH232662   1.768   3.451  13.214 -0.2564 -0.4243  0.1054
 3724TIP3    H132663   1.858   3.423  13.233 -0.1831 -1.1050 -1.1174
 3724TIP3    H232664   1.754   3.527  13.270  1.1993 -0.0998  0.0760
 3725TIP3   OH232665   3.223   1.224  50.101  0.5612  0.1432  0.4077
 3725TIP3    H132666   3.226   1.173  50.020 -1.4511 -0.5477  0.7196
 3725TIP3    H232667   3.135   1.262  50.102  1.5802  2.6920  0.7844
 3726TIP3   OH232668   2.098   3.209   0.699  0.7112 -0.3216  0.0749
 3726TIP3    H132669   2.156   3.245   0.767  0.3681 -1.0112  0.7500
 3726TIP3    H232670   2.031   3.162   0.748  0.0633 -0.2515 -0.7349
 3727TIP3   OH232671   0.316   3.016  22.744 -0.0169 -0.2849  0.3985
 3727TIP3    H132672   0.281   3.012  22.655 -0.0233 -1.3662  0.4438
 3727TIP3    H232673   0.302   3.107  22.770 -0.9952 -0.2135 -0.3102
 3728TIP3   OH232674   3.086   1.424  59.231 -0.1796 -0.3005  0.8929
 3728TIP3    H132675   3.132   1.479  59.295 -2.0130  0.7409  1.3718
 3728TIP3    H232676   3.117   1.456  59.147 -1.2761  1.6204  1.1550
 3729TIP3   OH232677   1.944   0.221  61.610  0.3494 -0.0268  0.1122
 3729TIP3    H132678   1.866   0.271  61.584 -0.1631 -0.8490  0.0390
 3729TIP3    H232679   1.909   0.146  61.657  1.1012 -0.5281 -0.1204
 3730TIP3   OH232680   1.196   2.769  58.043 -0.3089 -0.4481  0.0428
 3730TIP3    H132681   1.164   2.679  58.033  1.0314 -1.0932  1.2667
 3730TIP3    H232682   1.286   2.766  58.010 -0.3465  0.5301 -0.1756
 3731TIP3   OH232683   0.201   1.817   4.576 -0.3171 -0.0282  0.0202
 3731TIP3    H132684   0.202   1.722   4.560  0.8145  0.2788 -2.1930
 3731TIP3    H232685   0.117   1.834   4.617 -0.7156 -1.9463  0.0780
 3732TIP3   OH232686   0.903   0.618  52.254  0.2595 -0.5867 -0.3805
 3732TIP3    H132687   0.915   0.709  52.282  0.8233 -0.2986 -1.4970
 3732TIP3    H232688   0.939   0.616  52.165 -0.3618 -1.7433 -0.6188
 3733TIP3   OH232689   3.383   0.522  45.494  0.2433  0.4808  0.5449
 3733TIP3    H132690   3.362   0.448  45.553 -0.6777 -0.7818 -1.2698
 3733TIP3    H232691   3.478   0.520  45.486  0.1435 -2.4261 -1.6701
 3734TIP3   OH232692   2.600   2.608  44.562 -0.1528 -0.3799 -0.2190
 3734TIP3    H132693   2.525   2.552  44.583 -1.5575  0.6786 -2.0961
 3734TIP3    H232694   2.562   2.695  44.552  1.1159 -0.0282 -2.4186
 3735TIP3   OH232695   0.336   0.989  11.011  0.1112 -0.2115 -1.0808
 3735TIP3    H132696   0.248   1.025  11.002 -0.2629 -0.6627  0.6082
 3735TIP3    H232697   0.374   0.999  10.923 -1.8740 -0.7473 -2.0671
 3736TIP3   OH232698   3.110   1.334  52.035  0.1011  0.4102 -0.3400
 3736TIP3    H132699   3.090   1.294  51.950  0.1598  2.4236 -1.3354
 3736TIP3    H232700   3.200   1.364  52.027  0.3353  0.0321  0.7053
 3737TIP3   OH232701   3.225   0.688  20.168 -0.0699  0.0604 -0.1628
 3737TIP3    H132702   3.162   0.628  20.127 -0.0353  0.0813 -0.2481
 3737TIP3    H232703   3.188   0.707  20.254 -1.0686  1.4760 -0.8798
 3738TIP3   OH232704   3.308   1.046  57.573  0.2293  0.0737 -0.6142
 3738TIP3    H132705   3.260   0.966  57.591  1.7185 -0.2981  2.1639
 3738TIP3    H232706   3.398   1.017  57.555  0.5298  1.0361 -0.7236
 3739TIP3   OH232707   2.802   2.695   7.956 -0.1699 -0.4699  0.5113
 3739TIP3    H132708   2.758   2.701   7.871 -0.3683  0.4363  0.6738
 3739TIP3    H232709   2.895   2.701   7.935 -0.2618  1.9696  0.5025
 3740TIP3   OH232710   2.858   1.644  53.794  0.0718 -0.2422  0.1062
 3740TIP3    H132711   2.927   1.674  53.853  1.3835 -1.3602 -0.8022
 3740TIP3    H232712   2.801   1.591  53.850  0.9184 -0.7350  0.5239
 3741TIP3   OH232713   0.800   1.295  61.484  0.7398 -0.3440  0.3647
 3741TIP3    H132714   0.879   1.272  61.532  1.6396  1.3211 -0.2246
 3741TIP3    H232715   0.830   1.310  61.394 -0.5544 -1.3707 -0.2777
 3742TIP3   OH232716   2.476   2.333  12.426 -0.3353  0.4931 -0.2099
 3742TIP3    H132717   2.381   2.319  12.419 -0.0872 -1.3794 -0.1736
 3742TIP3    H232718   2.493   2.330  12.520 -0.0342 -0.8549 -0.2889
 3743TIP3   OH232719   2.761   1.489  59.006  0.0155 -0.2028  0.4759
 3743TIP3    H132720   2.722   1.495  59.093 -2.5502  1.1869 -0.6671
 3743TIP3    H232721   2.801   1.575  58.992  1.1237 -0.6892  0.5466
 3744TIP3   OH232722   2.657   2.844  43.160 -0.0655 -0.6265  0.4697
 3744TIP3    H132723   2.717   2.811  43.093 -1.0030  1.0575 -1.3075
 3744TIP3    H232724   2.590   2.777  43.168 -0.0882 -0.7335 -0.5032
 3745TIP3   OH232725   3.339   2.399  60.868  0.3577 -0.0689 -0.1943
 3745TIP3    H132726   3.424   2.442  60.862 -0.0567  0.5735 -2.5990
 3745TIP3    H232727   3.320   2.396  60.961  2.3519  1.1147  0.3017
 3746TIP3   OH232728   3.083   1.356  42.912  0.0404 -0.1877 -0.0765
 3746TIP3    H132729   3.109   1.447  42.898  0.7359 -0.4350 -0.4716
 3746TIP3    H232730   3.129   1.330  42.993 -1.1093  0.1584  0.7163
 3747TIP3   OH232731   2.837   1.631   2.967  0.2158  0.1230  0.0527
 3747TIP3    H132732   2.833   1.653   2.874 -1.8287  1.0672  0.3047
 3747TIP3    H232733   2.925   1.655   2.994  0.5937  0.5427 -1.4748
 3748TIP3   OH232734   2.157   3.249  65.922 -0.9480  0.3214 -0.4216
 3748TIP3    H132735   2.168   3.167  65.969  0.3757  1.3838  1.2047
 3748TIP3    H232736   2.168   3.225  65.830 -3.2314 -1.7427 -0.2624
 3749TIP3   OH232737   1.972   3.138  55.080  0.0841  0.5905  0.3731
 3749TIP3    H132738   2.004   3.051  55.056  1.0114  1.3316 -1.1800
 3749TIP3    H232739   1.883   3.142  55.043 -0.1524  0.1303  0.8824
 3750TIP3   OH232740   3.380   2.159  59.238  0.2928  0.9305 -0.1068
 3750TIP3    H132741   3.460   2.124  59.199  0.8921  2.3825 -0.2489
 3750TIP3    H232742   3.410   2.220  59.305 -0.6896  1.2664  0.0524
 3751TIP3   OH232743   2.712   1.141  28.832  0.4942  0.2554 -0.0973
 3751TIP3    H132744   2.702   1.049  28.856 -0.4399  0.5246  0.6158
 3751TIP3    H232745   2.723   1.187  28.915  4.2814  0.4895 -0.5453
 3752TIP3   OH232746   1.816   0.879  11.674  0.0368 -0.5434  0.3526
 3752TIP3    H132747   1.852   0.922  11.597  0.9919 -2.7244 -0.4964
 3752TIP3    H232748   1.879   0.897  11.744 -0.2028  0.4206  0.3272
 3753TIP3   OH232749   1.822   2.710  11.496 -0.2768  0.2692  0.2403
 3753TIP3    H132750   1.730   2.692  11.516 -0.0569 -0.3892  0.6835
 3753TIP3    H232751   1.870   2.679  11.572  0.4184 -0.5441 -0.5123
 3754TIP3   OH232752   1.005   2.001  12.785 -0.3102  0.5559 -0.2672
 3754TIP3    H132753   0.969   2.012  12.697  0.8933  0.1362 -0.8357
 3754TIP3    H232754   1.092   2.042  12.781  0.0692 -0.1228  0.5012
 3755TIP3   OH232755   2.719   1.100  42.687  0.7243 -0.1665 -0.0397
 3755TIP3    H132756   2.807   1.110  42.651  1.0943 -1.3734  0.4891
 3755TIP3    H232757   2.679   1.186  42.676  2.2387  0.6315  0.4202
 3756TIP3   OH232758   0.351   2.746  62.052 -0.6198  0.7344  0.0194
 3756TIP3    H132759   0.287   2.815  62.069 -0.8305  0.8574 -1.1682
 3756TIP3    H232760   0.369   2.753  61.959 -0.3678 -0.5834 -0.0458
 3757TIP3   OH232761   0.441   2.189  18.606 -0.5628  0.2963 -0.3224
 3757TIP3    H132762   0.360   2.138  18.615  0.4236 -1.0922  1.3649
 3757TIP3    H232763   0.443   2.245  18.683 -0.1526  0.6958 -0.6154
 3758TIP3   OH232764   0.799   0.340  35.264  0.3011  0.8867 -0.6541
 3758TIP3    H132765   0.705   0.358  35.264 -0.0057 -0.5570  0.4231
 3758TIP3    H232766   0.810   0.265  35.206  0.8163  1.1045 -0.8498
 3759TIP3   OH232767   2.614   0.983  16.924 -0.3422 -0.5637 -0.0239
 3759TIP3    H132768   2.660   0.967  16.842 -0.0686  0.5875 -0.1183
 3759TIP3    H232769   2.546   1.047  16.901  0.1183  0.2264  0.7371
 3760TIP3   OH232770   0.660   0.365  36.303 -0.4123 -0.1159  0.3849
 3760TIP3    H132771   0.610   0.284  36.295  0.4458 -0.5300 -1.2516
 3760TIP3    H232772   0.602   0.424  36.351 -2.4222 -0.6084 -1.2863
 3761TIP3   OH232773   0.847   1.764  57.894 -0.0741  0.1872  0.5629
 3761TIP3    H132774   0.836   1.695  57.960 -0.0159 -0.8914 -0.5320
 3761TIP3    H232775   0.934   1.800  57.911 -0.1360  0.0552  1.1955
 3762TIP3   OH232776   2.962   1.982  42.694 -0.2257  0.0574 -0.5688
 3762TIP3    H132777   3.021   2.056  42.710 -0.0486 -0.0972 -0.4961
 3762TIP3    H232778   2.875   2.016  42.717 -0.2046  0.3702 -0.9422
 3763TIP3   OH232779   1.104   2.541  66.544 -0.0169  0.0041 -0.0210
 3763TIP3    H132780   1.106   2.503  66.632 -1.4797 -1.9151 -0.7412
 3763TIP3    H232781   1.027   2.501  66.503  1.5114 -0.4129 -2.6962
 3764TIP3   OH232782   1.951   1.780  53.169  0.1164  0.0217 -0.0781
 3764TIP3    H132783   1.997   1.774  53.253 -0.9690  0.6445  0.5828
 3764TIP3    H232784   2.018   1.758  53.104  1.2898  0.6954  0.8548
 3765TIP3   OH232785   0.685   2.952   9.710 -0.4026  0.2685  0.3292
 3765TIP3    H132786   0.727   2.936   9.795  1.0399  0.5069 -0.3008
 3765TIP3    H232787   0.704   2.872   9.659  0.0410  0.7221 -0.2386
 3766TIP3   OH232788   0.696   2.820  19.500  0.2797  0.1069 -0.2608
 3766TIP3    H132789   0.642   2.850  19.573  0.4922  0.7022 -0.3374
 3766TIP3    H232790   0.784   2.811  19.537  0.0976 -1.0398 -0.0915
 3767TIP3   OH232791   0.812   1.304  56.569 -0.4154 -0.1254 -0.4027
 3767TIP3    H132792   0.833   1.396  56.586 -0.2432 -0.4260  1.1286
 3767TIP3    H232793   0.814   1.297  56.474  0.3168  1.2817 -0.5267
 3768TIP3   OH232794   0.144   0.582  21.247  0.2832 -0.5518 -0.7046
 3768TIP3    H132795   0.235   0.560  21.262  0.5573  1.8944  2.2401
 3768TIP3    H232796   0.145   0.636  21.168  1.3836 -0.5431 -0.6945
 3769TIP3   OH232797   0.333   1.271   2.486 -0.1653  0.0433 -0.7786
 3769TIP3    H132798   0.389   1.194   2.491 -0.9207 -0.5303 -0.9080
 3769TIP3    H232799   0.378   1.331   2.426 -0.2056 -0.8349 -1.6978
 3770TIP3   OH232800   2.860   1.854   8.148 -0.7792 -0.0105 -0.2088
 3770TIP3    H132801   2.933   1.805   8.111  1.1363  1.9749  0.7283
 3770TIP3    H232802   2.854   1.824   8.239 -0.3103  0.7152  0.0633
 3771TIP3   OH232803   1.922   0.761  59.876  0.3783 -0.1218  0.6726
 3771TIP3    H132804   1.939   0.789  59.786  0.7930  1.2753  1.1676
 3771TIP3    H232805   1.920   0.665  59.871 -1.6114 -0.0691 -1.1774
 3772TIP3   OH232806   0.272   3.039  34.188 -0.7014 -0.7017 -0.2262
 3772TIP3    H132807   0.361   3.074  34.181 -1.1174  0.8974  1.8196
 3772TIP3    H232808   0.252   3.008  34.099  2.9249 -3.8939 -0.1753
 3773TIP3   OH232809   2.573   1.615   4.354 -0.0589  0.2942 -0.5240
 3773TIP3    H132810   2.572   1.646   4.445 -1.3717  0.2701 -0.5156
 3773TIP3    H232811   2.495   1.562   4.346 -1.4653  2.4475 -2.3846
 3774TIP3   OH232812   1.609   0.866  47.364  0.2863  0.3941 -0.5023
 3774TIP3    H132813   1.514   0.853  47.356  0.1732  0.9115 -0.0178
 3774TIP3    H232814   1.633   0.913  47.284  0.0002  0.9701 -0.2545
 3775TIP3   OH232815   3.435   2.506  66.851 -0.3812  0.5728  0.1202
 3775TIP3    H132816   3.403   2.492  66.762 -0.4586 -0.7143  0.3325
 3775TIP3    H232817   3.498   2.435  66.866 -1.2536  0.0476  1.5071
 3776TIP3   OH232818   0.569   1.111   0.034  0.2056  0.5120 -0.3583
 3776TIP3    H132819   0.611   1.028   0.059 -1.3031 -0.3021 -0.4353
 3776TIP3    H232820   0.581   1.167   0.111  0.8538  0.0931 -0.1361
 3777TIP3   OH232821   0.305   3.304  44.750  0.2852 -0.6889  0.2870
 3777TIP3    H132822   0.210   3.288  44.744  0.1934 -0.2611  0.6064
 3777TIP3    H232823   0.313   3.399  44.757  0.6866 -0.7852  1.2769
 3778TIP3   OH232824   3.029   3.038  59.972  0.0947  0.2467  0.0498
 3778TIP3    H132825   3.054   2.955  60.013 -2.4785 -0.7229 -0.1863
 3778TIP3    H232826   3.078   3.105  60.021 -0.5678 -1.1068  2.7270
 3779TIP3   OH232827   1.683   0.851  64.716 -0.0606  0.2846  0.2716
 3779TIP3    H132828   1.646   0.906  64.785 -0.2225  0.9765 -0.3517
 3779TIP3    H232829   1.653   0.762  64.737  0.0307  0.4498  1.1676
 3780TIP3   OH232830   2.304   1.731  55.494  0.2942  0.0544 -0.2586
 3780TIP3    H132831   2.233   1.669  55.479  1.0362 -0.8302 -0.2522
 3780TIP3    H232832   2.334   1.711  55.583 -0.1725  1.1844  0.1630
 3781TIP3   OH232833   1.516   0.339   2.528 -0.1444  0.3543 -0.3575
 3781TIP3    H132834   1.481   0.422   2.559 -2.5387 -0.1492 -1.4811
 3781TIP3    H232835   1.558   0.361   2.445 -0.8854  0.4520 -0.7165
 3782TIP3   OH232836   2.995   2.223  20.274  0.8986 -0.3118 -0.1310
 3782TIP3    H132837   2.940   2.300  20.282 -0.3003 -1.1468 -0.0670
 3782TIP3    H232838   3.081   2.252  20.304  0.2655  0.7745  0.7105
 3783TIP3   OH232839   2.061   3.427  44.072  0.4411  0.1667 -0.0374
 3783TIP3    H132840   2.132   3.418  44.009 -0.2512  0.7762 -0.9324
 3783TIP3    H232841   2.100   3.477  44.144  1.3677 -0.9350  0.2624
 3784TIP3   OH232842   1.514   2.249  55.484  0.2756  0.0147  0.5836
 3784TIP3    H132843   1.450   2.233  55.554  1.2982 -0.7996  1.3607
 3784TIP3    H232844   1.496   2.182  55.419  1.2219 -1.1187  1.4545
 3785TIP3   OH232845   3.416   1.988  43.713 -0.7170 -0.4327 -0.2729
 3785TIP3    H132846   3.330   2.017  43.744 -1.3844  0.2826 -2.5803
 3785TIP3    H232847   3.442   2.054  43.649  1.0949 -1.1922 -0.3690
 3786TIP3   OH232848   2.765   0.635  66.176  0.2217 -0.2795  0.0469
 3786TIP3    H132849   2.786   0.557  66.124  1.9194  0.3699 -0.3003
 3786TIP3    H232850   2.796   0.614  66.263  2.0278  0.5200 -0.3691
 3787TIP3   OH232851   0.808   3.049  13.952  0.5576 -0.5093 -0.0604
 3787TIP3    H132852   0.881   3.069  14.010  0.9261  2.6376 -1.3929
 3787TIP3    H232853   0.844   2.988  13.887  2.4817  1.8054 -1.3516
 3788TIP3   OH232854   2.760   0.099  46.723  0.0359 -0.2371 -0.3770
 3788TIP3    H132855   2.826   0.031  46.736  0.0612 -0.3025 -0.8494
 3788TIP3    H232856   2.699   0.062  46.660  0.1867  0.2681 -0.8307
 3789TIP3   OH232857   0.809   1.168  14.828  0.5203  0.0956  0.0417
 3789TIP3    H132858   0.833   1.114  14.753  0.3721  0.5522 -0.3430
 3789TIP3    H232859   0.713   1.171  14.825  0.5338  0.5804 -0.0950
 3790TIP3   OH232860   3.452   2.062  52.640 -0.2276 -0.0478  0.2393
 3790TIP3    H132861   3.426   1.993  52.578  0.3204 -1.3541  1.4076
 3790TIP3    H232862   3.527   2.025  52.686  1.4459  2.1965 -0.5171
 3791TIP3   OH232863   2.187   1.359  21.812 -0.1798  0.0306 -0.0863
 3791TIP3    H132864   2.261   1.324  21.863 -0.1790 -0.2923 -0.3061
 3791TIP3    H232865   2.210   1.450  21.796  0.2792 -0.1256 -0.3443
 3792TIP3   OH232866   1.125   3.309  51.225 -0.1079 -0.3106 -0.1221
 3792TIP3    H132867   1.212   3.275  51.245  0.9941  0.6130 -2.8746
 3792TIP3    H232868   1.106   3.277  51.137 -2.2150  0.1464  0.1242
 3793TIP3   OH232869   2.597   2.347   1.025 -0.0875 -0.2034 -0.0577
 3793TIP3    H132870   2.633   2.297   1.098  0.7987  0.7943  0.1952
 3793TIP3    H232871   2.671   2.364   0.967 -0.5574  0.0285 -0.6121
 3794TIP3   OH232872   1.534   1.018   5.238  0.1745  0.6042 -0.1226
 3794TIP3    H132873   1.531   1.100   5.287  0.3116  1.2975 -1.2322
 3794TIP3    H232874   1.562   1.043   5.150  0.0099 -0.6060 -0.5492
 3795TIP3   OH232875   1.708   2.486  17.460  0.4474  0.1228 -0.5996
 3795TIP3    H132876   1.768   2.509  17.530  0.0744 -0.1483 -0.1837
 3795TIP3    H232877   1.666   2.405  17.490 -0.6112  0.6665 -0.5646
 3796TIP3   OH232878   2.763   0.465  51.694  0.2891  0.0383  0.0865
 3796TIP3    H132879   2.760   0.555  51.726 -0.1341  0.3172 -0.6875
 3796TIP3    H232880   2.818   0.470  51.616 -1.9744  0.2074 -1.6029
 3797TIP3   OH232881   2.449   1.358  14.126  0.2809 -0.1830  0.7096
 3797TIP3    H132882   2.427   1.325  14.039  1.4149  1.5291 -0.2757
 3797TIP3    H232883   2.376   1.416  14.148  1.3902  1.7631 -0.4819
 3798TIP3   OH232884   0.666   3.120  63.078  0.4475 -0.3711 -0.6079
 3798TIP3    H132885   0.729   3.192  63.083  0.0430  0.0444 -1.2699
 3798TIP3    H232886   0.698   3.055  63.140  1.3875 -0.0594 -0.7591
 3799TIP3   OH232887   3.347   1.250  42.696  0.0357 -0.9764  0.2275
 3799TIP3    H132888   3.358   1.155  42.697 -2.9507 -1.4378 -0.7926
 3799TIP3    H232889   3.373   1.276  42.608  0.4933 -0.9150  0.3808
 3800TIP3   OH232890   2.821   2.119  53.700  0.1114  0.4835 -0.2132
 3800TIP3    H132891   2.774   2.198  53.674 -0.3361  0.1385 -0.4603
 3800TIP3    H232892   2.831   2.069  53.618 -0.4838 -0.1781  0.1129
 3801TIP3   OH232893   0.081   0.849  20.284 -0.3626  0.8610  0.0304
 3801TIP3    H132894   0.142   0.819  20.217  1.2313  3.7521  0.0093
 3801TIP3    H232895   0.010   0.892  20.236  0.2818  2.0667  0.1148
 3802TIP3   OH232896   0.524   0.478   5.702 -0.0231 -0.1784 -0.3094
 3802TIP3    H132897   0.530   0.517   5.615 -0.6962  2.4495  0.7463
 3802TIP3    H232898   0.614   0.478   5.735 -0.2790  3.1576  0.6884
 3803TIP3   OH232899   1.169   2.800  52.422  0.1129 -0.4496 -0.2135
 3803TIP3    H132900   1.133   2.859  52.356  0.7414  1.2108  0.8756
 3803TIP3    H232901   1.099   2.736  52.438 -0.8691  0.4273 -0.8984
 3804TIP3   OH232902   0.633   2.948   1.684 -0.3804 -0.2318 -0.2003
 3804TIP3    H132903   0.619   3.040   1.662 -1.6321 -0.1006  0.9731
 3804TIP3    H232904   0.705   2.949   1.748  2.2363 -0.4822 -2.9299
 3805TIP3   OH232905   0.013   2.643  18.301  0.0933 -0.2417 -0.5620
 3805TIP3    H132906   0.079   2.710  18.318  0.2498  0.0882 -2.2899
 3805TIP3    H232907  -0.045   2.646  18.377  0.9073  0.8564  0.0389
 3806TIP3   OH232908   1.984   1.925  19.028  0.1304 -0.3585  0.0818
 3806TIP3    H132909   2.052   1.858  19.041  1.0857  0.4778 -0.4693
 3806TIP3    H232910   1.992   1.949  18.936 -2.9730 -2.3776 -0.8545
 3807TIP3   OH232911   1.097   3.318  34.858  0.2078  0.0806  0.4291
 3807TIP3    H132912   1.027   3.253  34.846 -0.8515  1.6155 -3.3320
 3807TIP3    H232913   1.174   3.277  34.821  0.2026  0.0152  0.4885
 3808TIP3   OH232914   0.020   3.327  63.414  0.0488  0.4730  0.0968
 3808TIP3    H132915   0.081   3.321  63.341 -0.5194  2.0881 -0.5545
 3808TIP3    H232916  -0.024   3.411  63.402 -2.0693 -0.4650  0.7395
 3809TIP3   OH232917   0.944   0.196  43.140  0.3867 -0.1886 -0.8449
 3809TIP3    H132918   0.983   0.281  43.121 -0.4148 -0.1047 -2.2268
 3809TIP3    H232919   0.924   0.159  43.054  0.1098 -1.4904 -0.2457
 3810TIP3   OH232920   0.388   1.457  19.467  0.2807  0.2456 -0.2494
 3810TIP3    H132921   0.382   1.379  19.412  4.2527 -1.7690  1.7883
 3810TIP3    H232922   0.357   1.429  19.553  0.9984  1.1322  0.3196
 3811TIP3   OH232923   2.396   1.652  43.600 -0.6494 -0.1921 -0.0455
 3811TIP3    H132924   2.465   1.713  43.572 -0.0884 -1.9375 -2.7729
 3811TIP3    H232925   2.325   1.665  43.537 -3.4867  2.2876  3.2588
 3812TIP3   OH232926   3.369   0.454  66.465 -0.2180  0.2002 -0.0531
 3812TIP3    H132927   3.279   0.440  66.436 -0.2831 -0.2365  0.3487
 3812TIP3    H232928   3.363   0.458  66.560  0.4060 -1.4523  0.0827
 3813TIP3   OH232929   1.049   1.501  56.870 -0.1274 -0.1008  0.0177
 3813TIP3    H132930   1.031   1.414  56.906  0.4619  0.1100  0.8218
 3813TIP3    H232931   1.065   1.557  56.946 -1.4131  0.9382 -0.4346
 3814TIP3   OH232932   2.497   2.391  44.982 -0.1921  0.2533  0.3587
 3814TIP3    H132933   2.409   2.430  44.983  0.1782  1.2221 -1.3827
 3814TIP3    H232934   2.499   2.341  44.900  0.9728  0.4679  0.2471
 3815TIP3   OH232935   0.135   0.339  19.680  0.4128  0.1922  0.0644
 3815TIP3    H132936   0.129   0.317  19.773  1.2518 -1.0961 -0.1649
 3815TIP3    H232937   0.055   0.302  19.641  0.6900 -0.4072  0.0636
 3816TIP3   OH232938   3.261   2.893  56.882 -0.4050 -0.9561  0.0845
 3816TIP3    H132939   3.244   2.938  56.799  1.4313  0.2472  0.3001
 3816TIP3    H232940   3.223   2.951  56.949 -0.5097 -1.1395  0.1850
 3817TIP3   OH232941   1.294   3.424  17.260  0.2193 -0.1188 -0.2452
 3817TIP3    H132942   1.374   3.447  17.215  0.2728 -1.5871 -0.9565
 3817TIP3    H232943   1.315   3.435  17.353  0.9412  0.3899 -0.4609
 3818TIP3   OH232944   2.672   0.140  63.014 -0.0574 -0.0585 -0.5068
 3818TIP3    H132945   2.691   0.139  62.920  1.2121 -3.3391 -0.3482
 3818TIP3    H232946   2.587   0.098  63.022  0.4630 -1.0729 -0.1381
 3819TIP3   OH232947   3.231   0.771  47.677 -0.5180 -0.3978  0.2883
 3819TIP3    H132948   3.182   0.839  47.722 -0.5938 -0.8863  0.9660
 3819TIP3    H232949   3.323   0.798  47.684 -0.5039 -0.6178  1.0068
 3820TIP3   OH232950   1.554   1.051   4.287  0.4080  0.2075 -0.5789
 3820TIP3    H132951   1.648   1.053   4.305  0.3167 -0.1975 -0.0060
 3820TIP3    H232952   1.522   0.973   4.334 -0.1002 -0.0477 -1.3288
 3821TIP3   OH232953   2.141   0.977  61.142  0.2227  0.3226 -0.0513
 3821TIP3    H132954   2.115   1.042  61.207  0.4504  1.2579 -0.8661
 3821TIP3    H232955   2.236   0.988  61.133  0.0603  0.9648 -1.2929
 3822TIP3   OH232956   1.699   0.530  53.347 -0.0606  0.1878  0.5436
 3822TIP3    H132957   1.793   0.514  53.344 -0.0189  0.3197  1.0450
 3822TIP3    H232958   1.664   0.455  53.396 -0.2058  0.1917  0.4454
 3823TIP3   OH232959   1.673   0.777  44.624 -0.0385  0.2498  0.0225
 3823TIP3    H132960   1.738   0.835  44.663 -1.0715  1.5768 -0.1385
 3823TIP3    H232961   1.662   0.809  44.535  1.0412 -1.6734 -0.8541
 3824TIP3   OH232962   0.029   0.373  46.149  0.0878 -0.2793 -0.8422
 3824TIP3    H132963   0.052   0.465  46.142 -0.0785 -0.1711 -0.0270
 3824TIP3    H232964  -0.066   0.372  46.160  0.1486 -0.5152 -0.3085
 3825TIP3   OH232965   3.176   0.443  54.498  0.2076  0.0532  0.1843
 3825TIP3    H132966   3.085   0.441  54.471  0.4331 -0.8667 -0.5597
 3825TIP3    H232967   3.220   0.498  54.434 -0.0452  1.6548  1.3341
 3826TIP3   OH232968   0.833   0.858  13.557  0.4542  0.5918 -0.5675
 3826TIP3    H132969   0.876   0.785  13.603 -0.6031 -1.1915 -2.2355
 3826TIP3    H232970   0.881   0.865  13.474 -0.3266  0.8478 -1.0017
 3827TIP3   OH232971   0.404   1.561   3.347  0.1034 -0.2777  0.3458
 3827TIP3    H132972   0.456   1.641   3.354 -0.3096  0.0234  0.0072
 3827TIP3    H232973   0.468   1.490   3.340  0.4756  0.1678 -1.0476
 3828TIP3   OH232974   0.645   1.351   1.279  0.0872 -0.7844  0.1166
 3828TIP3    H132975   0.652   1.264   1.238  1.1393 -0.0044 -1.4416
 3828TIP3    H232976   0.684   1.411   1.216 -1.8060  1.0472  0.5734
 3829TIP3   OH232977   2.500   2.698  16.544  0.6285  0.0242 -0.3659
 3829TIP3    H132978   2.494   2.746  16.462  1.1269  3.1740  1.2629
 3829TIP3    H232979   2.421   2.722  16.592  1.1640 -0.3278  0.7280
 3830TIP3   OH232980   1.752   0.380   8.364  0.7209 -0.3004 -0.4456
 3830TIP3    H132981   1.659   0.360   8.373  0.4221  1.0727 -0.3424
 3830TIP3    H232982   1.755   0.465   8.320  1.8845  0.2780  0.6688
 3831TIP3   OH232983   2.922   2.555   3.510 -0.1783 -0.1125 -0.8573
 3831TIP3    H132984   2.983   2.522   3.575  0.8562 -2.1785 -2.7482
 3831TIP3    H232985   2.977   2.586   3.439 -1.2758 -0.2621 -1.8060
 3832TIP3   OH232986   2.277   0.853   3.924 -0.4911  0.1660  0.5144
 3832TIP3    H132987   2.198   0.799   3.912  0.8933 -1.5790 -1.2835
 3832TIP3    H232988   2.259   0.933   3.875  0.1676 -1.7406 -3.1997
 3833TIP3   OH232989   2.097   1.579  61.705  0.1373  0.1710 -0.2962
 3833TIP3    H132990   2.044   1.501  61.724 -0.6163  0.4060 -1.3129
 3833TIP3    H232991   2.181   1.562  61.748 -0.3089 -0.8182  0.2186
 3834TIP3   OH232992   0.170   1.585  51.285 -0.2080 -0.8644 -0.3081
 3834TIP3    H132993   0.110   1.534  51.340 -0.3092 -0.1769  0.2344
 3834TIP3    H232994   0.169   1.541  51.201 -1.4507 -0.8885 -0.2910
 3835TIP3   OH232995   2.111   0.223  46.092 -0.3848  0.6275  0.6389
 3835TIP3    H132996   2.038   0.277  46.122 -0.7393  0.7285 -0.3758
 3835TIP3    H232997   2.189   0.269  46.123 -0.7210  1.0800  0.8176
 3836TIP3   OH232998   0.385   3.266   9.383 -1.0262 -0.0952  0.0104
 3836TIP3    H132999   0.307   3.246   9.434 -0.2473 -1.6447  0.6492
 3836TIP3    H233000   0.435   3.184   9.381 -1.1873 -0.2815 -3.6209
 3837TIP3   OH233001   3.305   1.408  55.528  0.7556  0.4697 -0.2419
 3837TIP3    H133002   3.377   1.423  55.589  0.5993  0.7324 -0.1198
 3837TIP3    H233003   3.339   1.436  55.443  1.3442 -0.9047 -0.4769
 3838TIP3   OH233004   2.383   1.515  19.293 -0.1397  0.3453 -0.0099
 3838TIP3    H133005   2.479   1.510  19.293 -0.1465  0.1487  0.5326
 3838TIP3    H233006   2.357   1.468  19.214  0.1793 -0.4163  0.3310
 3839TIP3   OH233007   0.683   1.319  48.392 -0.0164  0.2558 -0.5365
 3839TIP3    H133008   0.761   1.370  48.369 -0.7161  1.1428 -0.9837
 3839TIP3    H233009   0.692   1.238  48.341  0.8321  0.1352 -0.2273
 3840TIP3   OH233010   0.262   2.465   5.995 -0.5276 -0.0884 -0.3522
 3840TIP3    H133011   0.167   2.465   5.996 -0.6334  0.1579 -3.0287
 3840TIP3    H233012   0.286   2.551   5.960  0.4781 -1.3680 -3.0680
 3841TIP3   OH233013   2.458   0.063  12.395  0.4467  0.0646 -0.1440
 3841TIP3    H133014   2.462   0.087  12.303  0.5956  0.9836  0.0925
 3841TIP3    H233015   2.368   0.084  12.422  0.8044  1.1538  0.2629
 3842TIP3   OH233016   1.486   2.988  46.201  0.5539 -0.4193 -0.7926
 3842TIP3    H133017   1.508   3.032  46.118  0.4202 -0.0482 -0.6345
 3842TIP3    H233018   1.565   2.938  46.223  0.8048 -0.0524 -0.8462
 3843TIP3   OH233019   3.108   1.825  51.879 -0.3518 -0.3128 -0.1497
 3843TIP3    H133020   3.111   1.868  51.793 -1.8490 -0.9621 -0.5691
 3843TIP3    H233021   3.115   1.732  51.860 -0.0054 -0.4197  0.4930
 3844TIP3   OH233022   0.860   2.364  53.822  0.3294  0.1702 -0.0049
 3844TIP3    H133023   0.917   2.433  53.788  1.3578 -0.7184 -0.1364
 3844TIP3    H233024   0.919   2.304  53.868 -0.6006 -0.3883  0.4881
 3845TIP3   OH233025   1.774   3.304  14.494 -0.7008  0.8758 -0.4910
 3845TIP3    H133026   1.758   3.374  14.557  0.3286  1.6523 -1.0487
 3845TIP3    H233027   1.695   3.250  14.496 -1.3009  1.7630  0.3313
 3846TIP3   OH233028   3.410   2.686   7.776  0.0759  0.4584 -0.3742
 3846TIP3    H133029   3.475   2.739   7.823  0.7030 -0.5054 -0.1225
 3846TIP3    H233030   3.371   2.745   7.712  1.4796  0.9508 -0.7868
 3847TIP3   OH233031   0.203   1.847  20.598  0.2113  0.0148 -0.3054
 3847TIP3    H133032   0.215   1.752  20.595  2.9398  0.3037 -1.0908
 3847TIP3    H233033   0.196   1.873  20.506 -1.3496  0.5300 -0.0663
 3848TIP3   OH233034   1.225   2.826  21.582 -0.6383  0.6878  0.3662
 3848TIP3    H133035   1.267   2.811  21.667 -0.9678  1.4412  0.6776
 3848TIP3    H233036   1.140   2.865  21.605 -1.0724  0.1466 -0.2845
 3849TIP3   OH233037   2.398   2.661  22.193 -0.3395 -0.1277 -0.6905
 3849TIP3    H133038   2.384   2.588  22.133 -1.9188 -1.5432  1.2760
 3849TIP3    H233039   2.437   2.621  22.271 -0.1489  1.3295  0.0036
 3850TIP3   OH233040   2.903   0.184  10.369 -0.0539  0.0676 -0.4822
 3850TIP3    H133041   2.819   0.223  10.396  0.2296 -1.2991  2.8778
 3850TIP3    H233042   2.964   0.258  10.368 -0.2726  0.3829  2.2793
 3851TIP3   OH233043   1.984   2.755   3.575 -0.1046  0.2266 -0.2755
 3851TIP3    H133044   1.957   2.668   3.544 -0.2559 -0.1515  0.8594
 3851TIP3    H233045   2.050   2.783   3.512  0.1308 -0.8227 -0.5179
 3852TIP3   OH233046   0.641   0.175  51.274 -0.1244  0.2707 -0.4078
 3852TIP3    H133047   0.631   0.116  51.348 -1.5904 -1.5451 -1.9413
 3852TIP3    H233048   0.732   0.164  51.246  0.4924  1.1042  1.1650
 3853TIP3   OH233049   0.177   1.132  45.684  0.5597 -0.0380  0.4731
 3853TIP3    H133050   0.250   1.171  45.636  0.6187 -0.2779  0.3634
 3853TIP3    H233051   0.177   1.178  45.768  2.0596 -1.3199  1.2464
 3854TIP3   OH233052   2.307   2.607   2.690 -0.0968 -0.2620  0.1546
 3854TIP3    H133053   2.324   2.535   2.629  2.1430  0.6008 -0.3489
 3854TIP3    H233054   2.224   2.644   2.662 -0.1594 -1.2335 -1.0011
 3855TIP3   OH233055   0.652   2.520  11.324  0.1250 -0.2999  0.0908
 3855TIP3    H133056   0.566   2.481  11.310  0.8440 -3.2664  2.8318
 3855TIP3    H233057   0.695   2.515  11.239 -0.8277 -3.1304 -0.3167
 3856TIP3   OH233058   2.844   1.516  47.460  0.7376  0.4367 -0.4908
 3856TIP3    H133059   2.767   1.524  47.516  0.3393  3.1279 -1.2575
 3856TIP3    H233060   2.810   1.482  47.377  0.9411 -1.3271  0.1179
 3857TIP3   OH233061   1.799   0.009  16.824 -0.0340  0.0884 -0.5859
 3857TIP3    H133062   1.874   0.040  16.875 -1.9106  0.6293  2.0542
 3857TIP3    H233063   1.813  -0.085  16.816  1.6873  0.3827 -1.6077
 3858TIP3   OH233064   3.217   0.020  18.890 -0.5758 -0.2488 -0.8385
 3858TIP3    H133065   3.156   0.029  18.963 -1.4482  0.2371 -1.5992
 3858TIP3    H233066   3.280  -0.046  18.919  0.1988  1.2269  1.0638
 3859TIP3   OH233067   2.952   0.453   3.919 -0.5125 -0.4152 -0.6215
 3859TIP3    H133068   2.865   0.487   3.899 -0.8739  0.1571  1.6987
 3859TIP3    H233069   3.010   0.499   3.858 -1.7553 -0.6601 -2.0694
 3860TIP3   OH233070   2.623   2.698  47.305  0.1978 -0.2291 -0.5508
 3860TIP3    H133071   2.530   2.684  47.325  0.1780  0.1429 -0.3703
 3860TIP3    H233072   2.666   2.619  47.337  0.0729  0.0364  0.3085
 3861TIP3   OH233073   2.889   2.025  63.709 -0.2227 -0.1879  0.2005
 3861TIP3    H133074   2.807   2.064  63.679 -1.1891 -0.7625  1.9695
 3861TIP3    H233075   2.939   2.098  63.745 -0.3319  0.0248 -0.0796
 3862TIP3   OH233076   2.835   2.114  15.292 -0.2524  0.0497  0.0000
 3862TIP3    H133077   2.786   2.037  15.261  0.0638  0.0917 -0.6196
 3862TIP3    H233078   2.799   2.187  15.242  1.0414 -0.0491 -1.1370
 3863TIP3   OH233079   3.355   1.504   9.061  0.3973 -0.4486 -0.1954
 3863TIP3    H133080   3.361   1.408   9.060  2.6360 -0.3776  0.2442
 3863TIP3    H233081   3.316   1.526   8.976 -2.8022 -1.7890  0.7616
 3864TIP3   OH233082   3.062   2.720  67.400  0.1877 -0.2260  0.1947
 3864TIP3    H133083   3.083   2.640  67.351  0.9308  0.4337 -0.5773
 3864TIP3    H233084   3.014   2.774  67.337 -2.1682 -0.8836  1.3302
 3865TIP3   OH233085   0.619   1.779  37.797  0.2938 -0.0625 -0.6642
 3865TIP3    H133086   0.699   1.823  37.827 -0.2273  0.3450  0.1888
 3865TIP3    H233087   0.601   1.714  37.865 -0.3644  0.1954 -0.5815
 3866TIP3   OH233088   0.656   2.879   8.045 -0.0717  0.5025  0.3990
 3866TIP3    H133089   0.622   2.935   7.975  1.3713  1.9500  0.8233
 3866TIP3    H233090   0.686   2.800   7.999  0.3939  1.2171 -0.5477
 3867TIP3   OH233091   1.925   3.286  12.201 -0.1044  0.2038 -0.0119
 3867TIP3    H133092   2.019   3.305  12.204  0.0757 -0.7263  0.5028
 3867TIP3    H233093   1.902   3.294  12.108  0.9236 -1.5611 -0.4623
 3868TIP3   OH233094   2.723   1.303  13.167  0.3632 -0.0235 -0.1127
 3868TIP3    H133095   2.708   1.347  13.083  1.9676 -0.0029 -0.4393
 3868TIP3    H233096   2.818   1.287  13.168  0.5887  1.0154  2.1951
 3869TIP3   OH233097   2.526   3.396  48.908  0.2609  0.0409 -0.3576
 3869TIP3    H133098   2.545   3.353  48.992 -0.3233  1.8145  0.7323
 3869TIP3    H233099   2.566   3.338  48.843 -0.1564 -1.9364  1.0316
 3870TIP3   OH233100   1.549   2.218  13.677  0.1088 -0.0991  0.0447
 3870TIP3    H133101   1.511   2.147  13.728  1.8737 -1.3467 -0.2842
 3870TIP3    H233102   1.476   2.279  13.663 -1.4481 -1.7781  0.4144
 3871TIP3   OH233103   3.193   2.672  16.496 -0.0312 -0.0058  0.4311
 3871TIP3    H133104   3.129   2.743  16.500  2.0838  1.9717  1.8886
 3871TIP3    H233105   3.186   2.630  16.582 -0.2779 -0.6339  0.1034
 3872TIP3   OH233106   2.599   0.300  28.452  0.5373 -0.4236  0.9254
 3872TIP3    H133107   2.608   0.215  28.409 -0.6847 -0.7288  1.2454
 3872TIP3    H233108   2.506   0.320  28.448  0.8938  1.3160  0.1128
 3873TIP3   OH233109   1.458   2.790  67.092 -0.2734  0.1615 -0.4040
 3873TIP3    H133110   1.486   2.788  67.001 -0.6169  1.4444 -0.5576
 3873TIP3    H233111   1.362   2.793  67.089 -0.3238 -0.6531  0.0313
 3874TIP3   OH233112   1.859   0.816  19.557 -0.0269  0.3070 -0.3394
 3874TIP3    H133113   1.808   0.743  19.591  0.5445  0.4603  0.9108
 3874TIP3    H233114   1.927   0.775  19.503  1.1820 -0.2167  1.5188
 3875TIP3   OH233115   0.156   2.260  51.324  0.3954 -0.3883  0.4864
 3875TIP3    H133116   0.213   2.230  51.252 -0.7620 -0.2916 -0.5008
 3875TIP3    H233117   0.215   2.268  51.399  1.6216 -0.6275 -0.4147
 3876TIP3   OH233118   2.974   1.776  22.210 -0.0646 -0.2287 -0.0947
 3876TIP3    H133119   2.988   1.742  22.299 -3.4686 -0.1038  0.6612
 3876TIP3    H233120   2.892   1.825  22.217  0.8310  1.8952 -2.8229
 3877TIP3   OH233121   0.196   1.408  67.263  0.1679  0.1687  0.0714
 3877TIP3    H133122   0.276   1.355  67.257 -0.0422 -0.1955  0.3890
 3877TIP3    H233123   0.209   1.462  67.341 -0.9239 -1.7052  1.6734
 3878TIP3   OH233124   1.922   0.226  17.048  0.1675 -0.0434 -0.1889
 3878TIP3    H133125   1.918   0.259  17.138  0.0440 -0.0830 -0.1797
 3878TIP3    H233126   1.842   0.259  17.007  0.1023 -0.2345 -0.2136
 3879TIP3   OH233127   0.409   2.364   1.434  0.1360 -0.0194  0.2983
 3879TIP3    H133128   0.460   2.433   1.392  0.1340  0.1533  0.5709
 3879TIP3    H233129   0.408   2.390   1.527  0.9264 -0.8728  0.5601
 3880TIP3   OH233130   2.725   0.858  21.764  0.1787 -0.0201  0.3562
 3880TIP3    H133131   2.737   0.947  21.797  1.5874 -0.7467  1.9712
 3880TIP3    H233132   2.779   0.804  21.821  2.0695 -1.5392 -2.5995
 3881TIP3   OH233133   2.138   3.236  53.109  0.1330  0.0068 -0.0188
 3881TIP3    H133134   2.091   3.155  53.128  0.3720  0.1078  1.0454
 3881TIP3    H233135   2.081   3.305  53.142 -0.6912  0.4049 -2.0911
 3882TIP3   OH233136   0.063   1.606  61.318 -0.0426 -0.6577 -0.2313
 3882TIP3    H133137   0.116   1.552  61.376  0.3546 -0.4824 -0.4278
 3882TIP3    H233138   0.066   1.693  61.357 -3.4828 -1.3593  2.0375
 3883TIP3   OH233139   3.009   2.657  65.429  0.2558  0.0645  0.5716
 3883TIP3    H133140   2.981   2.733  65.478  0.3953 -0.7649  1.9807
 3883TIP3    H233141   3.103   2.651  65.443  0.2961 -0.2074  0.2365
 3884TIP3   OH233142   1.680   2.582   6.583 -0.1506 -0.4345 -0.3868
 3884TIP3    H133143   1.585   2.584   6.592 -0.0426  0.9426  0.6773
 3884TIP3    H233144   1.710   2.535   6.661  0.1154  0.3276 -0.0304
 3885TIP3   OH233145   1.847   0.422  51.906  0.0160  0.2335 -0.2550
 3885TIP3    H133146   1.784   0.478  51.952 -0.6663 -2.2204  2.0438
 3885TIP3    H233147   1.932   0.455  51.933 -0.3509  0.7173  0.3450
 3886TIP3   OH233148   0.592   1.232   1.895 -0.4608  0.1242 -1.1946
 3886TIP3    H133149   0.535   1.157   1.908  0.2864 -0.3790 -0.7728
 3886TIP3    H233150   0.618   1.258   1.984  0.0855  0.2487 -1.3874
 3887TIP3   OH233151   2.451   1.330   7.310 -0.5941  0.1355  0.0636
 3887TIP3    H133152   2.447   1.419   7.277 -0.3913  0.2638  0.3829
 3887TIP3    H233153   2.529   1.292   7.269 -0.5594  0.1734  0.0946
 3888TIP3   OH233154   2.526   0.012  12.732 -0.5699 -0.0688  0.0021
 3888TIP3    H133155   2.585   0.082  12.760 -1.1235  0.8814 -1.1149
 3888TIP3    H233156   2.543   0.002  12.638 -2.5311  0.6213 -0.4822
 3889TIP3   OH233157   1.526   1.356  13.703 -0.0740 -0.1529  0.6608
 3889TIP3    H133158   1.563   1.369  13.790  0.7285  1.2662  0.1497
 3889TIP3    H233159   1.601   1.364  13.644 -0.4808 -1.8233 -0.1343
 3890TIP3   OH233160   0.977   1.400  18.476 -0.1261 -0.5928  0.0093
 3890TIP3    H133161   0.989   1.399  18.381  0.4218 -2.0200  0.0690
 3890TIP3    H233162   0.882   1.394  18.488 -0.3631  1.4676 -0.4178
 3891TIP3   OH233163   0.732   2.771  13.422  0.4123 -0.0780 -0.5658
 3891TIP3    H133164   0.781   2.690  13.439 -1.0336 -1.3175 -1.9239
 3891TIP3    H233165   0.728   2.776  13.326  0.2350  1.4771 -0.4918
 3892TIP3   OH233166   0.425   0.913  63.547 -0.1991  0.5185  0.2281
 3892TIP3    H133167   0.340   0.871  63.531  0.1808 -0.0464 -0.3283
 3892TIP3    H233168   0.402   1.002  63.575 -0.9738  0.3631  0.1184
 3893TIP3   OH233169   2.118   3.227  45.195  0.7869  0.1558 -0.8560
 3893TIP3    H133170   2.131   3.215  45.289 -0.8122 -0.5471 -0.6921
 3893TIP3    H233171   2.158   3.150  45.155 -0.0303 -0.4279 -0.5906
 3894TIP3   OH233172   3.263   1.723  49.680  0.0606  0.0707  0.4726
 3894TIP3    H133173   3.344   1.696  49.635 -1.3772  0.5556 -2.7189
 3894TIP3    H233174   3.271   1.819  49.686 -0.3842  0.1530 -0.1583
 3895TIP3   OH233175   2.858   0.551  59.942  0.3504 -0.0176  0.1911
 3895TIP3    H133176   2.773   0.591  59.958 -0.2561 -1.8030  1.7084
 3895TIP3    H233177   2.853   0.518  59.852 -0.1594  0.7795 -0.0810
 3896TIP3   OH233178   2.930   1.965   5.285  0.3670  0.1502 -0.2729
 3896TIP3    H133179   2.948   2.056   5.262 -0.0010  0.6078  1.1202
 3896TIP3    H233180   2.913   1.967   5.379 -0.2097 -1.2789 -0.3142
 3897TIP3   OH233181   1.573   0.615   9.754  0.0083 -0.3971  0.3520
 3897TIP3    H133182   1.566   0.597   9.848 -1.0747  0.6109  0.4834
 3897TIP3    H233183   1.544   0.534   9.712 -0.2831 -0.5814  0.8951
 3898TIP3   OH233184   2.333   1.702  50.732  0.1152  0.7301 -0.1910
 3898TIP3    H133185   2.379   1.759  50.794  1.4268  0.0966 -0.5519
 3898TIP3    H233186   2.286   1.763  50.674  1.0678  1.4360 -0.2502
 3899TIP3   OH233187   3.248   1.680  18.165 -0.2337 -0.0850  0.4912
 3899TIP3    H133188   3.235   1.771  18.139  1.4758 -0.1399 -0.7005
 3899TIP3    H233189   3.272   1.685  18.258  1.5441  0.8798  0.0334
 3900TIP3   OH233190   3.088   1.283  57.697 -0.5221 -0.4779 -0.2410
 3900TIP3    H133191   3.183   1.278  57.689 -0.5850 -1.8039 -0.4929
 3900TIP3    H233192   3.056   1.284  57.607 -0.7448 -0.1531 -0.1585
 3901TIP3   OH233193   2.135   1.413  43.281  0.5101  0.1232  0.4191
 3901TIP3    H133194   2.197   1.461  43.335 -0.2300  2.0459 -0.3635
 3901TIP3    H233195   2.133   1.459  43.198 -0.0198 -1.4672 -0.5108
 3902TIP3   OH233196   0.423   2.592  63.553 -0.3639  1.1633  0.3750
 3902TIP3    H133197   0.414   2.552  63.639 -1.3873  0.2937 -0.1027
 3902TIP3    H233198   0.357   2.661  63.551 -0.7186  0.8205  0.1024
 3903TIP3   OH233199   0.870   0.133  14.046  0.3037 -0.5189  0.4098
 3903TIP3    H133200   0.943   0.165  13.993  1.9608 -3.1886  0.8703
 3903TIP3    H233201   0.910   0.104  14.127 -1.2197 -2.2657  0.6052
 3904TIP3   OH233202   0.483   0.478   7.469 -0.2542 -0.1889 -0.0804
 3904TIP3    H133203   0.405   0.425   7.458  0.6156 -1.6165  0.4400
 3904TIP3    H233204   0.486   0.532   7.390 -1.9618  0.2069  0.0738
 3905TIP3   OH233205   2.571   1.241  49.779 -0.3933 -0.3449  0.2184
 3905TIP3    H133206   2.621   1.160  49.778  0.9763  0.4243  1.4895
 3905TIP3    H233207   2.611   1.295  49.711 -0.3012 -0.2035  0.3798
 3906TIP3   OH233208   3.062   0.868  45.122  0.3698 -0.3307 -0.4395
 3906TIP3    H133209   3.107   0.882  45.038  0.5957  1.4624 -0.0624
 3906TIP3    H233210   3.126   0.820  45.175  0.1322 -1.7173 -1.3320
 3907TIP3   OH233211   0.433   0.556  12.162 -0.1731 -0.3803  0.2432
 3907TIP3    H133212   0.415   0.514  12.246 -1.9784 -0.2088 -0.0156
 3907TIP3    H233213   0.368   0.517  12.102  1.5313 -1.0418 -1.2647
 3908TIP3   OH233214   1.932   0.465  43.358  0.1063  0.0885  0.2508
 3908TIP3    H133215   1.912   0.406  43.285 -1.0125  1.7443 -0.8656
 3908TIP3    H233216   2.022   0.493  43.341 -0.2571  0.7307 -0.7354
 3909TIP3   OH233217   1.918   1.600  63.877  0.0237  0.4355 -0.2573
 3909TIP3    H133218   1.837   1.604  63.826  0.8835 -1.0201 -1.8322
 3909TIP3    H233219   1.889   1.594  63.968 -1.5761  2.0556 -0.5897
 3910TIP3   OH233220   0.104   1.479  44.340 -0.3741  0.2055  0.0204
 3910TIP3    H133221   0.013   1.467  44.366 -0.4003  0.8552  0.2599
 3910TIP3    H233222   0.154   1.464  44.420 -0.3417  0.7401  0.1036
 3911TIP3   OH233223   3.053   2.048  53.864 -0.0098 -0.3254  0.3156
 3911TIP3    H133224   3.032   2.112  53.932  0.8661  0.5493 -0.1933
 3911TIP3    H233225   2.980   2.053  53.803 -2.8892 -3.9511  2.9728
 3912TIP3   OH233226   1.426   3.264  45.303 -0.0634 -0.1581  0.2746
 3912TIP3    H133227   1.455   3.342  45.256  1.2838  0.5370  2.1030
 3912TIP3    H233228   1.355   3.229  45.250 -0.0677  1.7535 -1.1156
 3913TIP3   OH233229   0.704   1.028  64.698  0.1766 -0.5738 -0.3323
 3913TIP3    H133230   0.716   1.123  64.688 -0.0746 -0.6617 -1.5565
 3913TIP3    H233231   0.744   0.990  64.620  0.7480 -1.5296  0.4030
 3914TIP3   OH233232   0.866   2.989  43.866 -0.0157  0.2118 -0.0922
 3914TIP3    H133233   0.843   2.897  43.879  0.9708  0.1843  1.7879
 3914TIP3    H233234   0.957   2.987  43.836  0.0363  0.5752  0.0340
 3915TIP3   OH233235   1.707   2.604  67.300  0.8247 -0.5503 -0.8174
 3915TIP3    H133236   1.727   2.694  67.274  0.6329 -0.6446 -1.3005
 3915TIP3    H233237   1.661   2.613  67.384 -0.2961 -0.1144 -1.4516
 3916TIP3   OH233238   1.213   1.540  35.252 -0.4812 -0.0302 -0.0012
 3916TIP3    H133239   1.257   1.558  35.335  1.0448 -0.8752 -0.5775
 3916TIP3    H233240   1.131   1.588  35.257  0.4640  1.5547  1.1798
 3917TIP3   OH233241   2.398   0.006   3.690 -0.1097  0.4199  0.2164
 3917TIP3    H133242   2.327  -0.019   3.750 -0.4860  0.4966 -0.1899
 3917TIP3    H233243   2.352   0.040   3.613  0.3663  0.1479 -0.1886
 3918TIP3   OH233244   2.205   2.372  53.409 -0.3877 -0.5366 -0.1488
 3918TIP3    H133245   2.234   2.311  53.341  1.0382  0.5244 -0.5178
 3918TIP3    H233246   2.263   2.447  53.402  0.7886 -0.9527  3.1654
 3919TIP3   OH233247   0.250   3.129  59.462  0.0379 -0.2901 -0.1495
 3919TIP3    H133248   0.234   3.151  59.554  1.9945  1.8084 -0.2414
 3919TIP3    H233249   0.179   3.172  59.414 -0.9985 -1.4018  0.3281
 3920TIP3   OH233250   3.145   2.614   5.395 -0.3258  0.0278  0.0008
 3920TIP3    H133251   3.072   2.660   5.354 -0.7856 -0.4204  0.3177
 3920TIP3    H233252   3.214   2.680   5.400 -0.0391 -0.0524 -2.0286
 3921TIP3   OH233253   0.473   1.448   0.913  0.3502  0.1683  0.0746
 3921TIP3    H133254   0.448   1.373   0.967 -1.3973  0.5653 -0.1401
 3921TIP3    H233255   0.428   1.523   0.953  0.6622  0.8125 -0.7538
 3922TIP3   OH233256   0.432   3.067  47.284  0.0806 -0.7229 -0.5530
 3922TIP3    H133257   0.344   3.096  47.262  0.4837  1.2454  0.2701
 3922TIP3    H233258   0.487   3.144  47.270  1.3136 -1.2482  1.0927
 3923TIP3   OH233259   1.677   0.147  59.361  0.5438 -0.0617  0.0778
 3923TIP3    H133260   1.770   0.142  59.380  0.4628  0.8453  0.7989
 3923TIP3    H233261   1.672   0.159  59.266  1.1079 -1.1733 -0.1030
 3924TIP3   OH233262   3.369   1.446   9.965  0.3926  0.1291  0.3179
 3924TIP3    H133263   3.349   1.491   9.884  0.3586 -0.6168 -0.0996
 3924TIP3    H233264   3.284   1.419  10.000  0.4392 -0.0215  0.3183
 3925TIP3   OH233265   3.066   0.269  16.010  0.0961 -0.4210  0.1751
 3925TIP3    H133266   3.106   0.356  16.011 -1.6003  0.4169 -1.1999
 3925TIP3    H233267   3.026   0.260  16.096  0.3345  0.1386  0.3488
 3926TIP3   OH233268   2.099   0.347   8.789 -0.4387  0.3631  0.3568
 3926TIP3    H133269   2.009   0.363   8.759 -0.2694 -0.9848 -0.9852
 3926TIP3    H233270   2.088   0.295   8.869 -0.8433  0.7295  0.5506
 3927TIP3   OH233271   0.912   3.402   0.162  0.0649  0.3064  0.2928
 3927TIP3    H133272   0.918   3.311   0.190 -1.0519  0.3319  0.7084
 3927TIP3    H233273   1.000   3.437   0.173 -0.0002 -0.0777  2.5029
 3928TIP3   OH233274   3.116   2.207  62.912 -0.5190  0.4443  0.3965
 3928TIP3    H133275   3.053   2.151  62.866  0.6657 -0.2105 -0.5042
 3928TIP3    H233276   3.070   2.290  62.925 -1.4425  0.1093 -0.5600
 3929TIP3   OH233277   1.154   1.715  51.090  0.1800  0.5142 -0.3104
 3929TIP3    H133278   1.179   1.750  51.175 -1.3965  0.0637  0.3774
 3929TIP3    H233279   1.201   1.631  51.083  0.8242  0.8575 -0.2007
 3930TIP3   OH233280   0.815   3.059   5.566  0.0626 -0.1667  0.8883
 3930TIP3    H133281   0.890   3.112   5.593 -1.0983  1.2108  1.5374
 3930TIP3    H233282   0.785   3.100   5.484  0.2640 -0.9791  0.3976
 3931TIP3   OH233283   2.202   3.313   3.837 -0.2937  0.2403 -0.0711
 3931TIP3    H133284   2.267   3.244   3.850  0.4268  0.6599 -1.2880
 3931TIP3    H233285   2.122   3.265   3.812 -0.1633 -0.2198  0.3727
 3932TIP3   OH233286   2.478   2.300  25.855  0.0837  0.0193 -0.0778
 3932TIP3    H133287   2.495   2.296  25.949  0.1384 -0.4137 -0.1035
 3932TIP3    H233288   2.403   2.359  25.846  0.3105  0.3513  0.2039
 3933TIP3   OH233289   2.056   3.023  43.066  0.0096 -0.1958  0.3340
 3933TIP3    H133290   1.967   3.018  43.030  0.1868 -1.3325  0.0334
 3933TIP3    H233291   2.044   3.022  43.161 -0.4474  2.5742  0.4135
 3934TIP3   OH233292   2.015   0.871  67.337 -0.1912  0.0057  0.6832
 3934TIP3    H133293   1.974   0.889  67.422 -0.9441  0.4417  0.2422
 3934TIP3    H233294   2.104   0.906  67.345  1.1744 -3.4447  2.6287
 3935TIP3   OH233295   0.833   1.315  62.869 -0.0883 -0.5453  0.6689
 3935TIP3    H133296   0.886   1.350  62.798  0.5996  1.5620  2.1146
 3935TIP3    H233297   0.896   1.266  62.923 -0.7619 -2.8708 -0.5269
 3936TIP3   OH233298   0.911   1.680  45.301  0.2779  0.0692  0.3218
 3936TIP3    H133299   0.885   1.742  45.233  1.1220 -0.1698 -0.2448
 3936TIP3    H233300   0.971   1.730  45.356 -0.2792  0.2142  0.7995
 3937TIP3   OH233301   1.377   3.037  22.064  0.2625 -0.3114  0.3538
 3937TIP3    H133302   1.283   3.050  22.074  0.1142  0.9709 -2.0897
 3937TIP3    H233303   1.417   3.115  22.103  0.1965  0.0199 -0.2292
 3938TIP3   OH233304   2.032   3.356  17.374  0.5849 -0.1342 -0.7509
 3938TIP3    H133305   1.971   3.317  17.311 -0.4129  2.3093 -1.4454
 3938TIP3    H233306   1.980   3.367  17.454  0.8074 -0.1351 -0.6068
 3939TIP3   OH233307   0.189   2.541   9.143  0.1334 -0.3433 -0.5939
 3939TIP3    H133308   0.130   2.505   9.208 -0.3596 -0.0392 -0.8641
 3939TIP3    H233309   0.274   2.546   9.187 -0.4454  1.0171  0.4488
 3940TIP3   OH233310   1.127   2.627   9.664 -0.0225  0.5209  0.0202
 3940TIP3    H133311   1.214   2.632   9.704 -0.4164 -0.0791  1.0049
 3940TIP3    H233312   1.127   2.544   9.616 -0.3100  0.1121  0.7066
 3941TIP3   OH233313   0.080   1.391  17.751 -0.6876  0.1444 -0.4035
 3941TIP3    H133314   0.014   1.447  17.792  0.4994 -0.1879  2.1003
 3941TIP3    H233315   0.031   1.342  17.684 -2.4504  1.6002 -0.2697
 3942TIP3   OH233316   0.087   2.311  19.679  0.3012 -0.5859  0.1325
 3942TIP3    H133317   0.151   2.254  19.637  1.3518  0.5598  0.1334
 3942TIP3    H233318   0.075   2.384  19.617 -0.8921 -0.6921  0.2037
 3943TIP3   OH233319   0.959   2.567   0.936  0.2009 -0.0133 -0.1116
 3943TIP3    H133320   0.926   2.655   0.953  1.6186  0.7250 -0.9817
 3943TIP3    H233321   0.880   2.515   0.919 -0.5982  1.4231 -1.0370
 3944TIP3   OH233322   0.791   1.175  43.405  0.4198  0.4240  0.1868
 3944TIP3    H133323   0.855   1.170  43.335 -1.7039 -1.9767 -1.7677
 3944TIP3    H233324   0.830   1.125  43.477  1.9710  1.6400  0.2503
 3945TIP3   OH233325   0.896   1.619  44.279  0.1714  0.8494  0.1780
 3945TIP3    H133326   0.925   1.558  44.212  0.0558 -0.2073  1.0686
 3945TIP3    H233327   0.802   1.630  44.264  0.2138  0.8985 -0.0495
 3946TIP3   OH233328   2.524   0.313  48.073  0.0361  0.3135  0.0584
 3946TIP3    H133329   2.466   0.355  48.010  0.5325  1.4712  0.3464
 3946TIP3    H233330   2.599   0.372  48.081 -0.1638  0.3913  1.9773
 3947TIP3   OH233331   1.175   2.959  14.150  0.3347  0.2492  0.4251
 3947TIP3    H133332   1.120   2.994  14.221  1.1410  0.9688  0.7101
 3947TIP3    H233333   1.253   2.927  14.195  0.4430 -0.1435 -0.0481
 3948TIP3   OH233334   2.095   0.605  49.379 -0.3124 -0.3732 -0.4927
 3948TIP3    H133335   2.186   0.584  49.400 -0.1008  1.2949  0.4527
 3948TIP3    H233336   2.044   0.543  49.430  0.2867  1.0639  2.0306
 3949TIP3   OH233337   2.520   2.219  59.514 -0.3862  0.2911  0.0481
 3949TIP3    H133338   2.526   2.167  59.594  1.3807  0.5701  0.1301
 3949TIP3    H233339   2.440   2.188  59.471  0.6576 -2.6424  0.0071
 3950TIP3   OH233340   1.544   2.528  18.601 -0.0832  0.1346  0.4341
 3950TIP3    H133341   1.484   2.588  18.558  1.0043 -0.2191 -1.7055
 3950TIP3    H233342   1.516   2.441  18.572  0.3898 -0.1488  0.8125
 3951TIP3   OH233343   0.960   0.619  66.067 -0.5637 -0.0292  0.2530
 3951TIP3    H133344   0.932   0.597  66.156  2.4781  0.8115  1.5629
 3951TIP3    H233345   1.003   0.539  66.036 -0.4055  0.1099  0.1131
 3952TIP3   OH233346   2.756   3.291  59.133  0.0656 -0.1384 -0.0649
 3952TIP3    H133347   2.772   3.347  59.209  3.3760  0.0628 -0.7468
 3952TIP3    H233348   2.694   3.341  59.080 -1.9597 -0.0682  2.1969
 3953TIP3   OH233349   1.862   2.388  58.203 -0.0275 -0.5529  0.4839
 3953TIP3    H133350   1.876   2.299  58.236  0.2839 -0.3082  1.0267
 3953TIP3    H233351   1.769   2.405  58.220  0.0492 -0.5584  0.9323
 3954TIP3   OH233352   1.340   2.043  42.380 -0.0399 -0.1789 -0.0912
 3954TIP3    H133353   1.301   2.001  42.456 -0.0053  1.4943  0.8929
 3954TIP3    H233354   1.267   2.062  42.322 -0.2474 -0.2384  0.1516
 3955TIP3   OH233355   2.085   1.023  12.574  0.4101 -0.0205  0.0289
 3955TIP3    H133356   1.994   1.052  12.580 -0.7365 -2.9874 -0.9969
 3955TIP3    H233357   2.082   0.930  12.599  3.1378 -0.2738 -0.2635
 3956TIP3   OH233358   2.503   0.274   0.889 -0.7912  0.5257 -0.7925
 3956TIP3    H133359   2.484   0.208   0.956  1.3598  0.9036  0.2989
 3956TIP3    H233360   2.578   0.238   0.841 -0.8323  1.2984 -1.4604
 3957TIP3   OH233361   2.605   0.474  60.364 -0.4847 -0.1642 -0.1844
 3957TIP3    H133362   2.600   0.392  60.414  2.5919 -0.3999 -0.0854
 3957TIP3    H233363   2.599   0.446  60.272  1.7911 -0.7566 -0.2210
 3958TIP3   OH233364   2.235   2.545  62.580 -0.3920  0.4711 -0.4163
 3958TIP3    H133365   2.231   2.553  62.485 -1.0071  0.0105 -0.4346
 3958TIP3    H233366   2.209   2.455  62.598 -2.6194  1.1830  0.3078
 3959TIP3   OH233367   2.379   1.574  16.255 -0.2360  1.2149  0.6720
 3959TIP3    H133368   2.395   1.655  16.206 -1.2175  0.5431 -0.8239
 3959TIP3    H233369   2.387   1.600  16.346  1.6978  2.5187  0.2066
 3960TIP3   OH233370   0.687   0.320  63.490 -0.0265 -0.0522 -0.0526
 3960TIP3    H133371   0.628   0.394  63.507 -0.4813 -0.6816  1.2530
 3960TIP3    H233372   0.680   0.266  63.569  0.7139 -1.2119 -0.7627
 3961TIP3   OH233373   3.182   2.519  12.281  0.0551 -0.2995 -0.8123
 3961TIP3    H133374   3.265   2.486  12.246  1.4069  0.8917  1.0834
 3961TIP3    H233375   3.154   2.585  12.218 -0.1971 -1.6588 -2.1711
 3962TIP3   OH233376   0.381   2.635  19.704  0.2624 -0.6695 -0.2571
 3962TIP3    H133377   0.426   2.623  19.788 -0.5520 -2.9063 -0.0677
 3962TIP3    H233378   0.304   2.687  19.726 -0.0323 -1.3758  0.4502
 3963TIP3   OH233379   1.652   0.360  19.387  0.2386  0.2007 -0.2459
 3963TIP3    H133380   1.658   0.407  19.304  2.0409  1.5436  0.5695
 3963TIP3    H233381   1.692   0.275  19.369  1.0270  0.6479 -0.6762
 3964TIP3   OH233382   1.684   3.040  63.775  0.1561  0.2052 -0.5117
 3964TIP3    H133383   1.602   3.016  63.819  0.0107 -1.0154 -1.3980
 3964TIP3    H233384   1.657   3.087  63.697  0.4149  2.2807  0.5805
 3965TIP3   OH233385   1.206   0.904   8.232 -0.2832  0.0206  0.3363
 3965TIP3    H133386   1.177   0.816   8.209  1.5778 -0.6372  0.3133
 3965TIP3    H233387   1.301   0.895   8.243 -0.0413  2.0616  0.1852
 3966TIP3   OH233388   2.621   1.849  25.700 -0.7505  0.2642  0.6084
 3966TIP3    H133389   2.675   1.890  25.633  0.3320 -0.9582  0.6939
 3966TIP3    H233390   2.537   1.895  25.695 -1.1749 -0.6271 -2.5195
 3967TIP3   OH233391   1.377   0.769   1.439 -0.0245  0.2117 -0.3747
 3967TIP3    H133392   1.283   0.750   1.448 -0.1498  0.1904 -1.6269
 3967TIP3    H233393   1.382   0.864   1.439 -0.0705  0.2137 -0.5747
 3968TIP3   OH233394   2.159   3.153   6.596  0.4142 -0.8324  0.3381
 3968TIP3    H133395   2.251   3.135   6.575  0.3499 -0.0598 -0.7010
 3968TIP3    H233396   2.111   3.119   6.520 -0.0719 -0.3948  0.4457
 3969TIP3   OH233397   1.196   1.333  19.785 -0.2641  0.1734  0.6113
 3969TIP3    H133398   1.156   1.407  19.739  0.0242  0.2250  0.4383
 3969TIP3    H233399   1.214   1.366  19.873  0.2429  0.4367  0.4084
 3970TIP3   OH233400   3.248   0.843  61.846  0.6562 -0.2953  0.1700
 3970TIP3    H133401   3.269   0.900  61.772  1.7602 -1.6339 -0.5836
 3970TIP3    H233402   3.272   0.756  61.817  0.0746 -1.0094  1.7236
 3971TIP3   OH233403   0.253   1.310  14.235 -0.8081  0.2626 -0.0778
 3971TIP3    H133404   0.170   1.358  14.240  0.0436  1.7227  1.0718
 3971TIP3    H233405   0.302   1.355  14.166 -0.5346  0.1412  0.0373
 3972TIP3   OH233406   2.255   0.493  20.150  0.0940  0.1321  0.2698
 3972TIP3    H133407   2.187   0.429  20.126 -0.4648  0.5654  0.6508
 3972TIP3    H233408   2.206   0.564  20.193  0.8050  0.4045  0.6387
 3973TIP3   OH233409   2.991   2.423  53.793 -0.2847 -0.0379  0.2915
 3973TIP3    H133410   2.905   2.421  53.833 -0.5842 -1.8654 -0.3192
 3973TIP3    H233411   2.977   2.389  53.704  0.8499  0.9255 -0.2898
 3974TIP3   OH233412   1.732   1.740   6.489 -0.7706  0.1039 -0.4108
 3974TIP3    H133413   1.661   1.675   6.490 -0.5465 -0.1453 -0.5536
 3974TIP3    H233414   1.795   1.707   6.553 -0.7446  0.2820 -0.3461
 3975TIP3   OH233415   1.497   0.279  55.144  0.0097  0.1845 -0.1339
 3975TIP3    H133416   1.423   0.334  55.167 -1.1754 -0.0029 -3.0174
 3975TIP3    H233417   1.574   0.327  55.174 -1.1919  1.0600  1.6731
 3976TIP3   OH233418   1.872   1.073  19.945  0.1421 -0.0430  0.2431
 3976TIP3    H133419   1.904   0.991  19.907  0.8522 -0.8092  2.3646
 3976TIP3    H233420   1.782   1.054  19.971 -0.0413  0.1911 -0.2138
 3977TIP3   OH233421   1.869   0.576  12.405  0.3651  0.5448  0.3222
 3977TIP3    H133422   1.903   0.489  12.428  0.4468  0.7135  0.8472
 3977TIP3    H233423   1.870   0.577  12.309 -0.3537 -0.3212  0.2813
 3978TIP3   OH233424   1.863   2.250  58.604 -0.3014 -0.2873 -0.0129
 3978TIP3    H133425   1.924   2.215  58.539 -1.5021 -1.3096 -0.6298
 3978TIP3    H233426   1.893   2.340  58.619  1.1968 -0.6881 -0.4628
 3979TIP3   OH233427   0.536   1.977  48.996 -0.1501  0.3665  0.3132
 3979TIP3    H133428   0.469   1.951  48.933 -1.0398 -0.8840  1.7067
 3979TIP3    H233429   0.607   1.915  48.982  0.0165  0.6323 -0.0316
 3980TIP3   OH233430   1.452   3.186  15.229  0.7143  0.3272 -0.2385
 3980TIP3    H133431   1.426   3.173  15.138  1.0070  0.7358 -0.3841
 3980TIP3    H233432   1.475   3.279  15.234 -1.4223  0.8581  0.7828
 3981TIP3   OH233433   0.712   1.576  62.972 -0.5302 -0.0245  0.3642
 3981TIP3    H133434   0.753   1.490  62.968 -0.3821  0.0768 -0.4174
 3981TIP3    H233435   0.784   1.637  62.982 -0.6758 -0.0231  1.5458
 3982TIP3   OH233436   0.697   0.172  47.373  0.5298 -0.2356  0.1372
 3982TIP3    H133437   0.698   0.196  47.466  0.4527  1.0923 -0.1874
 3982TIP3    H233438   0.608   0.192  47.344  0.5054 -0.7972 -0.1993
 3983TIP3   OH233439   0.518   0.610  46.129  0.2300 -0.0776  0.0893
 3983TIP3    H133440   0.467   0.564  46.196 -0.6647  0.4638 -0.1940
 3983TIP3    H233441   0.452   0.660  46.079  0.9168 -0.1866 -0.9587
 3984TIP3   OH233442   2.992   1.530  48.440 -0.8502 -0.8356 -0.0155
 3984TIP3    H133443   2.999   1.617  48.478 -2.1347 -0.9059  0.4130
 3984TIP3    H233444   2.975   1.546  48.347  0.9109 -0.6611 -0.3416
 3985TIP3   OH233445   0.219   1.567   4.909 -0.6448  0.0914 -0.2389
 3985TIP3    H133446   0.238   1.641   4.967 -0.1993  1.4845 -2.0645
 3985TIP3    H233447   0.134   1.535   4.938 -1.2379  1.8660  0.0972
 3986TIP3   OH233448   0.447   2.827  46.396  0.3590 -0.3042  0.0199
 3986TIP3    H133449   0.454   2.765  46.323  2.4154 -0.5748  0.4027
 3986TIP3    H233450   0.381   2.890  46.368 -1.3929 -2.3144 -0.6252
 3987TIP3   OH233451   3.032   2.303  11.679  0.1362  0.8270  0.0304
 3987TIP3    H133452   3.108   2.340  11.634  0.6173  0.8300  0.8282
 3987TIP3    H233453   2.961   2.309  11.615  0.2782  2.7853 -0.0172
 3988TIP3   OH233454   2.195   2.890   8.651 -0.2702  0.7509  0.4022
 3988TIP3    H133455   2.283   2.869   8.684  0.2305  0.1893 -1.1747
 3988TIP3    H233456   2.153   2.805   8.641 -0.5090  0.9270 -0.1016
 3989TIP3   OH233457   0.911   1.914  52.902 -0.3477 -0.0432  0.2149
 3989TIP3    H133458   0.925   1.878  52.989 -0.0548  1.4620  0.8240
 3989TIP3    H233459   0.928   2.008  52.912  2.2464 -0.1550 -1.9827
 3990TIP3   OH233460   3.374   0.398   7.946  0.3550 -0.0728 -0.0182
 3990TIP3    H133461   3.447   0.375   8.004  0.2200 -0.2154  0.0966
 3990TIP3    H233462   3.408   0.468   7.890 -0.4440  2.2558  2.2452
 3991TIP3   OH233463   3.121   0.119   9.658  0.5607  0.3186  1.0028
 3991TIP3    H133464   3.090   0.102   9.569  1.8076  0.0786  0.5937
 3991TIP3    H233465   3.048   0.096   9.715 -1.2759  2.9861 -0.0573
 3992TIP3   OH233466   0.239   1.667  57.936  0.1502 -0.0891 -0.5859
 3992TIP3    H133467   0.209   1.576  57.927  1.6641 -0.4492 -3.7778
 3992TIP3    H233468   0.326   1.659  57.975  0.1152  0.0157 -0.4902
 3993TIP3   OH233469   1.307   2.554  59.546 -0.0258  0.0662  0.0297
 3993TIP3    H133470   1.385   2.596  59.581 -0.0943  0.5649 -0.4087
 3993TIP3    H233471   1.261   2.519  59.623  1.2319 -1.3136  0.2025
 3994TIP3   OH233472   2.775   1.691  49.537  0.2221  0.0990 -0.4749
 3994TIP3    H133473   2.850   1.680  49.478 -0.3230  0.1759 -1.2010
 3994TIP3    H233474   2.745   1.781  49.521  0.3774  0.2945  0.2995
 3995TIP3   OH233475   1.183   0.442   5.016 -0.2271 -0.6037 -0.4746
 3995TIP3    H133476   1.191   0.485   4.931  0.8861  0.5946  0.1984
 3995TIP3    H233477   1.267   0.458   5.060 -0.2240 -2.4615  0.2944
 3996TIP3   OH233478   1.909   0.559  18.026  0.2940  0.1522 -0.1955
 3996TIP3    H133479   1.902   0.597  17.939  0.9094 -0.9246 -0.7350
 3996TIP3    H233480   1.859   0.477  18.021  0.3145  0.0934  0.4576
 3997TIP3   OH233481   0.941   3.251  39.599 -0.2298 -0.0744  0.1904
 3997TIP3    H133482   0.860   3.296  39.574 -0.3768 -0.7830 -0.6528
 3997TIP3    H233483   0.914   3.162  39.617  0.1991 -0.0443  0.9906
 3998TIP3   OH233484   2.045   1.584   4.260 -0.2895  0.2911  0.4218
 3998TIP3    H133485   1.983   1.573   4.332  0.8361 -1.6345  1.1842
 3998TIP3    H233486   2.054   1.496   4.223 -0.1781  1.0789 -1.5465
 3999TIP3   OH233487   3.237   0.915  20.000 -0.1846  0.0285 -0.3846
 3999TIP3    H133488   3.321   0.883  19.965  0.9605  1.5062  0.8570
 3999TIP3    H233489   3.224   0.863  20.079  0.2806  0.7110  0.1551
 4000TIP3   OH233490   2.060   3.064  17.547  0.1468  0.1057 -0.3751
 4000TIP3    H133491   2.042   2.991  17.606  0.1024  0.5819  0.2179
 4000TIP3    H233492   2.099   3.131  17.603  1.6340 -0.0323 -1.1955
 4001TIP3   OH233493   2.625   0.136  50.019  0.0011  0.2142 -0.5361
 4001TIP3    H133494   2.579   0.053  50.018  0.6930 -0.3386  2.7052
 4001TIP3    H233495   2.716   0.114  50.041  0.5073  1.7107 -0.9632
 4002TIP3   OH233496   1.360   2.901   0.303  0.9144 -0.1950 -0.3369
 4002TIP3    H133497   1.414   2.867   0.231  1.5470 -1.1001  0.5459
 4002TIP3    H233498   1.385   2.993   0.310  1.7478 -0.4084 -0.4664
 4003TIP3   OH233499   1.499   1.307  51.213 -0.2824 -0.3057  0.2418
 4003TIP3    H133500   1.495   1.391  51.257  2.0335  0.0320 -0.1080
 4003TIP3    H233501   1.508   1.243  51.284 -1.3248 -0.2222  0.4673
 4004TIP3   OH233502   2.243   0.871  52.156 -0.7611 -0.2809 -0.0463
 4004TIP3    H133503   2.310   0.939  52.164  0.9680 -2.0225  1.5953
 4004TIP3    H233504   2.187   0.884  52.233 -1.5546  0.3776 -0.7197
 4005TIP3   OH233505   2.010   0.964  14.087 -0.0403 -0.3711  0.4850
 4005TIP3    H133506   2.054   1.023  14.148  0.5328 -1.0962  0.7923
 4005TIP3    H233507   2.037   0.996  14.000  0.1725 -0.1061  0.6462
 4006TIP3   OH233508   1.512   2.790  16.579  0.3271  0.0698 -0.7621
 4006TIP3    H133509   1.502   2.754  16.491  0.5275 -0.7972 -0.4372
 4006TIP3    H233510   1.601   2.766  16.605  0.0636 -0.2036 -0.0918
 4007TIP3   OH233511   0.283   1.849  10.219  0.2377 -0.1609 -0.0694
 4007TIP3    H133512   0.323   1.800  10.290  0.7386  1.6528  0.9394
 4007TIP3    H233513   0.198   1.806  10.206  0.3369 -0.8147  1.2724
 4008TIP3   OH233514   2.096   2.847  65.679  0.2248  0.6556 -0.3905
 4008TIP3    H133515   2.036   2.823  65.750  0.8222 -0.3054 -0.1941
 4008TIP3    H233516   2.083   2.941  65.668 -0.7788  0.6021  0.1522
 4009TIP3   OH233517   1.223   0.850  47.821  0.7437 -0.7024  0.4285
 4009TIP3    H133518   1.305   0.850  47.772 -0.3808 -1.0043 -1.5697
 4009TIP3    H233519   1.156   0.869  47.756 -0.9520 -2.0773  1.6668
 4010TIP3   OH233520   1.486   1.029   5.701  0.2958  0.1070 -0.3669
 4010TIP3    H133521   1.437   0.988   5.773  0.9405  0.4704  0.2897
 4010TIP3    H233522   1.519   0.956   5.649  2.7470 -0.3245  1.6509
 4011TIP3   OH233523   2.987   2.896  51.071 -0.2234 -0.2654 -0.1468
 4011TIP3    H133524   3.071   2.882  51.114  0.2079 -0.0872 -0.9209
 4011TIP3    H233525   2.964   2.987  51.091 -0.5082 -0.4716  0.5149
 4012TIP3   OH233526   0.851   2.875  19.115 -0.1478  0.1428  0.0879
 4012TIP3    H133527   0.772   2.874  19.169 -1.0436 -0.6140 -1.1844
 4012TIP3    H233528   0.820   2.857  19.026  1.3723  0.5963 -0.5675
 4013TIP3   OH233529   2.355   1.628   9.509 -0.2641  0.1138 -0.5457
 4013TIP3    H133530   2.287   1.563   9.492 -1.5193  1.6667 -1.7997
 4013TIP3    H233531   2.347   1.646   9.603 -0.5934 -0.7931 -0.3924
 4014TIP3   OH233532   2.625   0.878  19.477 -0.9374  0.2495 -0.5424
 4014TIP3    H133533   2.685   0.803  19.469  1.1503  1.7247  0.3953
 4014TIP3    H233534   2.600   0.879  19.569 -2.4602 -0.3318 -0.9185
 4015TIP3   OH233535   1.884   0.235  26.547 -0.0427  0.2029 -0.2678
 4015TIP3    H133536   1.916   0.146  26.527 -1.9164 -0.7737  0.8295
 4015TIP3    H233537   1.858   0.270  26.462  1.9464  0.2641 -0.9082
 4016TIP3   OH233538   3.417   0.285  56.629 -0.4405  0.1052 -0.5184
 4016TIP3    H133539   3.476   0.218  56.662 -1.6742 -1.0017 -0.4726
 4016TIP3    H233540   3.383   0.249  56.547 -0.7002  0.9223 -0.7812
 4017TIP3   OH233541   0.397   2.779  55.203  1.1294  0.3033  0.3371
 4017TIP3    H133542   0.437   2.738  55.280  1.1194  0.5084  0.4542
 4017TIP3    H233543   0.455   2.753  55.131  0.2425 -1.2398  0.1418
 4018TIP3   OH233544   3.230   1.283   1.542 -0.2339 -0.4838  0.5787
 4018TIP3    H133545   3.211   1.332   1.462 -1.6556 -0.8390  0.6715
 4018TIP3    H233546   3.189   1.198   1.528 -0.4342 -0.5722  1.6569
 4019TIP3   OH233547   3.077   1.610  63.054  0.4937  0.2837 -0.4778
 4019TIP3    H133548   3.066   1.551  63.129  3.3861 -0.5449 -0.5583
 4019TIP3    H233549   3.048   1.695  63.085  0.7694 -0.2366  1.2982
 4020TIP3   OH233550   3.376   0.980  14.775 -0.1460  0.1268 -0.6925
 4020TIP3    H133551   3.419   1.046  14.721  1.0777  0.0374  0.1168
 4020TIP3    H233552   3.447   0.919  14.799 -0.9534 -0.6530 -0.2264
 4021TIP3   OH233553   1.774   3.255  58.962  0.5356 -0.8351 -0.3027
 4021TIP3    H133554   1.866   3.272  58.977  0.4807 -0.3054 -0.5199
 4021TIP3    H233555   1.754   3.179  59.015 -0.0222  1.7565  3.5806
 4022TIP3   OH233556   2.792   3.287  42.957 -0.0272 -0.2442  0.2724
 4022TIP3    H133557   2.700   3.307  42.937 -0.8564 -3.1385  0.7230
 4022TIP3    H233558   2.824   3.241  42.879  0.7494 -0.0724  0.4844
 4023TIP3   OH233559   1.639   2.160  48.118 -0.4286  0.0525  0.0661
 4023TIP3    H133560   1.572   2.092  48.105 -1.0928  0.4945  1.1333
 4023TIP3    H233561   1.717   2.124  48.076 -0.4556 -1.8754  1.5317
 4024TIP3   OH233562   2.613   2.292  51.253 -0.0328 -0.7919 -0.6218
 4024TIP3    H133563   2.559   2.371  51.251 -1.0555 -1.3671  1.4378
 4024TIP3    H233564   2.619   2.266  51.162 -0.1159  1.3465 -1.3067
 4025TIP3   OH233565   3.147   1.577   4.906 -0.1766 -0.6825  0.2092
 4025TIP3    H133566   3.078   1.511   4.907  0.2739 -1.1670 -0.2924
 4025TIP3    H233567   3.214   1.543   4.966 -0.3803 -0.2028  0.7139
 4026TIP3   OH233568   3.235   2.083   4.244 -0.8824  0.0672  0.1009
 4026TIP3    H133569   3.268   2.171   4.260 -1.3013  0.1661  0.4448
 4026TIP3    H233570   3.313   2.028   4.244 -0.8479 -0.1764  4.0610
 4027TIP3   OH233571   2.334   2.881   2.875 -0.2001  0.1848 -0.2100
 4027TIP3    H133572   2.339   2.791   2.841  0.8925  0.0757  0.2066
 4027TIP3    H233573   2.404   2.928   2.830 -0.7466  0.8277 -0.4003
 4028TIP3   OH233574   0.535   1.131  14.804 -0.2864 -0.2801 -0.1475
 4028TIP3    H133575   0.508   1.040  14.810 -1.4930  0.0334 -0.5001
 4028TIP3    H233576   0.523   1.153  14.711  0.5943  0.0669 -0.1898
 4029TIP3   OH233577   1.341   1.559  56.563 -0.3322  0.7499 -0.1823
 4029TIP3    H133578   1.365   1.535  56.474 -1.3393  1.8974 -0.7914
 4029TIP3    H233579   1.258   1.514  56.578  0.1896 -0.0346  0.4728
 4030TIP3   OH233580   1.043   1.270   3.964 -0.1948 -0.4208  0.1783
 4030TIP3    H133581   1.041   1.189   3.913  0.4328 -0.0192 -0.4992
 4030TIP3    H233582   0.975   1.324   3.925  0.2220 -0.1492 -0.1783
 4031TIP3   OH233583   2.256   3.267  10.737  0.6216 -0.0448 -0.5914
 4031TIP3    H133584   2.200   3.246  10.811  2.0225 -0.4307  0.4041
 4031TIP3    H233585   2.321   3.328  10.772  1.8011 -0.8638 -1.2674
 4032TIP3   OH233586   2.025   0.407  60.027  0.1548  0.3806 -0.1386
 4032TIP3    H133587   2.101   0.355  60.052 -1.1453 -1.4637  0.1937
 4032TIP3    H233588   2.034   0.489  60.075  1.3887 -0.2342  0.7102
 4033TIP3   OH233589   3.156   2.283   7.471  0.3452 -0.3002 -0.0782
 4033TIP3    H133590   3.091   2.335   7.423  1.2158  0.8578 -0.0311
 4033TIP3    H233591   3.113   2.198   7.483 -0.6557  0.0067 -1.1927
 4034TIP3   OH233592   2.055   1.517  65.348 -0.2741  0.2883 -0.1274
 4034TIP3    H133593   2.010   1.532  65.265 -1.7829 -1.8845  0.2100
 4034TIP3    H233594   2.144   1.494  65.323 -0.3159  1.0612 -1.0473
 4035TIP3   OH233595   0.034   0.694  21.663  0.1188  0.0355  0.2290
 4035TIP3    H133596  -0.028   0.746  21.713  2.3832  0.8398  2.3465
 4035TIP3    H233597   0.095   0.758  21.626  1.7070 -0.8959  1.1215
 4036TIP3   OH233598   2.590   2.157   1.243  0.0074  0.6590 -0.3766
 4036TIP3    H133599   2.559   2.068   1.226  0.2107  0.9045 -2.2743
 4036TIP3    H233600   2.511   2.210   1.251 -0.1206  0.7418 -1.9683
 4037TIP3   OH233601   1.243   0.055   9.964  0.1078 -0.1665 -0.0569
 4037TIP3    H133602   1.216  -0.035   9.980  1.0699 -0.5236 -0.3665
 4037TIP3    H233603   1.165   0.098   9.930 -0.0802 -1.1739 -0.9711
 4038TIP3   OH233604   2.488   0.989   3.601 -0.0753  0.1921 -0.4549
 4038TIP3    H133605   2.577   1.012   3.575 -0.4704  1.6131 -0.5859
 4038TIP3    H233606   2.433   1.016   3.528 -0.7315  0.2775  0.0632
 4039TIP3   OH233607   3.155   3.347   1.734 -0.0535 -0.3498  1.1278
 4039TIP3    H133608   3.194   3.319   1.651  0.8049 -2.3133  2.1180
 4039TIP3    H233609   3.136   3.440   1.721  2.2126 -0.0067 -0.4683
 4040TIP3   OH233610   1.633   2.673   5.456 -0.1538 -0.2380  0.1362
 4040TIP3    H133611   1.564   2.671   5.523  0.9197 -0.7627  1.2614
 4040TIP3    H233612   1.648   2.766   5.440 -1.8597 -0.1156 -0.9312
 4041TIP3   OH233613   1.574   0.198  20.230  0.3029 -0.0892  0.5295
 4041TIP3    H133614   1.521   0.202  20.310 -0.3146  0.1396  0.1165
 4041TIP3    H233615   1.510   0.198  20.159  0.8480 -0.2832  0.0316
 4042TIP3   OH233616   2.948   0.862  46.210 -0.0673  0.4519  0.3598
 4042TIP3    H133617   3.015   0.829  46.270 -0.3698 -0.5641  0.1600
 4042TIP3    H233618   2.910   0.937  46.256  1.5887  1.4302  0.2147
 4043TIP3   OH233619   2.746   3.276  44.599  0.3698  0.3130 -0.0029
 4043TIP3    H133620   2.687   3.201  44.600  1.6751 -0.7609  0.3381
 4043TIP3    H233621   2.739   3.311  44.510  0.0416 -0.4717 -0.2988
 4044TIP3   OH233622   3.198   2.834  18.679  0.2689  0.2283 -0.3269
 4044TIP3    H133623   3.128   2.799  18.734 -0.4661 -1.0316 -1.9953
 4044TIP3    H233624   3.187   2.929  18.685 -1.3158  0.0708 -0.2099
 4045TIP3   OH233625   0.273   0.535  63.732 -0.0408  0.9581 -0.1292
 4045TIP3    H133626   0.261   0.575  63.818 -0.6213  0.0959  0.2090
 4045TIP3    H233627   0.246   0.602  63.670 -1.1712  1.0525  0.4306
 4046TIP3   OH233628   2.783   1.181  62.016 -0.5270 -0.0730  0.2928
 4046TIP3    H133629   2.714   1.206  62.077  0.9714  1.8452  1.2772
 4046TIP3    H233630   2.843   1.127  62.067  1.1110  2.1322  0.7971
 4047TIP3   OH233631   2.701   1.850  29.863 -0.5699 -0.1012  0.1412
 4047TIP3    H133632   2.770   1.830  29.799 -0.4207 -0.7215  0.4819
 4047TIP3    H233633   2.692   1.769  29.914  0.0470  0.7003  1.5964
 4048TIP3   OH233634   3.077   0.991  49.347  0.5514 -0.1188  0.0066
 4048TIP3    H133635   3.090   1.085  49.345  2.3003 -0.3059  0.9436
 4048TIP3    H233636   3.150   0.956  49.295  0.7649 -1.0051  0.8769
 4049TIP3   OH233637   3.381   0.256  55.497 -0.4150 -0.6457  0.2614
 4049TIP3    H133638   3.415   0.316  55.430 -0.4483 -0.0612  0.7605
 4049TIP3    H233639   3.426   0.173  55.480 -0.9182 -0.7017 -0.8982
 4050TIP3   OH233640   2.868   0.343  61.638 -0.1504 -0.3616  0.7439
 4050TIP3    H133641   2.790   0.361  61.586 -1.1897  0.0437  2.3697
 4050TIP3    H233642   2.835   0.301  61.717  1.0410  1.4951  2.3143
 4051TIP3   OH233643   1.119   3.117  22.086 -0.2245  0.2287  0.3235
 4051TIP3    H133644   1.065   3.196  22.091 -1.3505 -0.5994  1.9227
 4051TIP3    H233645   1.060   3.045  22.106  1.0340 -0.9269  0.0743
 4052TIP3   OH233646   0.913   0.429  42.556  0.2806  0.0154  0.1890
 4052TIP3    H133647   0.997   0.456  42.594  0.7495 -0.6689 -0.3536
 4052TIP3    H233648   0.871   0.377  42.625  1.1502 -1.2649 -0.2278
 4053TIP3   OH233649   1.524   0.391  48.522  0.3836 -0.3104 -0.2239
 4053TIP3    H133650   1.604   0.444  48.514  0.7312 -0.7428  0.3107
 4053TIP3    H233651   1.547   0.323  48.586 -0.3599 -0.5368 -0.1907
 4054TIP3   OH233652   1.272   1.591  45.681 -0.2662  0.5245 -0.4144
 4054TIP3    H133653   1.180   1.568  45.696 -0.4616  1.4938 -0.0708
 4054TIP3    H233654   1.300   1.634  45.762  0.2327  1.0345 -0.8497
 4055TIP3   OH233655   2.858   3.052  11.695  0.5006  0.8127 -0.3128
 4055TIP3    H133656   2.878   2.961  11.716  0.5864  0.5390 -1.5008
 4055TIP3    H233657   2.912   3.103  11.756  0.8348  0.0697  0.0261
 4056TIP3   OH233658   1.625   2.694  10.240  0.5614 -0.0587  0.0528
 4056TIP3    H133659   1.593   2.604  10.232 -0.6025  0.4261 -1.1831
 4056TIP3    H233660   1.551   2.742  10.277  1.6420  0.1755  2.0879
 4057TIP3   OH233661   1.543   2.310   4.953 -0.3997 -0.3261  0.3094
 4057TIP3    H133662   1.635   2.315   4.929 -0.6765  1.3151 -0.5636
 4057TIP3    H233663   1.508   2.398   4.936 -1.9946 -0.7353  1.1807
 4058TIP3   OH233664   3.289   2.993  17.475 -0.4143 -0.4467  0.2450
 4058TIP3    H133665   3.368   2.984  17.528 -1.0544  0.9449  1.5192
 4058TIP3    H233666   3.318   2.981  17.385  1.0467 -0.9998  0.7663
 4059TIP3   OH233667   2.606   3.312  63.827  0.1002  0.2552 -0.4695
 4059TIP3    H133668   2.570   3.259  63.757  2.4118  0.8997 -2.2785
 4059TIP3    H233669   2.579   3.268  63.908 -0.1475 -2.2383 -1.8319
 4060TIP3   OH233670   1.064   1.332  58.744 -0.1718  0.4735 -0.6441
 4060TIP3    H133671   0.978   1.336  58.703 -0.4816 -0.8637 -0.1805
 4060TIP3    H233672   1.126   1.342  58.672 -0.7046  0.9278 -1.0432
 4061TIP3   OH233673   2.037   0.478   6.638  0.0964 -0.0149  0.0312
 4061TIP3    H133674   2.028   0.474   6.733  2.7377 -0.6270  0.3384
 4061TIP3    H233675   2.010   0.391   6.608  1.8116 -0.7723  0.5585
 4062TIP3   OH233676   1.406   2.595  48.468  0.3801  0.2709  0.1305
 4062TIP3    H133677   1.418   2.596  48.373 -2.0057 -0.6911 -0.2532
 4062TIP3    H233678   1.465   2.525  48.498  0.5421  0.0076 -0.7550
 4063TIP3   OH233679   2.561   0.128  59.843 -0.4754 -0.5003 -0.1188
 4063TIP3    H133680   2.513   0.059  59.797 -0.5200 -0.6840  0.1940
 4063TIP3    H233681   2.648   0.127  59.803 -0.5206 -0.6418 -0.2147
 4064TIP3   OH233682   3.431   2.230  53.915  0.2049  0.0258 -0.5441
 4064TIP3    H133683   3.393   2.154  53.959 -2.3106  1.7192  0.4239
 4064TIP3    H233684   3.447   2.200  53.825  1.7336 -2.3359  0.4117
 4065TIP3   OH233685   0.468   3.008  58.903 -0.5027 -0.0282  0.0252
 4065TIP3    H133686   0.490   2.996  58.811  0.2640 -1.0019  0.3120
 4065TIP3    H233687   0.384   2.965  58.914 -0.9013  0.6482 -0.3494
 4066TIP3   OH233688   2.512   2.876  17.711 -0.2095 -0.4460  0.3592
 4066TIP3    H133689   2.546   2.902  17.796 -1.6088  2.4517  0.1450
 4066TIP3    H233690   2.588   2.880  17.653  0.2407  0.0618  0.9758
 4067TIP3   OH233691   0.304   1.696  59.041  0.3927 -0.4479 -0.2692
 4067TIP3    H133692   0.353   1.770  59.004 -1.7066  1.5435  0.7279
 4067TIP3    H233693   0.308   1.709  59.135 -1.1580 -0.8521 -0.1309
 4068TIP3   OH233694   3.285   0.706   6.017 -0.2887 -0.6002  0.3775
 4068TIP3    H133695   3.234   0.650   5.959 -1.5655 -0.9175  1.7680
 4068TIP3    H233696   3.221   0.765   6.057  0.6952  0.2494  0.7442
 4069TIP3   OH233697   2.536   3.212  58.820  0.0587 -0.1846 -0.1641
 4069TIP3    H133698   2.601   3.159  58.774  1.0731  1.0455 -0.2124
 4069TIP3    H233699   2.579   3.297  58.833 -1.4066  0.5477  0.1370
 4070TIP3   OH233700   2.324   1.275  44.225 -0.3742 -0.0783  0.2989
 4070TIP3    H133701   2.417   1.260  44.242  0.6707  1.1944 -3.4045
 4070TIP3    H233702   2.302   1.215  44.153 -2.7202 -0.9203  1.5995
 4071TIP3   OH233703   3.257   2.535  59.772 -0.4037  0.0243 -0.0040
 4071TIP3    H133704   3.288   2.624  59.755 -0.6574  0.1447  0.1661
 4071TIP3    H233705   3.266   2.490  59.688  0.1980  0.0657  0.0283
 4072TIP3   OH233706   0.286   1.004   6.236  0.5341 -0.0730 -0.4924
 4072TIP3    H133707   0.193   1.013   6.214  0.6907 -0.1344 -1.2068
 4072TIP3    H233708   0.325   0.962   6.159  0.9305 -1.2060  0.3063
 4073TIP3   OH233709   1.477   1.929  67.200 -0.3160 -0.2074  0.2619
 4073TIP3    H133710   1.520   2.007  67.163 -1.0156 -0.1589 -0.4706
 4073TIP3    H233711   1.473   1.867  67.128  0.8913 -1.2319  1.0190
 4074TIP3   OH233712   1.630   0.011  58.369  0.2512 -0.2450 -0.2815
 4074TIP3    H133713   1.568  -0.047  58.414 -3.2791  2.4464 -1.1856
 4074TIP3    H233714   1.584   0.036  58.289  3.6827  0.0491 -2.3305
 4075TIP3   OH233715   0.187   0.133  47.710 -0.1900  0.2101 -0.0137
 4075TIP3    H133716   0.169   0.081  47.788 -0.5966  1.3785  0.6956
 4075TIP3    H233717   0.123   0.103  47.646 -0.6707  0.1057  0.5102
 4076TIP3   OH233718   1.627   2.416  15.114  0.2017  0.0290  0.3453
 4076TIP3    H133719   1.559   2.454  15.171  0.2040  2.0660 -0.9484
 4076TIP3    H233720   1.686   2.372  15.175 -1.9190 -1.3235  1.5721
 4077TIP3   OH233721   1.150   1.785   0.548 -0.5813  0.1488  0.5247
 4077TIP3    H133722   1.142   1.768   0.642 -1.1215 -1.2007  0.2577
 4077TIP3    H233723   1.112   1.708   0.506 -2.8989  1.8721 -0.8301
 4078TIP3   OH233724   0.662   0.352  44.975  0.0696 -0.3770 -0.1842
 4078TIP3    H133725   0.609   0.354  44.896  2.5582  0.8156 -1.9645
 4078TIP3    H233726   0.742   0.306  44.950  1.5388  1.2841  1.1511
 4079TIP3   OH233727   2.496   2.234  42.931  0.3521  0.4058 -0.2137
 4079TIP3    H133728   2.413   2.265  42.966 -0.0949 -0.9920  0.0281
 4079TIP3    H233729   2.562   2.290  42.974 -0.2779 -0.3394  1.8674
 4080TIP3   OH233730   1.856   1.064  22.841 -0.1471 -0.2809  0.0259
 4080TIP3    H133731   1.805   1.073  22.760  1.3127  2.2933 -0.7463
 4080TIP3    H233732   1.794   1.030  22.905 -2.5078  1.4273 -1.1659
 4081TIP3   OH233733   3.290   2.417  65.663 -0.1251 -0.4686  0.0656
 4081TIP3    H133734   3.327   2.378  65.584  0.0759 -1.2556  0.5352
 4081TIP3    H233735   3.201   2.381  65.667 -0.0868 -0.5408  0.2714
 4082TIP3   OH233736   1.791   2.771   2.608  0.2204  0.4043 -0.1542
 4082TIP3    H133737   1.837   2.850   2.637 -0.8441  0.7771  0.5908
 4082TIP3    H233738   1.760   2.792   2.520  0.8750  0.4065 -0.3863
 4083TIP3   OH233739   1.303   2.462   8.627 -0.4598  0.2929  0.1501
 4083TIP3    H133740   1.264   2.407   8.559  0.6745 -0.1661 -0.1546
 4083TIP3    H233741   1.364   2.518   8.579 -0.8759  1.1393  0.5914
 4084TIP3   OH233742   1.684   1.109  15.631  0.2580 -0.2279 -0.1765
 4084TIP3    H133743   1.713   1.098  15.722  1.0650 -1.0396 -0.5198
 4084TIP3    H233744   1.754   1.159  15.590 -0.6503  1.1806 -0.0888
 4085TIP3   OH233745   1.587   3.306  64.926  0.7006 -0.1526  0.5888
 4085TIP3    H133746   1.535   3.351  64.993 -1.5752 -1.2307 -0.3638
 4085TIP3    H233747   1.523   3.265  64.869  2.6131 -0.7795 -1.2421
 4086TIP3   OH233748   1.746   0.953  63.451  0.3388  0.1945 -0.6098
 4086TIP3    H133749   1.713   1.041  63.468  1.1771  0.2792  0.7355
 4086TIP3    H233750   1.694   0.922  63.377  1.4250  2.5851 -2.5019
 4087TIP3   OH233751   0.404   0.763  52.141  0.0464 -0.0603 -0.3657
 4087TIP3    H133752   0.425   0.775  52.049 -1.3157  0.5337 -0.6287
 4087TIP3    H233753   0.310   0.780  52.147 -0.2842 -1.9805  0.8154
 4088TIP3   OH233754   0.066   3.415   4.196 -0.2300  0.2794 -0.5588
 4088TIP3    H133755   0.153   3.429   4.234 -0.3279 -0.7849  0.0924
 4088TIP3    H233756   0.006   3.460   4.257 -0.2440 -0.1015 -0.2850
 4089TIP3   OH233757   0.440   2.370  53.881 -0.1199  0.3098 -0.3986
 4089TIP3    H133758   0.422   2.438  53.816  0.7547 -0.9348 -1.9952
 4089TIP3    H233759   0.406   2.290  53.842  1.5863 -0.6879  0.0635
 4090TIP3   OH233760   3.220   1.056   5.036  0.2166  0.2886 -0.5791
 4090TIP3    H133761   3.161   1.034   4.963  1.3551  0.4130 -1.5530
 4090TIP3    H233762   3.205   0.986   5.099 -1.7877  0.9004 -0.2903
 4091TIP3   OH233763   0.431   2.371  17.279  0.8292 -0.0744  0.1879
 4091TIP3    H133764   0.345   2.390  17.244  0.0465 -0.0362  2.0229
 4091TIP3    H233765   0.469   2.457  17.299  1.2704 -0.0956 -0.5078
 4092TIP3   OH233766   1.415   0.555  11.718  0.5091  0.1582  0.3709
 4092TIP3    H133767   1.345   0.538  11.780  0.6581 -1.4945  0.1227
 4092TIP3    H233768   1.475   0.613  11.764  0.1323 -0.2693  1.4184
 4093TIP3   OH233769   3.388   2.897   3.994 -0.8643  0.5793  0.0659
 4093TIP3    H133770   3.355   2.928   4.078 -0.9368 -0.2534  0.3459
 4093TIP3    H233771   3.478   2.928   3.991 -1.3755  2.1106 -0.3238
 4094TIP3   OH233772   2.181   1.374  20.332  0.3867  0.4398 -0.4553
 4094TIP3    H133773   2.254   1.382  20.271  0.8370  2.9897  0.3028
 4094TIP3    H233774   2.104   1.395  20.279  0.4603  0.0651 -0.7170
 4095TIP3   OH233775   2.510   0.264  55.247  0.2084  0.1841 -0.2556
 4095TIP3    H133776   2.443   0.204  55.214  1.8819 -0.9721 -1.7811
 4095TIP3    H233777   2.554   0.216  55.317  1.1199 -0.1592 -1.0369
 4096TIP3   OH233778   0.833   1.530   5.545  0.3831 -0.0331 -0.1459
 4096TIP3    H133779   0.873   1.539   5.631 -0.7996 -0.2603  0.4499
 4096TIP3    H233780   0.791   1.615   5.529  2.0506  0.6317 -1.2985
 4097TIP3   OH233781   0.727   3.402  17.829 -0.3076  0.0931 -0.2696
 4097TIP3    H133782   0.743   3.358  17.912 -1.1338  1.4769  0.6563
 4097TIP3    H233783   0.815   3.418  17.793  0.0545 -0.4495  0.3673
 4098TIP3   OH233784   2.570   1.790   5.355 -0.3886 -0.2881 -0.3460
 4098TIP3    H133785   2.480   1.767   5.380 -0.4220  0.7186  0.5696
 4098TIP3    H233786   2.589   1.868   5.408  0.8851 -0.2631 -0.8265
 4099TIP3   OH233787   2.725   3.357  11.756 -0.3333  0.4320 -0.1674
 4099TIP3    H133788   2.649   3.324  11.708 -1.2128 -0.0681  1.4738
 4099TIP3    H233789   2.692   3.433  11.804 -0.2405 -0.6106  1.6661
 4100TIP3   OH233790   1.080   1.919  48.068  0.0233  0.3958  0.6253
 4100TIP3    H133791   1.113   1.980  48.134 -0.4683  1.7744 -0.3469
 4100TIP3    H233792   1.008   1.874  48.112 -1.2339  2.2987  0.6517
 4101TIP3   OH233793   1.567   1.338  10.702 -0.4511  0.4626  0.0531
 4101TIP3    H133794   1.597   1.391  10.628  0.4300 -0.3940 -0.2188
 4101TIP3    H233795   1.471   1.343  10.698 -0.3842  2.0366  0.0559
 4102TIP3   OH233796   0.175   2.805   7.574 -0.0611  0.2798 -0.2966
 4102TIP3    H133797   0.229   2.878   7.544  0.5035 -0.5578 -1.3705
 4102TIP3    H233798   0.087   2.827   7.545  0.0263  0.7446 -0.2152
 4103TIP3   OH233799   1.522   0.757  11.184 -0.3188 -0.3863 -0.7137
 4103TIP3    H133800   1.513   0.849  11.209  0.0427 -0.7576  0.8869
 4103TIP3    H233801   1.612   0.749  11.154  0.1872 -0.5473  0.7621
 4104TIP3   OH233802   2.127   0.019  27.420 -0.1984 -0.2630 -0.1736
 4104TIP3    H133803   2.068   0.094  27.413  0.3045  0.1146 -0.4244
 4104TIP3    H233804   2.171   0.015  27.335 -1.5029 -1.9280 -0.8085
 4105TIP3   OH233805   2.334   3.337  50.499 -0.2061 -0.1051 -0.2024
 4105TIP3    H133806   2.242   3.311  50.501  0.0479 -0.9873  0.6745
 4105TIP3    H233807   2.360   3.326  50.408 -1.3233  1.5222 -0.7907
 4106TIP3   OH233808   2.333   1.943  53.727  0.2271 -0.4296  0.3566
 4106TIP3    H133809   2.302   1.909  53.643 -0.4622  0.1232  0.3768
 4106TIP3    H233810   2.400   1.881  53.755  1.2060 -0.0945 -1.0922
 4107TIP3   OH233811   1.226   2.919  55.605  0.0881 -0.0585  0.6895
 4107TIP3    H133812   1.222   2.919  55.701  0.6702  1.8493  0.7737
 4107TIP3    H233813   1.235   3.012  55.582  0.3455 -0.5089 -1.1972
 4108TIP3   OH233814   3.316   0.670  59.046 -0.1511 -0.0725  0.1037
 4108TIP3    H133815   3.312   0.762  59.017 -0.3480 -0.6124 -1.6940
 4108TIP3    H233816   3.226   0.639  59.042 -0.2803 -0.0443  1.9043
 4109TIP3   OH233817   2.390   2.574  18.037  0.8595  0.4930 -0.2490
 4109TIP3    H133818   2.478   2.565  18.001  0.1280 -0.3341 -1.9110
 4109TIP3    H233819   2.332   2.542  17.968 -0.6640 -0.5031  1.3952
 4110TIP3   OH233820   0.724   0.189  56.777  0.0476 -0.2573 -0.0429
 4110TIP3    H133821   0.786   0.136  56.727  1.3590 -0.5643  1.8142
 4110TIP3    H233822   0.768   0.273  56.788  0.3593 -0.6247  1.6701
 4111TIP3   OH233823   0.470   3.276  34.568  0.8350  0.1852 -0.1191
 4111TIP3    H133824   0.468   3.181  34.556 -0.4288  0.3372 -1.4552
 4111TIP3    H233825   0.467   3.311  34.479 -1.3219  1.4503  0.3610
 4112TIP3   OH233826   2.449   2.072  44.434 -0.0068 -0.3475  0.2930
 4112TIP3    H133827   2.387   2.090  44.505  0.9649 -0.8006  1.2927
 4112TIP3    H233828   2.508   2.147  44.435 -0.9322  0.4515 -1.1499
 4113TIP3   OH233829   2.424   2.965  28.087  0.5714  0.2132 -0.3337
 4113TIP3    H133830   2.354   2.953  28.023  0.6943 -2.4508 -0.0558
 4113TIP3    H233831   2.503   2.936  28.042  1.2771  1.6683 -0.0975
 4114TIP3   OH233832   2.276   1.665   0.564 -0.0385  0.5565 -0.2724
 4114TIP3    H133833   2.277   1.713   0.481 -1.3566 -0.7048 -1.0762
 4114TIP3    H233834   2.183   1.662   0.588  0.1562 -0.4664  0.3999
 4115TIP3   OH233835   3.320   2.731  43.406  0.6348 -0.2184 -0.5778
 4115TIP3    H133836   3.347   2.776  43.486 -0.6711 -0.8110  0.2300
 4115TIP3    H233837   3.342   2.639  43.422 -0.3134 -0.4528 -0.5745
 4116TIP3   OH233838   3.439   0.003   0.744 -0.0851 -0.0512  0.5951
 4116TIP3    H133839   3.439   0.022   0.650 -0.9200  1.9129  0.9443
 4116TIP3    H233840   3.447  -0.093   0.749  0.9306 -0.1375 -1.4272
 4117TIP3   OH233841   0.240   0.436  45.920  0.1044 -1.1076 -0.6950
 4117TIP3    H133842   0.214   0.497  45.990 -0.5031  0.9399 -2.5779
 4117TIP3    H233843   0.305   0.379  45.961  0.2054  0.3615  1.3720
 4118TIP3   OH233844   0.542   3.257  59.499 -0.3478  0.1002 -0.0374
 4118TIP3    H133845   0.589   3.325  59.452 -0.4510  2.5877  3.1832
 4118TIP3    H233846   0.453   3.261  59.463 -0.9164  3.2196  1.4565
 4119TIP3   OH233847   2.499   0.517  46.049 -0.4495  0.3368  0.0375
 4119TIP3    H133848   2.536   0.532  45.962 -0.7188 -1.1009 -0.3529
 4119TIP3    H233849   2.574   0.520  46.108 -0.1538  0.5539 -0.3472
 4120TIP3   OH233850   0.611   2.946  64.459 -0.1756  0.3986 -0.0570
 4120TIP3    H133851   0.645   2.857  64.454  0.3768  0.5136  1.1969
 4120TIP3    H233852   0.659   2.995  64.392  1.2536  0.2687  0.8429
 4121TIP3   OH233853   0.230   1.891  16.833  0.0667 -0.8557 -0.1946
 4121TIP3    H133854   0.306   1.943  16.809 -1.1215  1.4273  0.7487
 4121TIP3    H233855   0.187   1.871  16.750 -1.7333  3.3724 -0.4886
 4122TIP3   OH233856   2.880   0.428  21.418  0.8131  0.7007  0.1259
 4122TIP3    H133857   2.795   0.465  21.393  0.0237 -0.1105  1.4712
 4122TIP3    H233858   2.936   0.443  21.342 -0.6662  0.8277 -0.9874
 4123TIP3   OH233859   2.524   2.178  42.113 -0.1635  0.4659  0.4845
 4123TIP3    H133860   2.543   2.098  42.162 -1.2047  0.7082  1.3337
 4123TIP3    H233861   2.605   2.228  42.116  0.0220  0.1315  1.3384
 4124TIP3   OH233862   1.296   0.355  35.692 -0.4162  0.1302  0.1047
 4124TIP3    H133863   1.383   0.339  35.654 -0.7496 -0.8515 -0.2526
 4124TIP3    H233864   1.235   0.329  35.624 -1.0038  0.0828  0.6431
 4125TIP3   OH233865   2.715   2.575  67.298  0.2878 -0.5488  0.2753
 4125TIP3    H133866   2.686   2.495  67.253  0.2513  0.2372 -1.1609
 4125TIP3    H233867   2.684   2.564  67.388  0.4181 -2.2112  0.1588
 4126TIP3   OH233868   1.528   2.351  11.347  0.2632 -0.1965 -0.3682
 4126TIP3    H133869   1.451   2.342  11.403 -1.2955  1.1532 -2.1665
 4126TIP3    H233870   1.508   2.425  11.289  3.4800  1.1231 -0.0625
 4127TIP3   OH233871   2.792   0.877  28.524  0.1104 -0.2834  0.4225
 4127TIP3    H133872   2.760   0.791  28.496  0.8530 -0.2078 -0.7353
 4127TIP3    H233873   2.816   0.865  28.616 -1.6601 -0.7593  0.8601
 4128TIP3   OH233874   1.118   2.077  13.618 -0.0245 -0.1806 -0.2050
 4128TIP3    H133875   1.189   2.015  13.598 -0.9372 -0.6711 -2.1477
 4128TIP3    H233876   1.038   2.031  13.592 -0.8663  1.2275 -0.1970
 4129TIP3   OH233877   3.386   0.834  11.864  0.3765  0.0205 -0.0698
 4129TIP3    H133878   3.476   0.806  11.880  0.2080 -0.5989 -0.1609
 4129TIP3    H233879   3.394   0.919  11.820  1.0036 -1.0998 -2.2910
 4130TIP3   OH233880   1.221   1.840  43.072 -0.1430 -0.5654 -0.2446
 4130TIP3    H133881   1.313   1.826  43.046 -0.2149 -1.7193  0.0563
 4130TIP3    H233882   1.206   1.934  43.058  1.4791 -0.0857  0.9988
 4131TIP3   OH233883   2.686   0.866  53.557 -0.0737  0.7221 -0.0176
 4131TIP3    H133884   2.743   0.794  53.582  1.1118  1.8585  0.7253
 4131TIP3    H233885   2.746   0.931  53.520 -0.9620  1.7176  0.2490
 4132TIP3   OH233886   2.375   0.684  19.240  0.6127 -0.2665  0.7815
 4132TIP3    H133887   2.340   0.615  19.184  1.7080 -1.7718  1.8773
 4132TIP3    H233888   2.401   0.753  19.179 -0.0974 -0.9885 -0.3781
 4133TIP3   OH233889   2.766   1.987  49.503 -0.0715  0.2268 -0.3613
 4133TIP3    H133890   2.850   2.001  49.459 -0.3742 -0.6767 -1.2361
 4133TIP3    H233891   2.726   2.074  49.506  1.4220  0.9344  1.2152
 4134TIP3   OH233892   0.263   0.962  65.573 -0.3638  0.6564 -0.2255
 4134TIP3    H133893   0.208   0.930  65.502 -0.6541 -0.1876  0.3798
 4134TIP3    H233894   0.324   0.891  65.590 -0.9299  0.4484  1.0316
 4135TIP3   OH233895   1.630   0.252  57.218  0.0467  0.9919 -0.3071
 4135TIP3    H133896   1.544   0.293  57.228 -0.2046  0.3613  0.2356
 4135TIP3    H233897   1.620   0.166  57.260  0.8986  0.8572 -0.3698
 4136TIP3   OH233898   2.449   1.766   9.098 -0.2138  0.6189 -0.4106
 4136TIP3    H133899   2.466   1.736   9.187  1.9492  0.8657 -0.6693
 4136TIP3    H233900   2.354   1.766   9.090 -0.4271 -0.9786  1.3476
 4137TIP3   OH233901   0.628   1.012  57.949  0.9682 -0.1251 -0.3832
 4137TIP3    H133902   0.613   1.095  57.903  1.1892 -0.2531 -0.6886
 4137TIP3    H233903   0.605   1.031  58.040  0.7900  0.2051 -0.4952
 4138TIP3   OH233904   3.418   0.478  15.015 -0.6613 -0.0687  0.3753
 4138TIP3    H133905   3.501   0.434  15.000 -1.1489 -0.4573 -1.4642
 4138TIP3    H233906   3.439   0.572  15.009 -0.5523 -0.1606 -1.7857
 4139TIP3   OH233907   2.372   2.222   3.096 -0.2570  0.2124  0.1512
 4139TIP3    H133908   2.384   2.130   3.121  1.3860  0.7944  1.7654
 4139TIP3    H233909   2.421   2.231   3.014  0.1352 -0.2268  0.3299
 4140TIP3   OH233910   1.258   2.220  36.431 -0.0623 -0.9516  0.0579
 4140TIP3    H133911   1.274   2.268  36.512 -2.8390 -1.0420  0.7775
 4140TIP3    H233912   1.163   2.226  36.418  0.3314 -0.3785 -3.5858
 4141TIP3   OH233913   1.644   1.482  60.071 -0.2038 -0.7349  0.4243
 4141TIP3    H133914   1.625   1.401  60.022  0.8032 -1.3401  1.0099
 4141TIP3    H233915   1.739   1.494  60.062 -0.2797  0.1490  0.7121
 4142TIP3   OH233916   2.472   0.058  14.926  0.6631  0.1343 -0.2964
 4142TIP3    H133917   2.430   0.055  15.011 -1.2178  0.9842 -1.1391
 4142TIP3    H233918   2.531   0.133  14.931  2.0575 -0.9870  0.8577
 4143TIP3   OH233919   2.891   2.884  64.385  0.3667 -0.3540  0.0568
 4143TIP3    H133920   2.840   2.964  64.372  0.0175 -0.4321  0.8772
 4143TIP3    H233921   2.830   2.824  64.428  1.0524 -0.5637  0.7487
 4144TIP3   OH233922   2.660   2.282  11.695  0.2786  0.2588 -0.3465
 4144TIP3    H133923   2.675   2.375  11.676 -0.9453  0.4057 -0.6668
 4144TIP3    H233924   2.716   2.236  11.633 -1.5981  0.7680 -2.5451
 4145TIP3   OH233925   3.255   0.425  57.534  0.0840  0.6616  0.0062
 4145TIP3    H133926   3.207   0.457  57.458  0.3146  1.6632  0.2654
 4145TIP3    H233927   3.335   0.387  57.497 -0.7628 -0.8215 -0.4074
 4146TIP3   OH233928   2.365   3.061  60.126 -0.3148  0.0167  0.4500
 4146TIP3    H133929   2.358   3.153  60.151 -0.9670  0.1293 -0.1099
 4146TIP3    H233930   2.276   3.027  60.137 -0.2357 -0.3575 -0.0498
 4147TIP3   OH233931   1.848   1.850  13.306  0.1479  0.3280  0.2764
 4147TIP3    H133932   1.796   1.922  13.271  0.3321  1.0452  1.4522
 4147TIP3    H233933   1.931   1.854  13.258  0.6136  1.6572  1.1550
 4148TIP3   OH233934   0.161   0.861  52.165 -0.0495  0.5632 -0.7600
 4148TIP3    H133935   0.154   0.956  52.160  0.5689  0.9016  2.5663
 4148TIP3    H233936   0.085   0.834  52.216  1.1108 -0.3930  0.5258
 4149TIP3   OH233937   2.954   3.363  62.642 -0.1193  0.0255 -0.7217
 4149TIP3    H133938   3.009   3.285  62.651 -0.4161 -0.1760 -0.6294
 4149TIP3    H233939   2.979   3.400  62.558  0.9051  0.5227 -0.2235
 4150TIP3   OH233940   0.193   2.029   2.071  0.0189  0.7892 -0.0729
 4150TIP3    H133941   0.277   2.010   2.029 -0.3600  0.0726 -0.5223
 4150TIP3    H233942   0.144   2.077   2.004  0.5769  2.5244  0.6857
 4151TIP3   OH233943   2.003   2.409  47.845 -0.6738 -0.4314 -0.5955
 4151TIP3    H133944   2.071   2.477  47.841  0.9382 -1.8974  0.4912
 4151TIP3    H233945   1.946   2.429  47.771  1.5614  0.2802 -2.2606
 4152TIP3   OH233946   0.423   2.269  17.705 -0.9171 -0.1685  0.1536
 4152TIP3    H133947   0.364   2.281  17.780 -2.0395 -1.4788 -0.4816
 4152TIP3    H233948   0.409   2.179  17.678  1.0854 -0.3859 -0.3126
 4153TIP3   OH233949   0.657   1.265  51.989 -0.0597  0.5024  0.0140
 4153TIP3    H133950   0.711   1.341  52.007  2.8667 -1.5782  0.8400
 4153TIP3    H233951   0.707   1.214  51.925 -0.5836 -1.8834  1.3664
 4154TIP3   OH233952   2.281   2.538  19.364  0.1141  0.4978  0.1531
 4154TIP3    H133953   2.240   2.524  19.279  1.6760 -0.1414 -0.5492
 4154TIP3    H233954   2.217   2.508  19.428 -0.4470 -0.5844 -0.8878
 4155TIP3   OH233955   2.982   3.254  12.746 -0.2895  0.5107 -0.2261
 4155TIP3    H133956   3.046   3.195  12.786 -1.2305 -0.4796 -0.1366
 4155TIP3    H233957   3.029   3.298  12.676  0.4740 -0.2387 -0.1902
 4156TIP3   OH233958   1.703   0.427   7.413 -0.1761  1.2472  0.5068
 4156TIP3    H133959   1.664   0.419   7.501  1.2828  0.3489  1.1045
 4156TIP3    H233960   1.791   0.460   7.429  0.8894 -0.9776 -0.3982
 4157TIP3   OH233961   0.271   2.272  46.685  0.1973  0.6264 -0.9420
 4157TIP3    H133962   0.190   2.315  46.711  0.4520  0.4777  0.1377
 4157TIP3    H233963   0.250   2.231  46.601 -1.5523 -1.2641  0.2950
 4158TIP3   OH233964   2.830   2.186  65.078  0.4521  0.7955 -0.0201
 4158TIP3    H133965   2.873   2.263  65.041  2.3928 -0.4806 -0.6011
 4158TIP3    H233966   2.827   2.123  65.006  1.6689 -0.7165  1.1646
 4159TIP3   OH233967   1.356   2.261  16.248 -0.0682 -0.1875  0.1626
 4159TIP3    H133968   1.326   2.171  16.234 -0.7125  0.3141 -2.0240
 4159TIP3    H233969   1.451   2.256  16.239  0.1553 -0.9884  2.3743
 4160TIP3   OH233970   1.244   0.832  58.021 -0.4914  0.7828 -0.2254
 4160TIP3    H133971   1.286   0.884  57.953  3.0075 -0.3300  0.8989
 4160TIP3    H233972   1.211   0.754  57.975  3.4180 -0.8470 -0.6027
 4161TIP3   OH233973   2.003   0.143   9.000 -0.7129 -0.4616  0.1848
 4161TIP3    H133974   2.027   0.074   9.063 -0.9002 -0.9048 -0.2268
 4161TIP3    H233975   1.993   0.221   9.054  1.9384 -0.1672  0.3771
 4162TIP3   OH233976   3.206   2.986   6.565 -0.4337 -0.8193 -0.3128
 4162TIP3    H133977   3.296   2.957   6.582 -0.0900 -0.2062 -1.0543
 4162TIP3    H233978   3.187   3.048   6.636  0.3401  0.3272 -1.0703
 4163TIP3   OH233979   0.777   2.471   5.514 -0.2036  0.1552 -0.7620
 4163TIP3    H133980   0.749   2.558   5.542 -1.6139 -0.7536  0.8770
 4163TIP3    H233981   0.695   2.421   5.506  0.6164 -1.2163 -0.9217
 4164TIP3   OH233982   2.222   0.826  43.647  0.1021 -0.6070 -0.8126
 4164TIP3    H133983   2.176   0.802  43.567  1.2547  3.2670 -2.8877
 4164TIP3    H233984   2.311   0.794  43.634 -0.2940 -2.2304  0.1851
 4165TIP3   OH233985   2.347   3.011  60.781  0.2477 -0.2552 -0.2550
 4165TIP3    H133986   2.423   3.056  60.745  0.2285  0.3643  0.4432
 4165TIP3    H233987   2.293   3.081  60.819 -1.3423 -0.5103 -1.8712
 4166TIP3   OH233988   0.348   2.814   8.209  0.1121 -0.8195  0.0269
 4166TIP3    H133989   0.429   2.764   8.221  1.0030  0.5084 -0.2378
 4166TIP3    H233990   0.338   2.821   8.114  0.8433  0.7859  0.0440
 4167TIP3   OH233991   1.408   0.740  63.677  0.0267  0.1148 -0.3232
 4167TIP3    H133992   1.392   0.715  63.586 -0.9714  0.3517 -0.2257
 4167TIP3    H233993   1.330   0.711  63.724  1.0327 -1.1183  0.6949
 4168TIP3   OH233994   3.157   1.097  19.810  0.0883 -0.0156  0.9915
 4168TIP3    H133995   3.208   1.037  19.864 -0.1028 -0.1615  1.0109
 4168TIP3    H233996   3.072   1.055  19.801  0.3451 -0.3537 -0.0262
 4169TIP3   OH233997   1.630   0.581  64.694  0.0369  0.0076 -0.0014
 4169TIP3    H133998   1.631   0.600  64.788  1.1184  1.7271 -0.3238
 4169TIP3    H233999   1.577   0.502  64.686 -0.8363  0.3537  1.9491
 4170TIP3   OH234000   0.850   2.438  60.330 -0.5380 -0.4370 -0.1708
 4170TIP3    H134001   0.872   2.368  60.391  0.6045  0.2718  0.2513
 4170TIP3    H234002   0.830   2.513  60.385 -0.3978 -0.0402 -0.6512
 4171TIP3   OH234003   2.273   2.321  65.997  0.0250 -0.3526  0.0037
 4171TIP3    H134004   2.212   2.247  65.995 -0.2844 -0.1590  1.1746
 4171TIP3    H234005   2.228   2.387  66.051  1.5507 -0.4810  1.5393
 4172TIP3   OH234006   2.276   3.284  46.371 -0.1531  0.1141 -0.4521
 4172TIP3    H134007   2.279   3.232  46.451 -1.4746  1.5873  0.6196
 4172TIP3    H234008   2.368   3.308  46.354  0.1042  0.1709  0.9053
 4173TIP3   OH234009   2.129   0.587  10.257  0.1334 -0.1501  0.1086
 4173TIP3    H134010   2.041   0.568  10.226 -0.3185 -1.4712  2.0406
 4173TIP3    H234011   2.181   0.597  10.177 -1.2610 -1.8584 -1.0759
 4174TIP3   OH234012   0.303   3.224  51.088  0.3632  0.1238 -0.3677
 4174TIP3    H134013   0.393   3.242  51.113  0.0541  0.3553  0.6077
 4174TIP3    H234014   0.280   3.295  51.028  1.4098 -0.9446 -2.1130
 4175TIP3   OH234015   0.463   2.027  60.046  0.3408 -0.0083 -0.2993
 4175TIP3    H134016   0.523   1.955  60.031  1.3239  0.9430 -1.0587
 4175TIP3    H234017   0.388   1.987  60.091  0.7985 -1.5068 -0.8228
 4176TIP3   OH234018   1.681   2.184  19.136  0.3169  0.2086  0.2897
 4176TIP3    H134019   1.775   2.183  19.118  0.1695 -0.5372 -0.5269
 4176TIP3    H234020   1.675   2.194  19.231  1.2263 -0.0447  0.3897
 4177TIP3   OH234021   1.567   0.983   8.493  0.1744 -0.1620 -0.3408
 4177TIP3    H134022   1.509   1.057   8.477 -0.1408 -0.4377 -0.4934
 4177TIP3    H234023   1.617   0.973   8.411  0.6576  0.2660 -0.1020
 4178TIP3   OH234024   0.832   2.519  44.992 -0.2365 -0.9427 -0.2535
 4178TIP3    H134025   0.900   2.470  45.039  0.7471 -0.1932 -0.8613
 4178TIP3    H234026   0.753   2.507  45.045  1.0378  0.7412  2.1941
 4179TIP3   OH234027   1.342   0.105   4.076  0.1119  0.4027 -0.3663
 4179TIP3    H134028   1.409   0.159   4.118 -0.0930  0.8610 -0.6200
 4179TIP3    H234029   1.373   0.092   3.987 -0.1705  0.6773 -0.5060
 4180TIP3   OH234030   2.938   0.083   9.411 -0.4973  0.0988  0.3304
 4180TIP3    H134031   2.914   0.175   9.426 -2.3186 -0.3169  0.1223
 4180TIP3    H234032   2.859   0.033   9.431  0.7600 -1.5482  1.4130
 4181TIP3   OH234033   0.199   2.698  20.685  0.1371  0.7482  0.4715
 4181TIP3    H134034   0.144   2.754  20.631  1.0392  0.1250 -1.1585
 4181TIP3    H234035   0.273   2.753  20.709 -0.5895  1.2307  1.6868
 4182TIP3   OH234036   0.229   2.347  63.543 -0.0305 -0.3031 -0.1161
 4182TIP3    H134037   0.210   2.361  63.636  1.1489 -0.7794  0.2179
 4182TIP3    H234038   0.179   2.415  63.498  0.0124  0.4482  0.9287
 4183TIP3   OH234039   1.508   0.641  37.774  0.4080 -0.5343 -0.1723
 4183TIP3    H134040   1.423   0.682  37.763  0.6760  0.1500  0.2625
 4183TIP3    H234041   1.518   0.630  37.868  0.2066 -1.9065 -0.2819
 4184TIP3   OH234042   1.796   0.478  46.673 -0.3672  0.5649  0.1694
 4184TIP3    H134043   1.789   0.430  46.756  1.3598 -2.8588 -1.4579
 4184TIP3    H234044   1.795   0.409  46.606  0.4920  3.0053 -2.5306
 4185TIP3   OH234045   0.125   0.876  15.829 -0.4279  0.0721  0.8346
 4185TIP3    H134046   0.067   0.861  15.904 -1.7912 -0.1634 -0.2291
 4185TIP3    H234047   0.161   0.789  15.810  0.3503  0.2289  1.5338
 4186TIP3   OH234048   0.370   2.245  45.371 -0.9157  0.3586  0.0780
 4186TIP3    H134049   0.297   2.199  45.411  0.3855 -1.5401  0.4031
 4186TIP3    H234050   0.433   2.258  45.442  1.1965 -2.5869 -1.0393
 4187TIP3   OH234051   3.356   0.679   8.084  0.4305  0.3536  0.1911
 4187TIP3    H134052   3.423   0.632   8.133 -0.7354 -0.4027  1.1227
 4187TIP3    H234053   3.381   0.670   7.993  1.0395 -0.7981  0.4577
 4188TIP3   OH234054   3.165   1.421  18.100 -0.1941 -1.1110 -0.5289
 4188TIP3    H134055   3.162   1.372  18.182 -0.4669 -1.3094 -0.6577
 4188TIP3    H234056   3.189   1.510  18.126  0.0057 -1.2429 -0.2662
 4189TIP3   OH234057   1.463   0.618  60.292  0.2244  0.2196 -0.6117
 4189TIP3    H134058   1.379   0.573  60.291  0.4818 -0.2696 -1.8340
 4189TIP3    H234059   1.473   0.649  60.383 -0.8052 -0.5647 -0.2143
 4190TIP3   OH234060   1.182   0.459   2.511 -0.5270  0.3062 -0.6776
 4190TIP3    H134061   1.148   0.548   2.503 -1.2347 -0.0598 -1.9427
 4190TIP3    H234062   1.217   0.438   2.425  1.3122 -0.0066  0.0921
 4191TIP3   OH234063   2.768   2.273   7.604 -0.3190 -0.4967  0.5903
 4191TIP3    H134064   2.831   2.292   7.674  1.2858  1.0106 -1.1493
 4191TIP3    H234065   2.686   2.311   7.635  0.7643  1.7376  0.9762
 4192TIP3   OH234066   1.592   0.140  54.705 -0.4497  0.3887 -0.0487
 4192TIP3    H134067   1.642   0.192  54.769 -0.5436  0.3095  0.0883
 4192TIP3    H234068   1.511   0.119  54.750 -0.3045 -0.0937 -0.0112
 4193TIP3   OH234069   2.979   0.064  45.069  0.3657  0.2692 -0.2682
 4193TIP3    H134070   2.928   0.086  44.991  0.3646 -1.4545 -0.7969
 4193TIP3    H234071   3.030  -0.013  45.043  1.1834  0.3203  1.1023
 4194TIP3   OH234072   0.193   2.870  66.091 -0.1506  0.1818 -0.0571
 4194TIP3    H134073   0.196   2.789  66.040 -0.5017  0.8687 -1.1744
 4194TIP3    H234074   0.237   2.935  66.037 -1.3988  1.1584  0.0537
 4195TIP3   OH234075   2.783   3.283  65.225 -0.2965  0.2945 -0.1186
 4195TIP3    H134076   2.713   3.255  65.166  0.5331 -0.8527 -0.5970
 4195TIP3    H234077   2.841   3.207  65.231  2.7465  2.2136 -2.4440
 4196TIP3   OH234078   0.982   2.002  66.778  0.1259 -0.3996 -0.2942
 4196TIP3    H134079   0.971   2.034  66.868 -0.0832  0.3463 -0.5762
 4196TIP3    H234080   0.965   1.908  66.784  2.1084 -0.7448  0.7914
 4197TIP3   OH234081   0.457   2.450  59.825 -0.2902  0.3745 -0.3827
 4197TIP3    H134082   0.479   2.508  59.898  0.7040  1.0838 -1.2089
 4197TIP3    H234083   0.537   2.446  59.773 -1.5439  1.6220 -2.5715
 4198TIP3   OH234084   1.206   0.192  58.596  0.3205  0.0941  0.4194
 4198TIP3    H134085   1.263   0.169  58.522 -0.3956  0.1590 -0.1580
 4198TIP3    H234086   1.137   0.126  58.596  0.4111 -0.0158  1.1527
 4199TIP3   OH234087   2.931   0.749  61.406  0.5646  0.5239  0.2041
 4199TIP3    H134088   2.860   0.804  61.439  0.6941  0.7498  0.1131
 4199TIP3    H234089   2.958   0.697  61.481 -2.1402 -2.3051 -0.5403
 4200TIP3   OH234090   1.544   3.170  54.110 -0.1478 -0.1933 -0.1710
 4200TIP3    H134091   1.596   3.219  54.046  0.1367 -0.5992 -0.2590
 4200TIP3    H234092   1.562   3.078  54.089 -1.6818 -0.3688 -0.8505
 4201TIP3   OH234093   2.509   1.443  64.842  0.1124  0.1741 -0.6504
 4201TIP3    H134094   2.576   1.511  64.831 -0.8842  1.1574 -0.7931
 4201TIP3    H234095   2.475   1.428  64.753 -0.6990  0.5626 -0.4091
 4202TIP3   OH234096   1.268   0.653  18.557  0.1276 -0.5200  0.5057
 4202TIP3    H134097   1.282   0.743  18.585 -0.1177 -0.1378 -0.5511
 4202TIP3    H234098   1.337   0.603  18.600  0.4181  0.2080  0.8946
 4203TIP3   OH234099   3.164   2.293  44.683  0.5724  0.0398  0.3594
 4203TIP3    H134100   3.146   2.249  44.600  1.6926  0.9953 -0.4245
 4203TIP3    H234101   3.079   2.295  44.728 -0.0993 -0.3188 -0.8456
 4204TIP3   OH234102   1.386   1.264  55.545  0.2768  0.1507 -0.2399
 4204TIP3    H134103   1.413   1.222  55.462 -0.1514  0.9622 -0.7986
 4204TIP3    H234104   1.383   1.357  55.525  2.1385  0.5833  1.2476
 4205TIP3   OH234105   1.954   2.720  56.731 -0.1361  0.0705  0.1020
 4205TIP3    H134106   1.880   2.777  56.710 -1.0732  0.3090  3.3764
 4205TIP3    H234107   2.031   2.772  56.709 -0.9665  1.4083  0.2046
 4206TIP3   OH234108   0.186   2.742  53.563 -0.0974 -0.3993  0.2933
 4206TIP3    H134109   0.115   2.737  53.500 -0.7893  0.3374  0.9901
 4206TIP3    H234110   0.235   2.820  53.539 -1.3657  0.8756  1.6427
 4207TIP3   OH234111   1.826   2.220  66.888 -0.0898 -0.0665 -0.4964
 4207TIP3    H134112   1.763   2.220  66.817  1.2815 -1.0938 -1.7737
 4207TIP3    H234113   1.774   2.207  66.967 -1.5179 -0.3076 -1.4534
 4208TIP3   OH234114   2.404   1.644  20.766  0.0100 -0.3062  0.1885
 4208TIP3    H134115   2.438   1.632  20.678 -0.6375  0.9762 -0.2579
 4208TIP3    H234116   2.355   1.726  20.762  0.2026 -0.0780  1.8135
 4209TIP3   OH234117   2.786   1.336  57.245 -0.5433 -0.2412  0.3299
 4209TIP3    H134118   2.729   1.409  57.220 -0.0949  0.0854  0.2514
 4209TIP3    H234119   2.759   1.264  57.189 -0.8912 -0.0918  0.3031
 4210TIP3   OH234120   1.583   2.335  58.584  0.0502  0.2749 -0.1603
 4210TIP3    H134121   1.597   2.281  58.662  0.7990 -0.1721 -0.5947
 4210TIP3    H234122   1.653   2.309  58.524  0.4774  1.7838 -0.3509
 4211TIP3   OH234123   2.860   1.023  17.090 -0.0265 -0.1107 -0.5973
 4211TIP3    H134124   2.888   0.945  17.041  0.3284  1.0193 -2.2610
 4211TIP3    H234125   2.771   1.040  17.058  0.4102  0.9596 -1.2617
 4212TIP3   OH234126   2.283   3.351  17.366 -0.4468 -0.1297  0.5440
 4212TIP3    H134127   2.314   3.374  17.453  1.4310 -0.0478 -0.1049
 4212TIP3    H234128   2.188   3.366  17.369 -0.4923 -0.6263  2.6955
 4213TIP3   OH234129   0.468   0.541  58.454 -0.1922 -0.1945  0.0150
 4213TIP3    H134130   0.529   0.563  58.524 -1.7453  1.1422  1.0284
 4213TIP3    H234131   0.385   0.524  58.499 -1.1195  0.2500 -1.4413
 4214TIP3   OH234132   1.562   0.396  51.880  0.6786 -0.5346  0.5543
 4214TIP3    H134133   1.614   0.460  51.831  0.6967 -0.4293  0.7105
 4214TIP3    H234134   1.480   0.441  51.899  0.6149 -0.6262  0.4948
 4215TIP3   OH234135   1.037   1.334   3.529  0.3005 -0.2795  0.3253
 4215TIP3    H134136   1.118   1.350   3.479 -0.0416 -0.6345 -0.3501
 4215TIP3    H234137   1.061   1.265   3.591 -0.1589 -2.2791 -1.6278
 4216TIP3   OH234138   1.415   0.924  51.691 -0.9341 -0.0736 -0.3940
 4216TIP3    H134139   1.374   0.837  51.696 -0.4335 -0.2954 -0.0769
 4216TIP3    H234140   1.506   0.906  51.668 -0.9352  0.3997 -0.7919
 4217TIP3   OH234141   1.165   2.990   9.687 -0.3466  0.5775 -0.4522
 4217TIP3    H134142   1.118   2.929   9.743  0.4078 -0.2127 -0.6482
 4217TIP3    H234143   1.139   2.966   9.598  1.8830 -1.2438 -0.7171
 4218TIP3   OH234144   2.196   2.216  14.243  0.1015  0.1278  0.4087
 4218TIP3    H134145   2.288   2.237  14.260 -0.1131  0.2124  1.5230
 4218TIP3    H234146   2.160   2.296  14.205  0.2366  0.4568  0.9662
 4219TIP3   OH234147   2.406   0.209  18.948 -0.5926 -0.0496  0.3569
 4219TIP3    H134148   2.318   0.196  18.912 -0.3005 -1.1802 -0.0192
 4219TIP3    H234149   2.443   0.281  18.897 -0.2982 -1.4278 -1.4988
 4220TIP3   OH234150   3.105   2.957  42.616 -0.4010  0.6395 -0.1754
 4220TIP3    H134151   3.039   2.892  42.593  1.9757 -2.2112  0.5038
 4220TIP3    H234152   3.073   2.996  42.697 -0.9635 -1.1664  0.5116
 4221TIP3   OH234153   1.917   0.456  16.540  0.7745 -0.1007  0.0082
 4221TIP3    H134154   1.930   0.469  16.634 -0.7239  1.2493  0.0690
 4221TIP3    H234155   1.880   0.368  16.533 -1.0542  0.5490  0.9183
 4222TIP3   OH234156   1.112   0.176  13.899 -0.0597  0.0504 -0.2198
 4222TIP3    H134157   1.160   0.099  13.869  0.9072  0.5752 -0.0920
 4222TIP3    H234158   1.128   0.242  13.831  1.1851  0.8873  0.8117
 4223TIP3   OH234159   1.025   0.753   0.044  0.3974  0.0504 -0.5153
 4223TIP3    H134160   0.997   0.841   0.021  1.5778  0.5393 -0.1601
 4223TIP3    H234161   0.944   0.701   0.044 -0.5848  1.4946  0.9929
 4224TIP3   OH234162   2.834   1.462  18.230  0.1828  0.1345  0.0235
 4224TIP3    H134163   2.781   1.448  18.309 -0.3372 -1.2923 -0.5415
 4224TIP3    H234164   2.918   1.495  18.263 -0.4121  0.6665  1.0767
 4225TIP3   OH234165   1.505   1.614  52.285  0.1749 -0.1060 -0.8511
 4225TIP3    H134166   1.469   1.683  52.229  0.1988  1.1119  0.6013
 4225TIP3    H234167   1.437   1.599  52.351  1.0732  0.0983  0.1452
 4226TIP3   OH234168   0.452   1.983  20.419 -0.1461  0.2644  0.1285
 4226TIP3    H134169   0.495   2.048  20.474 -1.8628 -0.0862  2.0179
 4226TIP3    H234170   0.484   1.899  20.450 -0.6095  0.0872  0.1457
 4227TIP3   OH234171   0.785   1.423  34.271  0.1095  0.4150 -0.6199
 4227TIP3    H134172   0.793   1.432  34.366  0.5933 -0.8535 -0.5202
 4227TIP3    H234173   0.812   1.332  34.253  0.3803  0.7471 -2.0052
 4228TIP3   OH234174   0.464   3.095   4.229  0.3484  0.1443 -0.1051
 4228TIP3    H134175   0.544   3.107   4.281  1.1825  1.0084 -1.5412
 4228TIP3    H234176   0.393   3.106   4.293  1.3234  1.6523  0.8004
 4229TIP3   OH234177   1.059   3.240   1.768  0.2358 -0.2147 -0.2701
 4229TIP3    H134178   0.990   3.179   1.743 -0.6638  1.1431 -1.2072
 4229TIP3    H234179   1.045   3.255   1.861 -1.7247  1.2096 -0.7458
 4230TIP3   OH234180   1.867   0.681   4.148  0.0685 -0.2215 -0.5391
 4230TIP3    H134181   1.915   0.756   4.112 -1.0744  0.3448 -0.9160
 4230TIP3    H234182   1.817   0.647   4.075  0.7693 -1.5409 -0.4295
 4231TIP3   OH234183   0.122   1.838  17.072 -0.5725 -0.7873 -0.2183
 4231TIP3    H134184   0.195   1.849  17.133 -0.0562  0.2503 -0.9919
 4231TIP3    H234185   0.156   1.868  16.988 -1.9121 -0.2222 -0.5864
 4232TIP3   OH234186   0.595   0.309   6.021  0.1879 -0.3638 -0.3113
 4232TIP3    H134187   0.566   0.398   6.041  2.3954 -0.2057  3.0262
 4232TIP3    H234188   0.642   0.316   5.938 -1.0294  1.2253 -0.8983
 4233TIP3   OH234189   1.335   1.814  63.676 -0.0026  0.2384  0.0644
 4233TIP3    H134190   1.400   1.863  63.626 -1.5311  1.8144 -0.4901
 4233TIP3    H234191   1.284   1.767  63.609  1.4123 -2.2036  0.5808
 4234TIP3   OH234192   2.254   2.573  61.964 -0.2428 -0.1020 -0.5852
 4234TIP3    H134193   2.312   2.497  61.974 -1.3796 -1.0838 -1.1822
 4234TIP3    H234194   2.261   2.619  62.047 -0.1582 -1.3297  0.1242
 4235TIP3   OH234195   0.601   1.567  10.887 -0.4048 -0.5443 -0.1734
 4235TIP3    H134196   0.613   1.472  10.885  1.1252 -0.4064  1.1249
 4235TIP3    H234197   0.579   1.587  10.978  0.8972  0.4995 -0.0524
 4236TIP3   OH234198   3.364   2.562   0.319  0.0572  0.8852  0.0340
 4236TIP3    H134199   3.287   2.583   0.266 -0.2774  1.0981  0.5980
 4236TIP3    H234200   3.408   2.491   0.270 -1.0458  0.0483  0.2189
 4237TIP3   OH234201   3.436   0.120  65.071  0.6899 -0.1331  0.1489
 4237TIP3    H134202   3.360   0.177  65.077  0.9671  0.3360 -0.7625
 4237TIP3    H234203   3.440   0.077  65.157  0.2101  0.8648  0.6890
 4238TIP3   OH234204   0.791   3.263   6.142  0.1493 -0.1702 -0.2606
 4238TIP3    H134205   0.744   3.237   6.062  0.8386 -0.6770 -0.5070
 4238TIP3    H234206   0.787   3.186   6.198 -0.7308  0.3295  0.4082
 4239TIP3   OH234207   2.961   0.334   5.268 -0.4854  0.3072  0.0765
 4239TIP3    H134208   2.936   0.261   5.325 -3.0958  1.8489  1.1027
 4239TIP3    H234209   2.899   0.330   5.195  1.2217 -0.1483 -1.4105
 4240TIP3   OH234210   0.213   0.940  22.045 -0.8656 -0.1688  0.5177
 4240TIP3    H134211   0.225   0.921  22.138  0.0723 -0.0751  0.4198
 4240TIP3    H234212   0.121   0.918  22.028 -0.6748 -1.4984  1.1434
 4241TIP3   OH234213   1.721   2.303   1.877  0.7810 -0.0497 -0.1585
 4241TIP3    H134214   1.653   2.247   1.841 -0.9149  1.2482  0.8729
 4241TIP3    H234215   1.803   2.256   1.859 -0.5276 -2.9859  0.8882
 4242TIP3   OH234216   2.710   2.825  30.129  0.8521  0.6343 -0.4785
 4242TIP3    H134217   2.710   2.877  30.048  2.5119  1.2982 -0.1023
 4242TIP3    H234218   2.703   2.734  30.099 -0.6775  0.9575 -1.2264
 4243TIP3   OH234219   2.717   1.712  58.569  0.1907  0.1564 -0.0826
 4243TIP3    H134220   2.634   1.670  58.594  0.8580 -1.4888 -0.4702
 4243TIP3    H234221   2.734   1.775  58.639 -0.2541 -1.1249  1.2515
 4244TIP3   OH234222   1.150   1.203  47.301  0.1486  0.4638  0.3266
 4244TIP3    H134223   1.217   1.269  47.286  0.3620  0.2448  0.2990
 4244TIP3    H234224   1.117   1.221  47.389 -0.2541  1.0061  0.0673
 4245TIP3   OH234225   0.545   0.136  65.621 -0.2853  0.2857  0.2064
 4245TIP3    H134226   0.501   0.149  65.705 -1.7946  0.0996 -0.5046
 4245TIP3    H234227   0.488   0.075  65.574  0.9537 -0.2457 -0.6420
 4246TIP3   OH234228   1.393   0.547  60.574 -0.2540  0.1620  0.0680
 4246TIP3    H134229   1.466   0.520  60.629  0.3432 -0.1025 -0.8384
 4246TIP3    H234230   1.337   0.598  60.633  0.1498 -0.4608  1.0206
 4247TIP3   OH234231   2.658   0.456  64.846  0.4222  0.1136  0.3994
 4247TIP3    H134232   2.563   0.466  64.836  0.4269 -0.7056 -0.6667
 4247TIP3    H234233   2.681   0.385  64.785  1.8942  1.0697 -0.1997
 4248TIP3   OH234234   0.093   0.956  19.573 -0.3314  0.5000  0.2104
 4248TIP3    H134235   0.036   1.023  19.535 -0.3443  0.4037  0.0587
 4248TIP3    H234236   0.063   0.874  19.534 -0.3200  0.4044  0.4012
 4249TIP3   OH234237   0.068   0.478  44.271  0.4712 -1.1538 -0.4767
 4249TIP3    H134238  -0.023   0.465  44.243  0.6537 -1.0331 -1.1613
 4249TIP3    H234239   0.094   0.559  44.226  0.6994 -0.8108  0.2653
 4250TIP3   OH234240   1.126   3.233  57.742 -0.1262  0.3507  0.3770
 4250TIP3    H134241   1.085   3.149  57.759 -0.7189  0.1459 -1.8283
 4250TIP3    H234242   1.197   3.214  57.681 -0.6464  1.4820 -0.6354
 4251TIP3   OH234243   2.501   0.452  15.225  0.0060  0.1877 -0.8518
 4251TIP3    H134244   2.417   0.470  15.267  0.5121  0.9031 -0.0957
 4251TIP3    H234245   2.541   0.385  15.281  1.1542  1.9244  0.5418
 4252TIP3   OH234246   0.853   0.304  12.998 -0.3482 -0.5636 -0.2133
 4252TIP3    H134247   0.922   0.249  13.034 -0.6219  0.0466  1.3065
 4252TIP3    H234248   0.808   0.248  12.935  1.4669 -0.9922 -1.2105
 4253TIP3   OH234249   1.236   2.890  46.332  0.2297  0.5969 -0.1253
 4253TIP3    H134250   1.193   2.853  46.255 -1.5074  1.8021  0.2159
 4253TIP3    H234251   1.306   2.945  46.297  0.3720  0.0173 -0.7677
 4254TIP3   OH234252   0.773   0.773   8.610  0.3808 -0.0011 -0.6336
 4254TIP3    H134253   0.861   0.806   8.594  0.2682  0.3083 -0.6233
 4254TIP3    H234254   0.770   0.689   8.564  0.4988  0.2463 -1.0975
 4255TIP3   OH234255   1.401   0.774  51.013 -0.9739 -0.5692  0.2438
 4255TIP3    H134256   1.404   0.859  51.058 -0.6897 -0.3251 -0.2327
 4255TIP3    H234257   1.410   0.795  50.920 -2.9164 -0.9630 -0.0723
 4256TIP3   OH234258   1.678   2.576  65.362  0.4715  0.1433  0.3728
 4256TIP3    H134259   1.676   2.637  65.437  2.3893 -1.0179  1.4617
 4256TIP3    H234260   1.771   2.570  65.340 -0.0056  0.0408 -1.8152
 4257TIP3   OH234261   2.924   1.725  20.369  0.3452 -0.1444  0.2670
 4257TIP3    H134262   2.863   1.722  20.295  1.2610 -0.0800 -0.5054
 4257TIP3    H234263   2.967   1.810  20.362  0.1813  0.0233  1.1097
 4258TIP3   OH234264   3.169   0.778  58.117 -0.1124 -0.1486 -0.1690
 4258TIP3    H134265   3.192   0.769  58.024  1.7420 -0.6315  0.2922
 4258TIP3    H234266   3.075   0.791  58.117 -0.3149 -1.2579 -2.0646
 4259TIP3   OH234267   0.810   2.585  53.072 -0.0335  0.2592 -0.2557
 4259TIP3    H134268   0.774   2.574  53.160 -0.6724  0.5769 -0.4703
 4259TIP3    H234269   0.764   2.661  53.037  0.0026 -0.0499 -0.9790
 4260TIP3   OH234270   2.630   2.853  21.255  0.3683  0.1760  0.3549
 4260TIP3    H134271   2.726   2.848  21.246  0.2358  0.4846 -1.5470
 4260TIP3    H234272   2.610   2.787  21.322  2.0559  1.4391  2.2586
 4261TIP3   OH234273   2.171   1.817   6.569  0.0956  0.6869  0.6856
 4261TIP3    H134274   2.252   1.854   6.605  0.3698  0.1393  0.6386
 4261TIP3    H234275   2.200   1.744   6.515 -0.3027  1.5129 -0.6935
 4262TIP3   OH234276   2.342   2.677  43.864 -0.4751 -0.3272  0.7809
 4262TIP3    H134277   2.368   2.605  43.920 -0.3406 -0.6007  0.3705
 4262TIP3    H234278   2.259   2.649  43.825 -0.2693 -0.3915  0.3881
 4263TIP3   OH234279   0.815   3.273  64.511  0.8142 -0.2372 -0.4459
 4263TIP3    H134280   0.855   3.359  64.495  0.1031  0.1773 -0.0571
 4263TIP3    H234281   0.738   3.292  64.565  2.0815 -1.3851  1.9062
 4264TIP3   OH234282   3.006   0.951  13.114 -0.5172 -0.1946 -0.5036
 4264TIP3    H134283   3.095   0.917  13.117 -1.5703 -3.2866 -1.0921
 4264TIP3    H234284   2.991   0.984  13.203  0.6127 -1.3676  0.1632
 4265TIP3   OH234285   1.952   0.227  27.403  0.7885 -0.1080 -0.3829
 4265TIP3    H134286   1.881   0.268  27.354  0.0549 -0.4882  0.3335
 4265TIP3    H234287   2.031   0.269  27.370  0.2002  0.6082 -0.9185
 4266TIP3   OH234288   2.516   1.631   6.342  0.1541  0.4895  0.6495
 4266TIP3    H134289   2.529   1.541   6.312  0.8062 -0.2359  2.9511
 4266TIP3    H234290   2.431   1.629   6.386  0.1934  1.0115  0.7525
 4267TIP3   OH234291   1.939   1.269  65.415  0.0021  0.0497  0.3540
 4267TIP3    H134292   1.966   1.360  65.403  1.9146 -0.5097 -0.0355
 4267TIP3    H234293   1.844   1.272  65.422 -0.0864  1.9526 -0.9331
 4268TIP3   OH234294   2.492   1.532  57.715 -0.3974 -0.0376 -0.6296
 4268TIP3    H134295   2.568   1.582  57.685 -0.1838  0.4215  0.6268
 4268TIP3    H234296   2.448   1.504  57.634  0.4176  0.7342 -1.3596
 4269TIP3   OH234297   0.359   1.088  51.950 -0.0718  0.0556  1.1463
 4269TIP3    H134298   0.380   1.147  51.877 -1.3508 -0.3925  0.3914
 4269TIP3    H234299   0.276   1.120  51.984 -0.6683 -1.1329  0.8769
 4270TIP3   OH234300   2.254   2.666  63.760 -0.1834 -0.5602  0.7105
 4270TIP3    H134301   2.159   2.669  63.752 -0.3149  1.5726  2.3156
 4270TIP3    H234302   2.286   2.722  63.690 -0.0432 -1.5271 -0.0318
 4271TIP3   OH234303   1.465   1.199   8.702 -0.0665  0.0516  0.1424
 4271TIP3    H134304   1.419   1.279   8.678 -0.0887  0.1138  0.3896
 4271TIP3    H234305   1.556   1.227   8.712  0.0126 -0.0528 -0.2547
 4272TIP3   OH234306   2.246   1.818  59.967  0.5792  0.2304 -0.0175
 4272TIP3    H134307   2.303   1.813  59.891  0.4253  1.1929 -0.2160
 4272TIP3    H234308   2.158   1.806  59.932  0.6390 -1.3637  0.3007
 4273TIP3   OH234309   3.084   1.755  49.124  0.3932 -0.1575 -0.0501
 4273TIP3    H134310   3.076   1.848  49.146 -0.8529 -0.6270  1.6923
 4273TIP3    H234311   3.087   1.753  49.029  1.8058  1.7503 -0.1110
 4274TIP3   OH234312   2.194   0.287  13.235 -0.2520  0.0160  0.1893
 4274TIP3    H134313   2.209   0.208  13.288  2.0777  0.5597  0.4092
 4274TIP3    H234314   2.128   0.336  13.285 -1.4628 -1.5571  0.2476
 4275TIP3   OH234315   0.345   2.746  46.160 -0.2911 -0.1452  0.3190
 4275TIP3    H134316   0.259   2.763  46.120 -0.5887  0.7488  1.2919
 4275TIP3    H234317   0.395   2.704  46.090 -1.1801  0.2692 -0.6076
 4276TIP3   OH234318   2.394   1.535  56.488 -0.1692 -0.4666 -0.5230
 4276TIP3    H134319   2.342   1.571  56.561  0.4005  0.5061 -0.5852
 4276TIP3    H234320   2.410   1.444  56.514 -1.8290 -0.7818 -0.4669
 4277TIP3   OH234321   0.063   2.113  47.389 -0.3505  0.2852  0.3617
 4277TIP3    H134322   0.021   2.028  47.374 -0.5375  0.4045  0.2119
 4277TIP3    H234323  -0.004   2.166  47.432  0.2924 -0.1690  2.0235
 4278TIP3   OH234324   1.124   0.450  46.122 -0.8554 -0.1474 -0.5502
 4278TIP3    H134325   1.162   0.407  46.199 -0.1278 -0.1001 -0.8714
 4278TIP3    H234326   1.051   0.394  46.096 -1.9854  0.5545  0.9834
 4279TIP3   OH234327   0.749   0.018  59.692 -0.6442 -0.2824 -0.7568
 4279TIP3    H134328   0.676   0.044  59.748  1.5535 -0.6749  2.6009
 4279TIP3    H234329   0.801   0.098  59.682  0.5889 -0.8626  0.5546
 4280TIP3   OH234330   2.846   3.209   3.996 -0.0518  0.1440 -0.3638
 4280TIP3    H134331   2.936   3.220   4.027  0.3636 -2.9847 -0.2138
 4280TIP3    H234332   2.797   3.278   4.041  2.1318  1.5489  0.0057
 4281TIP3   OH234333   2.657   0.596   3.185 -0.1919 -0.0075  0.1448
 4281TIP3    H134334   2.700   0.588   3.270 -0.2744 -0.0944  0.1783
 4281TIP3    H234335   2.605   0.516   3.177  0.4307 -0.3724 -0.3377
 4282TIP3   OH234336   1.457   2.896   3.411  0.3082 -0.5119 -0.2709
 4282TIP3    H134337   1.479   2.872   3.500  1.0557 -0.2295 -0.3774
 4282TIP3    H234338   1.361   2.889   3.407  0.3856 -2.0835  0.0886
 4283TIP3   OH234339   1.505   0.064  55.466  0.0003  0.1542  0.1145
 4283TIP3    H134340   1.422   0.112  55.458  0.6180  1.1222 -0.6413
 4283TIP3    H234341   1.494  -0.012  55.409 -0.9844 -0.6484  1.3172
 4284TIP3   OH234342   1.209   2.191  61.967  0.3123 -0.3026 -0.1880
 4284TIP3    H134343   1.207   2.222  62.057 -1.0629 -1.4649  0.2252
 4284TIP3    H234344   1.235   2.267  61.916  0.3424  0.5912  1.1122
 4285TIP3   OH234345   3.128   0.904   7.843  0.0571  0.6581  0.3577
 4285TIP3    H134346   3.109   0.836   7.908 -1.3587  1.2771  0.6271
 4285TIP3    H234347   3.065   0.888   7.773  1.4548  0.0990 -0.8398
 4286TIP3   OH234348   0.666   0.110  20.519 -0.0698 -0.2060 -0.3094
 4286TIP3    H134349   0.581   0.132  20.556  0.6183  1.0906  0.6039
 4286TIP3    H234350   0.729   0.158  20.574  1.2173 -0.8277 -1.1885
 4287TIP3   OH234351   1.727   0.642  60.175  0.0292 -0.0865  0.0190
 4287TIP3    H134352   1.776   0.565  60.205  1.7180  0.2722 -1.6846
 4287TIP3    H234353   1.639   0.609  60.158 -0.2577 -0.8821  2.5482
 4288TIP3   OH234354   2.292   0.649  19.768 -0.6398  0.0749 -0.1231
 4288TIP3    H134355   2.283   0.721  19.706  4.1186  0.6166 -0.5677
 4288TIP3    H234356   2.307   0.572  19.713  0.8275  0.0389  0.2975
 4289TIP3   OH234357   1.052   1.830  16.933  0.3940  0.2677  0.3086
 4289TIP3    H134358   1.135   1.875  16.917  0.5642 -0.4261 -0.8585
 4289TIP3    H234359   0.985   1.891  16.902  0.4397  0.8915  1.3905
 4290TIP3   OH234360   3.194   0.885  27.795  0.2520  0.2021  0.3880
 4290TIP3    H134361   3.239   0.843  27.722 -0.5492  1.9009 -1.1646
 4290TIP3    H234362   3.172   0.813  27.855  1.2774 -1.1867 -0.8334
 4291TIP3   OH234363   0.265   1.340   9.628 -0.9591  0.3883 -0.5213
 4291TIP3    H134364   0.191   1.322   9.686 -0.1914 -0.5946  0.1988
 4291TIP3    H234365   0.246   1.291   9.548 -0.9838 -0.0502 -0.2499
 4292TIP3   OH234366   0.073   2.885  43.245  0.1397  0.2733  0.0536
 4292TIP3    H134367   0.013   2.863  43.174  0.1841  0.3977 -0.0200
 4292TIP3    H234368   0.083   2.802  43.293 -0.9021  0.4919  0.6798
 4293TIP3   OH234369   1.195   0.415  52.189 -0.3657 -0.0214  0.3874
 4293TIP3    H134370   1.217   0.322  52.196 -0.4179 -0.0178  0.6159
 4293TIP3    H234371   1.124   0.418  52.126  2.3314  0.2759 -2.9209
 4294TIP3   OH234372   1.970   2.672  12.093  0.4132 -0.2059  0.1882
 4294TIP3    H134373   1.997   2.760  12.065  0.3055 -0.3177 -0.2752
 4294TIP3    H234374   1.930   2.685  12.179 -0.5971  0.3540 -0.3510
 4295TIP3   OH234375   2.181   1.225  10.709 -0.0080  0.2250 -0.7161
 4295TIP3    H134376   2.111   1.176  10.753 -0.1061 -0.2090 -1.3546
 4295TIP3    H234377   2.240   1.251  10.780 -0.1120 -0.5514 -0.3391
 4296TIP3   OH234378   1.330   1.364  48.475  0.0079  0.2123  0.5745
 4296TIP3    H134379   1.367   1.285  48.436 -0.8057  0.4565 -0.7615
 4296TIP3    H234380   1.240   1.339  48.496 -0.3826  0.8876 -0.2400
 4297TIP3   OH234381   2.952   2.202  13.334  0.1754  0.4928 -0.3797
 4297TIP3    H134382   3.002   2.140  13.282  0.0769  0.9460 -1.0249
 4297TIP3    H234383   2.947   2.281  13.280 -2.0155  0.1661 -0.7647
 4298TIP3   OH234384   2.309   3.297  59.896 -0.8734  0.3566 -0.3444
 4298TIP3    H134385   2.227   3.275  59.853 -1.7861  1.3693  0.7906
 4298TIP3    H234386   2.377   3.258  59.841 -2.1059 -0.4875 -1.3159
 4299TIP3   OH234387   0.377   2.397   7.226  0.2877 -0.0458 -0.1870
 4299TIP3    H134388   0.422   2.473   7.262  0.4438  0.6337 -1.7179
 4299TIP3    H234389   0.288   2.403   7.263  0.6286  0.2153  0.6164
 4300TIP3   OH234390   1.396   3.253  47.809 -0.1170 -0.1910 -0.0188
 4300TIP3    H134391   1.354   3.192  47.749 -0.4234  1.0925 -1.1413
 4300TIP3    H234392   1.489   3.247  47.788 -0.2259  0.2777 -0.6624
 4301TIP3   OH234393   1.158   0.849   3.173  0.1580  0.0710 -0.0605
 4301TIP3    H134394   1.067   0.873   3.153  1.1894  2.2325 -2.8314
 4301TIP3    H234395   1.202   0.932   3.189  1.8320 -0.8774  0.5444
 4302TIP3   OH234396   2.350   3.378  45.777 -0.0887  0.2611  0.0991
 4302TIP3    H134397   2.440   3.393  45.806 -0.3357  0.3874  0.7999
 4302TIP3    H234398   2.349   3.286  45.750  0.7187  0.7281 -1.6477
 4303TIP3   OH234399   2.761   0.748  17.330 -0.5871 -0.3688 -0.2396
 4303TIP3    H134400   2.793   0.791  17.410 -0.1690 -1.8766  0.4299
 4303TIP3    H234401   2.703   0.813  17.290  0.8704  1.2454  0.1442
 4304TIP3   OH234402   1.308   2.757  21.846 -0.0591  0.2517 -0.3829
 4304TIP3    H134403   1.304   2.814  21.922 -0.1572 -0.1476 -0.0834
 4304TIP3    H234404   1.402   2.745  21.830  0.0076 -1.3608  0.9812
 4305TIP3   OH234405   2.554   0.328  65.693 -0.0186 -0.3575 -0.2449
 4305TIP3    H134406   2.540   0.419  65.721  0.9639 -0.5174  0.8103
 4305TIP3    H234407   2.539   0.330  65.598 -0.7924  0.7359 -0.1238
 4306TIP3   OH234408   1.470   3.021  18.107 -0.7026 -0.6540 -0.2926
 4306TIP3    H134409   1.500   2.937  18.073 -0.6407  0.3793 -3.0399
 4306TIP3    H234410   1.401   2.998  18.169  0.6240 -2.7645  0.5115
 4307TIP3   OH234411   2.807   0.001  51.359 -0.0752  0.5694  0.2164
 4307TIP3    H134412   2.786   0.060  51.432  0.5348  0.9558  0.0793
 4307TIP3    H234413   2.751   0.031  51.288 -1.4154 -0.4347  0.7996
 4308TIP3   OH234414   2.885   1.695  19.624 -0.4274 -0.1942  0.2649
 4308TIP3    H134415   2.801   1.702  19.579 -0.7511  0.4189  0.9412
 4308TIP3    H234416   2.949   1.726  19.559 -0.7014 -0.7873 -0.2953
 4309TIP3   OH234417   2.382   1.590  59.341  0.6910 -0.1320 -0.6738
 4309TIP3    H134418   2.375   1.527  59.269 -0.5262  0.0532 -0.7457
 4309TIP3    H234419   2.368   1.538  59.420  1.5981 -0.2632 -0.5922
 4310TIP3   OH234420   2.342   2.961  50.945  0.1018  0.1694  0.0698
 4310TIP3    H134421   2.321   2.909  51.023 -0.4302  0.5006  0.1541
 4310TIP3    H234422   2.257   2.985  50.909  0.1983 -2.8646 -2.6011
 4311TIP3   OH234423   3.016   2.193  30.760  0.0270  0.1416 -0.2704
 4311TIP3    H134424   3.016   2.112  30.812 -0.4392  1.1574  1.3750
 4311TIP3    H234425   2.926   2.202  30.730 -0.2693  0.7575  0.7465
 4312TIP3   OH234426   0.280   0.867  53.462  0.0877  0.1371  0.0941
 4312TIP3    H134427   0.339   0.904  53.527  0.6161 -0.2288 -0.1701
 4312TIP3    H234428   0.337   0.822  53.400 -0.5376 -1.2548  0.4954
 4313TIP3   OH234429   3.217   2.966  21.620 -0.2242  0.5605  0.2283
 4313TIP3    H134430   3.273   3.023  21.567  0.4561 -0.7864 -0.5658
 4313TIP3    H234431   3.258   2.880  21.613 -2.2176 -0.4172 -0.1264
 4314TIP3   OH234432   2.719   3.325  63.210 -0.4612  0.3791  0.1257
 4314TIP3    H134433   2.794   3.368  63.251  1.7830 -2.2692 -0.8737
 4314TIP3    H234434   2.696   3.254  63.270 -1.6312  0.6301  0.0036
 4315TIP3   OH234435   0.569   3.205  18.945 -0.3581  0.4452  0.2755
 4315TIP3    H134436   0.644   3.190  19.003 -1.1404  0.2250  1.2748
 4315TIP3    H234437   0.514   3.128  18.957  1.2645 -1.6684 -3.8636
 4316TIP3   OH234438   0.109   2.935  60.930 -0.7331  0.3418 -0.0854
 4316TIP3    H134439   0.133   2.876  61.002 -1.1031 -0.3601 -0.5193
 4316TIP3    H234440   0.025   2.902  60.900  0.3001 -0.6072 -2.1047
 4317TIP3   OH234441   2.392   2.068  66.445 -0.0055 -0.1303  0.1952
 4317TIP3    H134442   2.427   2.143  66.493 -0.1239  0.8498 -1.1791
 4317TIP3    H234443   2.419   1.992  66.496 -0.2790  0.8447  1.8853
 4318TIP3   OH234444   1.155   3.015  44.925  0.8907  0.1205  0.2435
 4318TIP3    H134445   1.198   3.040  44.843 -0.5297  0.2444 -0.5007
 4318TIP3    H234446   1.205   3.060  44.993  1.4792  0.8482 -0.6440
 4319TIP3   OH234447   2.075   0.167  28.210 -0.3398 -0.0099 -0.9161
 4319TIP3    H134448   2.015   0.104  28.251  0.7897 -0.4865  0.0725
 4319TIP3    H234449   2.161   0.148  28.250  0.0065  2.3153 -0.4065
 4320TIP3   OH234450   3.322   2.245  45.369  0.0328 -0.0401  0.2545
 4320TIP3    H134451   3.379   2.209  45.301 -1.4435  0.5601 -1.3626
 4320TIP3    H234452   3.281   2.168  45.409  0.1882 -0.3530 -0.1826
 4321TIP3   OH234453   2.958   2.929   2.925  0.5434 -0.3358  0.2196
 4321TIP3    H134454   2.959   2.929   2.829  0.5422 -3.3026  0.1329
 4321TIP3    H234455   3.042   2.969   2.949  1.6629 -1.7487 -1.1063
 4322TIP3   OH234456   2.481   3.357  43.212  0.1486 -0.5534 -0.2878
 4322TIP3    H134457   2.463   3.272  43.251  0.9017  0.6922  3.0882
 4322TIP3    H234458   2.450   3.421  43.276  1.1987  1.7332 -1.8953
 4323TIP3   OH234459   0.132   1.897  53.176  0.0119  0.3108  0.5319
 4323TIP3    H134460   0.044   1.860  53.185 -0.7583  2.1345  0.9302
 4323TIP3    H234461   0.188   1.822  53.153 -1.8402 -0.6670 -1.0355
 4324TIP3   OH234462   2.119   2.896  44.926  0.1776 -0.2730 -0.1819
 4324TIP3    H134463   2.046   2.875  44.984  0.0270 -1.3792 -0.7467
 4324TIP3    H234464   2.183   2.939  44.983 -0.9692  0.8838  0.2839
 4325TIP3   OH234465   0.605   2.013  48.713 -0.3471  0.1893 -0.4812
 4325TIP3    H134466   0.531   1.985  48.659  0.6854 -2.4215 -0.6844
 4325TIP3    H234467   0.624   1.937  48.768  1.1622  1.3931  0.7252
 4326TIP3   OH234468   0.450   1.749   5.435 -0.1699  0.3515 -0.0210
 4326TIP3    H134469   0.371   1.715   5.391 -1.1891  2.0480  0.4303
 4326TIP3    H234470   0.428   1.747   5.528  0.2579  1.0226  0.0945
 4327TIP3   OH234471   2.698   2.067  61.522  0.0822 -0.0200 -0.3509
 4327TIP3    H134472   2.701   2.158  61.552  1.3242 -0.6101  1.4960
 4327TIP3    H234473   2.608   2.055  61.491 -0.0638  1.8503 -0.7634
 4328TIP3   OH234474   0.964   0.708  44.175  0.6643 -0.4374 -0.0286
 4328TIP3    H134475   0.889   0.768  44.178  1.0622  0.2415 -1.8508
 4328TIP3    H234476   1.026   0.742  44.239  0.5284  0.6264 -0.4478
 4329TIP3   OH234477   1.317   1.334  63.279 -0.2810 -0.5515  0.3099
 4329TIP3    H134478   1.367   1.380  63.346 -0.5585 -1.3901  1.1236
 4329TIP3    H234479   1.268   1.267  63.328 -2.4992  0.4705 -0.3718
 4330TIP3   OH234480   1.056   0.211  33.932 -0.4424  0.0002 -0.1740
 4330TIP3    H134481   1.094   0.281  33.985 -0.9804  0.0704  0.1250
 4330TIP3    H234482   0.976   0.250  33.895 -1.3610 -0.8008  0.9125
 4331TIP3   OH234483   2.509   0.829  20.788  0.3931  0.1854  0.3269
 4331TIP3    H134484   2.575   0.846  20.720 -1.2329  1.4396 -1.0225
 4331TIP3    H234485   2.541   0.751  20.834  1.8138 -0.4128 -1.5579
 4332TIP3   OH234486   1.404   1.697   0.503 -0.3505 -0.2382  0.3635
 4332TIP3    H134487   1.333   1.760   0.516  0.8804  0.9627  1.4949
 4332TIP3    H234488   1.361   1.622   0.460 -1.7779  1.4862 -1.4044
 4333TIP3   OH234489   2.107   3.413   9.536 -0.5296  0.4374 -0.0354
 4333TIP3    H134490   2.157   3.419   9.617 -1.4658  3.7155  0.4618
 4333TIP3    H234491   2.022   3.376   9.562 -0.7075  1.1687  0.4557
 4334TIP3   OH234492   0.969   0.818  65.365 -0.4463 -0.3514  0.1211
 4334TIP3    H134493   1.052   0.770  65.357 -1.2816 -1.9154  0.4973
 4334TIP3    H234494   0.935   0.820  65.275  0.4472  1.1734 -0.2136
 4335TIP3   OH234495   3.333   2.961  17.876  0.5010  0.4007 -0.0458
 4335TIP3    H134496   3.363   3.049  17.895 -0.5901  0.5706  0.9801
 4335TIP3    H234497   3.335   2.916  17.960 -1.1647  0.1552 -0.0976
 4336TIP3   OH234498   2.454   2.165   8.697 -0.4452  0.3641 -0.4290
 4336TIP3    H134499   2.432   2.110   8.773  0.9755 -0.0303 -0.2621
 4336TIP3    H234500   2.440   2.108   8.622 -2.2337  0.8755 -0.5394
 4337TIP3   OH234501   2.425   0.961   0.892 -0.1090 -0.4771 -0.4065
 4337TIP3    H134502   2.431   0.913   0.809 -0.3453 -2.4226  0.6454
 4337TIP3    H234503   2.512   0.952   0.931 -0.4018 -0.7873  0.1842
 4338TIP3   OH234504   2.231   2.567  12.048  0.5736  0.4837 -0.2706
 4338TIP3    H134505   2.254   2.584  12.140  0.6612  0.6364 -0.3215
 4338TIP3    H234506   2.139   2.538  12.051  0.6497  0.2555 -0.1105
 4339TIP3   OH234507   0.197   1.136   2.166  0.5731 -0.3914 -0.0377
 4339TIP3    H134508   0.228   1.226   2.153 -0.9785  0.1795  0.0669
 4339TIP3    H234509   0.244   1.085   2.100  1.6841  0.4310  0.0806
 4340TIP3   OH234510   1.797   2.564  59.616 -0.1496 -0.2747  0.1854
 4340TIP3    H134511   1.872   2.619  59.637  0.0617 -0.9041  1.1299
 4340TIP3    H234512   1.834   2.476  59.606 -0.5468 -0.3326 -0.8615
 4341TIP3   OH234513   1.231   1.075  17.433 -0.2280 -0.1831 -0.2679
 4341TIP3    H134514   1.261   1.164  17.415 -3.7513  1.5912  1.4765
 4341TIP3    H234515   1.284   1.046  17.507  0.0479  1.0665  0.0562
 4342TIP3   OH234516   1.594   0.361   4.932  0.0039 -0.3978 -0.0662
 4342TIP3    H134517   1.664   0.394   4.875  2.1725 -0.7205  2.2130
 4342TIP3    H234518   1.569   0.277   4.893  1.2183 -0.4776 -0.7362
 4343TIP3   OH234519   0.090   2.511  66.426 -0.9102  0.9190  0.0011
 4343TIP3    H134520   0.126   2.433  66.468 -1.3303  0.3179 -0.7214
 4343TIP3    H234521   0.155   2.534  66.360 -0.8428  1.1113  0.1321
 4344TIP3   OH234522   0.121   1.720  56.324 -0.1446 -0.2648 -0.1816
 4344TIP3    H134523   0.065   1.752  56.253  0.0130  2.4794  0.7992
 4344TIP3    H234524   0.059   1.689  56.391 -0.4148  0.0747 -0.2698
 4345TIP3   OH234525   1.687   0.054  46.971  0.5261  0.0072 -0.1465
 4345TIP3    H134526   1.595   0.068  46.948  0.1193 -2.3439 -0.1924
 4345TIP3    H234527   1.686   0.046  47.067  0.6791 -0.0882 -0.1543
 4346TIP3   OH234528   0.590   0.226  18.748 -0.3696 -0.2943 -1.1195
 4346TIP3    H134529   0.627   0.164  18.811  0.3463 -0.3498 -1.5752
 4346TIP3    H234530   0.529   0.174  18.696 -1.2708 -0.1618 -0.2347
 4347TIP3   OH234531   1.282   2.774  55.990  0.2352  0.1987 -0.0471
 4347TIP3    H134532   1.277   2.700  56.050  0.4978  0.4711  0.3124
 4347TIP3    H234533   1.375   2.796  55.988 -0.1468  2.2678  1.9735
 4348TIP3   OH234534   2.494   2.840   3.614  0.0963 -0.4434  0.0479
 4348TIP3    H134535   2.534   2.860   3.699 -0.7770 -0.1346  0.4006
 4348TIP3    H234536   2.553   2.777   3.574  1.2847  0.4879  0.2618
 4349TIP3   OH234537   0.543   0.134  19.394 -0.4023 -0.1859 -0.1639
 4349TIP3    H134538   0.531   0.201  19.326 -0.0946 -1.1051 -1.1341
 4349TIP3    H234539   0.540   0.051  19.347  1.0716 -0.7956  0.7636
 4350TIP3   OH234540   2.278   0.241  21.224  0.2988 -0.0420 -0.1619
 4350TIP3    H134541   2.337   0.305  21.263  1.6635 -1.0061 -0.5778
 4350TIP3    H234542   2.287   0.254  21.130  0.4397 -0.6933 -0.2475
 4351TIP3   OH234543   1.818   2.966  12.963  0.0197 -0.5979 -0.0368
 4351TIP3    H134544   1.789   3.014  13.040  0.8028 -1.7791  1.0431
 4351TIP3    H234545   1.758   2.892  12.957  0.0269 -0.5690 -0.5099
 4352TIP3   OH234546   3.440   1.983  65.012 -0.2518 -0.5777  0.3470
 4352TIP3    H134547   3.393   1.937  64.942 -0.9111 -1.0446  1.0805
 4352TIP3    H234548   3.439   1.922  65.086 -3.4848  1.4710  2.2528
 4353TIP3   OH234549   2.458   1.362   5.179  0.4467 -0.3048 -0.4435
 4353TIP3    H134550   2.504   1.435   5.136  1.1794  1.0239  2.3651
 4353TIP3    H234551   2.368   1.371   5.150  0.1018  2.9472  1.0815
 4354TIP3   OH234552   0.075   0.790  52.722  0.2607 -0.0666  0.3365
 4354TIP3    H134553   0.097   0.835  52.640 -0.5390 -0.5011 -0.1321
 4354TIP3    H234554   0.033   0.857  52.776  0.8050  0.2248  0.4043
 4355TIP3   OH234555   1.971   3.087   3.124  0.1541 -0.0824 -0.7636
 4355TIP3    H134556   1.990   3.028   3.196 -1.7492  0.7933  0.5425
 4355TIP3    H234557   1.971   3.031   3.046 -1.7954 -1.8835  0.4316
 4356TIP3   OH234558   2.207   1.963  19.806 -0.4691  0.8430  0.0926
 4356TIP3    H134559   2.259   1.953  19.726  1.3257  1.4754  1.1243
 4356TIP3    H234560   2.133   2.017  19.779 -1.1223 -0.7993 -1.6203
 4357TIP3   OH234561   2.483   1.840  62.442  0.6062 -0.0223  0.6833
 4357TIP3    H134562   2.418   1.835  62.512  0.5860  0.6109  0.7144
 4357TIP3    H234563   2.545   1.906  62.471  1.9567 -1.4414  1.2103
 4358TIP3   OH234564   0.364   2.823  64.706 -0.0386  0.1075 -0.2154
 4358TIP3    H134565   0.296   2.792  64.766 -0.5455  1.0846 -0.2804
 4358TIP3    H234566   0.389   2.745  64.656  0.0221 -0.6025  0.8942
 4359TIP3   OH234567   0.210   2.570   7.402  0.1147  0.5431 -0.5077
 4359TIP3    H134568   0.175   2.487   7.432  1.1761  0.1556 -0.2854
 4359TIP3    H234569   0.179   2.634   7.466 -0.1698  0.2143 -0.3147
 4360TIP3   OH234570   1.157   2.825  20.932 -0.2201  0.0517  0.1361
 4360TIP3    H134571   1.146   2.806  20.839 -1.7962  0.9156  0.1006
 4360TIP3    H234572   1.148   2.740  20.975  2.5298 -0.6886 -0.5733
 4361TIP3   OH234573   1.486   2.445  15.363 -0.3674  0.5971 -0.4272
 4361TIP3    H134574   1.481   2.385  15.438  2.0526  0.0750 -0.5808
 4361TIP3    H234575   1.522   2.526  15.399  0.8857  0.3172 -0.9948
 4362TIP3   OH234576   1.169   3.019  42.722  0.1189 -0.0083  0.2397
 4362TIP3    H134577   1.174   3.104  42.767 -0.0428  0.9002 -1.4102
 4362TIP3    H234578   1.135   2.960  42.789 -0.9559  1.4885  1.0893
 4363TIP3   OH234579   1.222   0.659  59.157 -0.2223 -0.1913 -0.4658
 4363TIP3    H134580   1.260   0.670  59.070 -0.2842  2.1905 -0.2424
 4363TIP3    H234581   1.207   0.748  59.189 -1.1313 -1.0112  1.5887
 4364TIP3   OH234582   3.111   1.392  53.462  0.2656  0.1149  0.3011
 4364TIP3    H134583   3.104   1.487  53.462  0.1623  0.1231 -1.0467
 4364TIP3    H234584   3.201   1.374  53.436  0.0705 -0.1590 -0.1935
 4365TIP3   OH234585   2.432   2.099  19.932  0.3347 -0.9645 -0.2278
 4365TIP3    H134586   2.352   2.047  19.919 -0.3590  0.3838 -1.8097
 4365TIP3    H234587   2.494   2.062  19.870  0.6319 -1.3898  0.3156
 4366TIP3   OH234588   1.426   1.883  11.152  0.1646 -0.0507  0.5361
 4366TIP3    H134589   1.467   1.962  11.116 -0.4215 -0.1410 -0.3530
 4366TIP3    H234590   1.424   1.822  11.079  0.1149 -0.7016  1.0714
 4367TIP3   OH234591   1.100   0.942  53.289 -0.1021  0.0554 -0.0782
 4367TIP3    H134592   1.144   0.859  53.308 -2.3427 -1.2651 -0.3717
 4367TIP3    H234593   1.077   0.936  53.196 -1.5195  0.3872  0.2348
 4368TIP3   OH234594   0.224   2.078  49.854 -0.1145 -0.0480  0.0582
 4368TIP3    H134595   0.173   1.997  49.849 -1.9683  0.9765  1.2121
 4368TIP3    H234596   0.249   2.085  49.946  0.6951  0.3364 -0.1764
 4369TIP3   OH234597   0.152   2.248  62.569  0.2636 -0.7695 -0.1492
 4369TIP3    H134598   0.209   2.288  62.503 -0.0916 -0.3452 -0.2114
 4369TIP3    H234599   0.148   2.314  62.639  0.3254 -1.0507  0.1203
 4370TIP3   OH234600   2.296   2.250  16.288  0.1061 -0.1883  0.7797
 4370TIP3    H134601   2.289   2.304  16.209  1.6899 -0.2797  0.5485
 4370TIP3    H234602   2.305   2.313  16.359 -0.2387 -0.1192  0.7616
 4371TIP3   OH234603   2.185   1.689  63.805 -0.1966  0.1158 -0.6151
 4371TIP3    H134604   2.101   1.677  63.851  1.0193 -0.6871  1.5430
 4371TIP3    H234605   2.210   1.601  63.778  0.7574  0.0747  0.3331
 4372TIP3   OH234606   1.945   1.101  46.928 -0.6198  0.2077  0.7316
 4372TIP3    H134607   1.904   1.140  46.851  1.0314  1.1502  0.2820
 4372TIP3    H234608   2.017   1.049  46.893 -0.1029  0.3047  1.6126
 4373TIP3   OH234609   3.308   1.498  11.849  0.0055  0.5328  0.0447
 4373TIP3    H134610   3.366   1.538  11.914  0.1712 -0.6952  0.6773
 4373TIP3    H234611   3.228   1.478  11.898  0.9531 -2.5438  0.5397
 4374TIP3   OH234612   2.374   1.693  62.236 -0.6629  0.0443  0.1071
 4374TIP3    H134613   2.415   1.731  62.314  0.8561 -0.5664 -0.3543
 4374TIP3    H234614   2.415   1.607  62.227 -2.7675 -1.0126  0.1418
 4375TIP3   OH234615   0.925   2.400  51.613 -0.0946  0.6511 -0.2047
 4375TIP3    H134616   0.989   2.408  51.683 -0.7021 -2.5829  0.8909
 4375TIP3    H234617   0.948   2.470  51.551  1.8803  2.1656  2.0672
 4376TIP3   OH234618   3.306   2.444  13.800 -0.1222  0.0170  0.0138
 4376TIP3    H134619   3.385   2.469  13.848  0.2161 -0.4870 -0.2603
 4376TIP3    H234620   3.237   2.501  13.834  0.8713  2.2849 -1.5312
 4377TIP3   OH234621   0.908   0.845  57.935  0.1616 -0.3775 -0.1485
 4377TIP3    H134622   0.836   0.871  57.878 -0.8712 -0.5815  1.0399
 4377TIP3    H234623   0.892   0.752  57.954 -0.0233 -0.0826  1.2091
 4378TIP3   OH234624   3.063   1.116  63.650 -0.3257 -0.4023  0.8617
 4378TIP3    H134625   3.073   1.051  63.719  0.2922  0.2860  1.4419
 4378TIP3    H234626   2.976   1.100  63.614  0.0546 -1.9469  0.5583
 4379TIP3   OH234627   1.472   1.337  49.881 -0.2893 -0.0474  0.2209
 4379TIP3    H134628   1.388   1.291  49.883 -1.4309  1.9235  1.9140
 4379TIP3    H234629   1.480   1.377  49.968  1.3028  1.7147 -0.6541
 4380TIP3   OH234630   1.037   2.581  12.591  0.0511 -0.3915  0.3050
 4380TIP3    H134631   0.992   2.589  12.675 -0.2090 -0.6745  0.1983
 4380TIP3    H234632   1.125   2.550  12.613 -0.5989 -2.3719  0.3759
 4381TIP3   OH234633   1.727   1.992   0.377  0.8244 -0.6715  0.3699
 4381TIP3    H134634   1.645   2.031   0.407  0.7332  0.0375 -0.7709
 4381TIP3    H234635   1.707   1.899   0.368 -0.2205 -0.3370 -1.0523
 4382TIP3   OH234636   0.870   1.386  37.106  0.8115 -0.2467 -0.2484
 4382TIP3    H134637   0.831   1.327  37.042  1.0461  0.3915 -0.9877
 4382TIP3    H234638   0.803   1.454  37.119  0.3870 -0.8470  0.8757
 4383TIP3   OH234639   2.893   1.635   7.252 -0.3978  0.4603  0.1388
 4383TIP3    H134640   2.869   1.682   7.331 -0.4711 -0.4707  0.6884
 4383TIP3    H234641   2.906   1.545   7.281 -1.4407 -0.1195 -1.0886
 4384TIP3   OH234642   0.694   1.590  16.641 -0.3823  0.2723  0.3549
 4384TIP3    H134643   0.608   1.576  16.600 -0.5951 -1.4766  1.2904
 4384TIP3    H234644   0.675   1.646  16.716 -0.7062 -0.0286  0.5029
 4385TIP3   OH234645   1.779   2.175  52.981 -0.4346  0.3147 -0.4758
 4385TIP3    H134646   1.742   2.087  52.979  1.6648 -0.6217 -1.6760
 4385TIP3    H234647   1.857   2.167  53.037  0.3867  1.1139 -1.4472
 4386TIP3   OH234648   1.450   2.493  38.919  0.0035 -0.0970  0.5010
 4386TIP3    H134649   1.399   2.460  38.992 -0.5030  0.7975  0.5706
 4386TIP3    H234650   1.435   2.430  38.848 -0.3847 -0.3841  0.8335
 4387TIP3   OH234651   1.877   1.682  52.075 -0.2043 -0.4775  0.0772
 4387TIP3    H134652   1.883   1.777  52.091  0.3360 -0.6699  1.1355
 4387TIP3    H234653   1.824   1.674  51.996  1.3984  0.7995 -1.2197
 4388TIP3   OH234654   0.704   3.103  16.787 -0.1947  0.3113  0.4083
 4388TIP3    H134655   0.713   3.123  16.880 -0.8399 -0.0211  0.5453
 4388TIP3    H234656   0.703   3.189  16.745  0.0611  0.4645  0.7109
 4389TIP3   OH234657   0.357   1.596  55.738 -0.5234  0.4678  0.1149
 4389TIP3    H134658   0.311   1.642  55.808 -1.6047 -0.0522 -0.2346
 4389TIP3    H234659   0.289   1.544  55.694  0.4995 -0.7760 -0.0552
 4390TIP3   OH234660   2.494   0.890  14.384  0.1165  0.5233 -0.7125
 4390TIP3    H134661   2.431   0.870  14.453  1.1028 -0.2031 -0.0119
 4390TIP3    H234662   2.577   0.902  14.429  0.6037  0.9324 -1.6860
 4391TIP3   OH234663   1.769   1.950  20.485 -0.3460 -0.0071 -0.4262
 4391TIP3    H134664   1.679   1.938  20.456 -0.8708  1.2941  0.5808
 4391TIP3    H234665   1.764   1.951  20.581  0.8664 -0.7948 -0.3288
 4392TIP3   OH234666   2.512   1.862  11.825 -0.2274  0.2061 -0.2488
 4392TIP3    H134667   2.529   1.913  11.904  1.1699 -0.7755  0.1078
 4392TIP3    H234668   2.492   1.928  11.758  1.7856  1.2892  0.1390
 4393TIP3   OH234669   0.888   1.896   2.438  0.2629 -0.4906 -0.0185
 4393TIP3    H134670   0.863   1.836   2.368  0.1764 -1.3142  0.7034
 4393TIP3    H234671   0.892   1.841   2.516 -0.4554  0.5562  0.7852
 4394TIP3   OH234672   1.639   0.397  59.487 -0.0694 -0.3790 -0.0810
 4394TIP3    H134673   1.636   0.314  59.440 -0.2424 -0.2742 -0.2567
 4394TIP3    H234674   1.579   0.454  59.439 -0.6524 -0.4280  0.5627
 4395TIP3   OH234675   0.248   2.502  65.137  0.1019  0.4493 -0.1675
 4395TIP3    H134676   0.289   2.432  65.085  0.1068  1.3584 -1.4502
 4395TIP3    H234677   0.321   2.545  65.181  0.1982  0.2188 -0.0986
 4396TIP3   OH234678   0.022   2.524  57.683 -0.0766  0.3954  0.0814
 4396TIP3    H134679  -0.009   2.462  57.749  1.6303 -0.2391  0.3539
 4396TIP3    H234680  -0.037   2.599  57.690 -2.1903 -1.1310 -0.2233
 4397TIP3   OH234681   2.262   1.478  59.785 -0.1322  0.0255 -0.8173
 4397TIP3    H134682   2.187   1.422  59.766 -0.8335  1.1316 -1.3500
 4397TIP3    H234683   2.251   1.555  59.729  2.2274 -0.4740 -2.1380
 4398TIP3   OH234684   0.802   1.740  38.705  0.4497 -0.2700  0.5507
 4398TIP3    H134685   0.873   1.767  38.647  0.7810 -0.2020  0.9804
 4398TIP3    H234686   0.739   1.697  38.648  1.9797 -2.6267  0.4696
 4399TIP3   OH234687   2.847   0.454  54.574 -0.0423 -0.6534  0.3299
 4399TIP3    H134688   2.751   0.451  54.573 -0.0358 -1.2103 -0.6191
 4399TIP3    H234689   2.874   0.362  54.573  0.4921 -0.5026  0.0690
 4400TIP3   OH234690   1.368   3.255  21.015 -0.1089 -0.1469  0.7188
 4400TIP3    H134691   1.336   3.339  21.047  0.5162  0.4532 -0.1962
 4400TIP3    H234692   1.290   3.207  20.989 -0.4108  0.4369  0.5534
 4401TIP3   OH234693   1.075   1.739  45.493  0.6796  0.4863 -0.3945
 4401TIP3    H134694   1.035   1.678  45.555 -1.2438  0.3249 -1.7076
 4401TIP3    H234695   1.114   1.806  45.548 -0.0399 -0.2015  1.0228
 4402TIP3   OH234696   2.504   1.677  18.367  0.5124 -0.3132 -0.0768
 4402TIP3    H134697   2.495   1.668  18.462 -1.1579 -0.8038 -0.2540
 4402TIP3    H234698   2.588   1.722  18.355  0.0362  1.1700  1.7088
 4403TIP3   OH234699   0.072   3.305   8.782  0.2640  0.6192  0.4158
 4403TIP3    H134700  -0.001   3.316   8.843  0.1758 -0.9810  0.6493
 4403TIP3    H234701   0.129   3.241   8.824  0.2912 -0.3984 -1.0937
 4404TIP3   OH234702   1.395   1.059  20.411 -0.2196 -0.0769  0.4491
 4404TIP3    H134703   1.311   1.039  20.452 -0.7725  1.2316  0.0121
 4404TIP3    H234704   1.454   1.076  20.484 -0.7095  0.3895  0.7424
 4405TIP3   OH234705   2.199   0.105  63.050 -0.3379  0.0318 -0.0151
 4405TIP3    H134706   2.205   0.158  63.129 -0.6018  1.3210 -0.8317
 4405TIP3    H234707   2.181   0.168  62.980 -1.5810 -1.2144 -0.8932
 4406TIP3   OH234708   1.676   1.955  16.971 -0.3536  0.3804  0.5714
 4406TIP3    H134709   1.762   1.931  16.937 -0.4809 -0.4627  0.7981
 4406TIP3    H234710   1.639   2.014  16.906  0.8862  1.7701  1.0687
 4407TIP3   OH234711   2.024   3.224  59.088 -0.0189 -1.0791 -0.4617
 4407TIP3    H134712   2.010   3.201  59.179  0.6422 -0.6328 -0.2422
 4407TIP3    H234713   2.064   3.311  59.090  0.1666 -1.1347 -1.1630
 4408TIP3   OH234714   0.312   0.770   0.533  0.0806  0.2953 -0.3803
 4408TIP3    H134715   0.304   0.839   0.467 -1.5400  0.2577 -0.2610
 4408TIP3    H234716   0.266   0.805   0.609  0.8661 -0.1705  0.3276
 4409TIP3   OH234717   0.853   2.213   5.919  0.7995 -0.0859 -0.9738
 4409TIP3    H134718   0.936   2.185   5.959  0.1776  0.1224  0.5495
 4409TIP3    H234719   0.879   2.255   5.837  1.9394 -2.8649 -2.1465
 4410TIP3   OH234720   1.245   1.939  65.908 -0.0074 -0.3805 -0.5392
 4410TIP3    H134721   1.222   2.019  65.860  3.2623  1.0407 -0.0355
 4410TIP3    H234722   1.303   1.891  65.849  0.7736 -0.6576  0.4284
 4411TIP3   OH234723   2.914   1.845  53.605  0.4842 -0.0139 -0.1120
 4411TIP3    H134724   2.833   1.880  53.568  1.3664 -0.3189 -2.5918
 4411TIP3    H234725   2.886   1.788  53.676 -1.2119  2.4818  1.3595
 4412TIP3   OH234726   0.018   0.505  53.912  0.1028 -0.0914  0.9095
 4412TIP3    H134727   0.036   0.425  53.863 -0.3876 -0.4079  1.2236
 4412TIP3    H234728   0.010   0.476  54.003  2.2413  0.6586  1.3935
 4413TIP3   OH234729   0.426   1.688  37.304 -0.5014 -0.3378  0.3755
 4413TIP3    H134730   0.368   1.733  37.242  0.0496  3.7916  2.4804
 4413TIP3    H234731   0.428   1.746  37.381  2.0605 -3.0897  2.6303
 4414TIP3   OH234732   0.681   3.318  18.117  0.3445 -0.5602 -0.3459
 4414TIP3    H134733   0.757   3.310  18.175  1.8123  1.2924 -1.8688
 4414TIP3    H234734   0.641   3.232  18.118  1.7982 -1.2805  1.4099
 4415TIP3   OH234735   0.202   3.019  19.426  0.1445 -0.1083 -0.6782
 4415TIP3    H134736   0.198   2.928  19.397 -0.5276 -0.2121 -0.2701
 4415TIP3    H234737   0.111   3.049  19.424  0.3267  0.4628 -0.5295
 4416TIP3   OH234738   2.757   2.716  58.902  0.9392  0.4513  0.5116
 4416TIP3    H134739   2.737   2.805  58.931 -1.2483  0.2224 -0.1292
 4416TIP3    H234740   2.723   2.660  58.971  1.7322  0.0708  0.6077
 4417TIP3   OH234741   0.423   1.366  42.183  0.2786 -0.4661  0.2017
 4417TIP3    H134742   0.349   1.339  42.237 -0.9321  0.4408 -0.9445
 4417TIP3    H234743   0.500   1.348  42.238 -0.8923  0.7151  2.3687
 4418TIP3   OH234744   1.539   2.161  45.576 -0.2992 -0.0165 -0.2942
 4418TIP3    H134745   1.552   2.094  45.642 -1.2284  1.1125  1.0879
 4418TIP3    H234746   1.445   2.164  45.562 -0.2357  0.6906 -0.6470
 4419TIP3   OH234747   2.800   2.062  62.910  0.1076 -0.0725  0.0011
 4419TIP3    H134748   2.838   2.071  62.823  0.1277  0.3832  0.0563
 4419TIP3    H234749   2.791   2.152  62.942  0.7414 -0.2672  0.7507
 4420TIP3   OH234750   0.822   3.103  55.957 -0.0121  0.1591  0.1733
 4420TIP3    H134751   0.905   3.114  56.004 -1.2525  0.4267  2.4005
 4420TIP3    H234752   0.793   3.014  55.980  0.2159 -0.4136 -1.5974
 4421TIP3   OH234753   1.077   1.584  67.264 -0.2055 -0.1942  1.1155
 4421TIP3    H134754   1.043   1.495  67.263 -2.6794  0.6676  1.4950
 4421TIP3    H234755   1.043   1.624  67.184 -2.3074  1.4067  2.6864
 4422TIP3   OH234756   2.844   2.209  10.328 -1.0703  0.2507  0.2984
 4422TIP3    H134757   2.802   2.134  10.285 -0.9755  1.2942 -1.7422
 4422TIP3    H234758   2.924   2.224  10.278  0.0107  0.4373  2.0005
 4423TIP3   OH234759   0.740   2.141  66.374 -0.3657 -0.3919  0.2068
 4423TIP3    H134760   0.671   2.152  66.308 -1.5130 -1.0723  1.2502
 4423TIP3    H234761   0.807   2.089  66.330 -1.0872 -0.7979 -0.4541
 4424TIP3   OH234762   1.443   2.011  38.759  0.4856 -0.1909  0.3136
 4424TIP3    H134763   1.535   2.013  38.785  0.1201 -2.2943  2.0653
 4424TIP3    H234764   1.396   2.050  38.833 -0.1749 -1.3131  0.5173
 4425TIP3   OH234765   0.091   1.378  15.537 -0.3363  0.7276 -0.3077
 4425TIP3    H134766   0.171   1.338  15.569 -1.1195 -1.2148 -0.6353
 4425TIP3    H234767   0.118   1.429  15.460  0.8458  1.7563  0.7365
 4426TIP3   OH234768   2.004   0.105  50.587 -0.0026  0.0076  0.3841
 4426TIP3    H134769   2.011   0.106  50.683  0.3730 -0.6050  0.3664
 4426TIP3    H234770   2.059   0.032  50.560  0.5516  0.6868 -0.3567
 4427TIP3   OH234771   1.658   1.122  57.893 -0.0869 -0.0630  0.0020
 4427TIP3    H134772   1.585   1.168  57.851 -1.1706 -1.2374  0.5413
 4427TIP3    H234773   1.732   1.135  57.834 -1.2077 -0.4284 -1.5344
 4428TIP3   OH234774   0.921   0.221  53.738 -0.5321  0.6309  0.3403
 4428TIP3    H134775   0.879   0.256  53.817 -0.3252 -0.7511  1.0893
 4428TIP3    H234776   1.005   0.187  53.769 -1.7082 -2.7442  0.1884
 4429TIP3   OH234777   1.265   1.411  16.258  0.1882  0.3660  0.5643
 4429TIP3    H134778   1.205   1.486  16.254 -1.1650 -0.5919  1.6607
 4429TIP3    H234779   1.266   1.387  16.351 -0.7993 -2.0132  0.0254
 4430TIP3   OH234780   2.429   3.055  21.317 -0.0164 -0.0642  0.4543
 4430TIP3    H134781   2.506   3.002  21.335 -0.1406 -0.1513  0.7332
 4430TIP3    H234782   2.362   2.992  21.290 -0.0010  0.0074  0.2458
 4431TIP3   OH234783   2.990   1.471  43.908  0.1153  0.0939  0.3944
 4431TIP3    H134784   3.044   1.466  43.987 -0.9177  0.5378  1.1580
 4431TIP3    H234785   2.908   1.509  43.938  0.4299  2.3082 -1.2902
 4432TIP3   OH234786   1.718   0.579  47.980  0.6306 -0.3947  0.2805
 4432TIP3    H134787   1.646   0.568  47.918 -0.1301 -0.5923  1.1858
 4432TIP3    H234788   1.727   0.493  48.021  0.4057  0.0178  1.2126
 4433TIP3   OH234789   3.181   1.835  64.433  0.1257  0.4045  0.0413
 4433TIP3    H134790   3.093   1.835  64.396 -0.1176 -1.5106  0.5319
 4433TIP3    H234791   3.168   1.857  64.526  0.4420  2.3824 -0.3434
 4434TIP3   OH234792   1.088   0.973  50.527 -0.1059  0.7005 -0.2249
 4434TIP3    H134793   1.150   0.915  50.482  2.6364  2.3345  1.1607
 4434TIP3    H234794   1.099   0.951  50.619 -1.1112  1.5025  0.0974
 4435TIP3   OH234795   1.957   0.207  64.430 -0.3484  0.2911 -0.4157
 4435TIP3    H134796   2.010   0.233  64.506  0.8526  1.4915 -1.6026
 4435TIP3    H234797   2.008   0.138  64.388 -0.6198  0.1871 -0.5770
 4436TIP3   OH234798   2.670   2.791  27.449 -0.4346 -1.0723 -0.2467
 4436TIP3    H134799   2.575   2.783  27.455 -0.6149  1.1643  3.5082
 4436TIP3    H234800   2.704   2.714  27.496 -0.5203 -0.8264  0.2295
 4437TIP3   OH234801   1.124   3.155  49.320  0.0474  0.3874 -0.0510
 4437TIP3    H134802   1.182   3.199  49.257 -0.2680  1.1104  0.1483
 4437TIP3    H234803   1.088   3.226  49.373 -0.8202 -0.0724  0.0009
 4438TIP3   OH234804   2.496   2.555  42.159  0.6868  0.2717 -0.0863
 4438TIP3    H134805   2.468   2.642  42.184  0.7908  0.3013 -0.0755
 4438TIP3    H234806   2.423   2.521  42.106  1.0254  0.7088 -0.8497
 4439TIP3   OH234807   1.230   1.886   7.697 -0.3901  0.0301  0.3825
 4439TIP3    H134808   1.138   1.899   7.674 -0.2397  1.1308  0.3294
 4439TIP3    H234809   1.274   1.964   7.664  0.9504 -1.4684 -1.5651
 4440TIP3   OH234810   2.215   2.327  12.349 -0.7629  0.1513 -0.5352
 4440TIP3    H134811   2.163   2.406  12.368  0.9881  1.0337  0.8794
 4440TIP3    H234812   2.160   2.255  12.377 -2.2895  0.8410 -1.5850
 4441TIP3   OH234813   2.115   1.122   9.438  0.4231  0.0487  0.5500
 4441TIP3    H134814   2.020   1.117   9.427  0.4069  1.4401 -0.0705
 4441TIP3    H234815   2.150   1.092   9.354  0.5167  0.1884  0.5399
 4442TIP3   OH234816   3.118   2.550  28.474 -0.0542 -0.1982  0.8811
 4442TIP3    H134817   3.092   2.479  28.415 -1.0856  1.6518 -1.0502
 4442TIP3    H234818   3.050   2.550  28.541 -2.1919  1.1205 -1.1118
 4443TIP3   OH234819   3.031   0.878   5.404  0.5150  0.0036  0.0317
 4443TIP3    H134820   3.113   0.831   5.421  0.7478  0.2417 -0.3858
 4443TIP3    H234821   3.053   0.970   5.419  0.4961  0.1288 -0.6760
 4444TIP3   OH234822   0.142   2.778  61.161  0.1826  0.3702  0.4086
 4444TIP3    H134823   0.234   2.793  61.183 -0.0562  0.8721  1.0835
 4444TIP3    H234824   0.093   2.816  61.234 -0.6141  1.5863 -0.7190
 4445TIP3   OH234825   0.736   3.148  58.159  0.0774 -0.3257  0.2308
 4445TIP3    H134826   0.699   3.141  58.071  0.4104 -0.2757  0.0843
 4445TIP3    H234827   0.662   3.133  58.218 -0.1510 -0.3392 -0.0580
 4446TIP3   OH234828   2.169   3.205  66.283 -0.1653  0.2745 -0.6246
 4446TIP3    H134829   2.152   3.114  66.259  0.3590  0.3278 -1.2309
 4446TIP3    H234830   2.203   3.200  66.372 -1.3938  0.0035 -0.1491
 4447TIP3   OH234831   0.431   2.348  48.530  0.1749 -0.3268  0.3682
 4447TIP3    H134832   0.349   2.298  48.523  0.5100 -0.9195  0.5377
 4447TIP3    H234833   0.407   2.437  48.507 -0.2909 -0.7133 -0.7083
 4448TIP3   OH234834   2.298   0.204  61.651 -0.1984 -0.1905 -0.3234
 4448TIP3    H134835   2.379   0.176  61.608  0.6477  0.1178  1.0142
 4448TIP3    H234836   2.268   0.279  61.600 -1.7224 -2.4473 -3.1094
 4449TIP3   OH234837   1.869   1.077  58.495  0.1359 -0.2925  0.1588
 4449TIP3    H134838   1.900   1.083  58.405 -1.2512  0.7308 -0.2832
 4449TIP3    H234839   1.835   1.165  58.514 -2.9013 -1.4141  0.4030
 4450TIP3   OH234840   2.396   1.264   6.943 -0.1389 -0.4421 -0.1115
 4450TIP3    H134841   2.386   1.169   6.946 -0.4087 -0.4336 -0.8355
 4450TIP3    H234842   2.442   1.281   6.861 -1.1404  0.1481 -0.5636
 4451TIP3   OH234843   2.168   0.293  57.118  0.2583  0.2638 -0.5705
 4451TIP3    H134844   2.208   0.353  57.181 -0.2039  1.2131 -1.1717
 4451TIP3    H234845   2.080   0.327  57.104 -0.1511 -0.7688 -0.6438
 4452TIP3   OH234846   1.568   1.532   6.444  0.3841  0.0838  0.2242
 4452TIP3    H134847   1.535   1.471   6.510  0.9274 -1.8589 -1.2095
 4452TIP3    H234848   1.490   1.563   6.399  0.2199 -1.8276 -0.9036
 4453TIP3   OH234849   3.433   2.166  62.017 -0.0789  0.2601 -0.0318
 4453TIP3    H134850   3.411   2.134  62.105 -0.0455 -0.7093 -0.3747
 4453TIP3    H234851   3.502   2.107  61.986  1.6109  1.9886  0.1988
 4454TIP3   OH234852   2.087   0.766   2.314 -0.1842 -0.3218 -0.0912
 4454TIP3    H134853   2.050   0.702   2.375  0.0981 -1.5655 -1.1938
 4454TIP3    H234854   2.011   0.801   2.267 -0.1165 -2.4794 -1.9719
 4455TIP3   OH234855   0.403   2.931  43.328  0.2746  0.2169  0.1104
 4455TIP3    H134856   0.338   2.994  43.297 -1.6255 -1.2119  0.9862
 4455TIP3    H234857   0.361   2.845  43.318  1.9045 -0.7575  1.0118
 4456TIP3   OH234858   2.319   2.218  21.506 -0.1417  0.1756 -0.3728
 4456TIP3    H134859   2.315   2.146  21.443 -1.1589  0.3732 -0.5451
 4456TIP3    H234860   2.393   2.196  21.562  0.2710 -0.4206 -1.1289
 4457TIP3   OH234861   2.651   0.857  49.660  0.1540 -0.3309  0.5499
 4457TIP3    H134862   2.675   0.769  49.689  0.2512 -0.4925 -0.0135
 4457TIP3    H234863   2.713   0.877  49.590  0.3681  0.3323  0.9226
 4458TIP3   OH234864   2.745   0.591  46.884 -0.1718  0.2975 -0.2246
 4458TIP3    H134865   2.817   0.601  46.946 -0.3454  0.8291 -0.1032
 4458TIP3    H234866   2.683   0.533  46.928  0.2034 -0.1949 -0.3498
 4459TIP3   OH234867   2.888   1.253  48.417  0.4972  0.7481 -0.3478
 4459TIP3    H134868   2.852   1.324  48.470  0.9986  0.1187  0.8724
 4459TIP3    H234869   2.937   1.199  48.479  0.0786 -0.6950 -1.2251
 4460TIP3   OH234870   1.040   2.718   0.582 -0.0872  0.1494  0.2840
 4460TIP3    H134871   0.948   2.737   0.603  0.0203  0.3086  0.6167
 4460TIP3    H234872   1.039   2.627   0.554 -0.1603 -0.2368  1.4849
 4461TIP3   OH234873   2.017   2.121  56.550  0.3434 -0.4488 -0.0642
 4461TIP3    H134874   2.032   2.092  56.640  1.5713  3.1496  1.0809
 4461TIP3    H234875   2.104   2.147  56.519 -0.5964  2.3669 -0.6329
 4462TIP3   OH234876   0.931   1.076  11.369 -0.2603 -0.2613  0.4926
 4462TIP3    H134877   0.997   1.008  11.351  0.4401  0.4028  0.4823
 4462TIP3    H234878   0.880   1.083  11.289 -0.0110 -0.4276  0.3195
 4463TIP3   OH234879   2.615   1.158   5.090  0.2146 -0.2331  0.2344
 4463TIP3    H134880   2.568   1.093   5.142 -0.2040 -0.2212 -0.1220
 4463TIP3    H234881   2.569   1.240   5.105 -0.2743 -0.3393 -0.6044
 4464TIP3   OH234882   2.927   2.227  61.401 -0.3736  0.2299  0.0404
 4464TIP3    H134883   2.860   2.216  61.334  0.5794  1.0012 -1.0811
 4464TIP3    H234884   2.929   2.321  61.418  1.2088  0.3964 -0.8350
 4465TIP3   OH234885   0.863   1.652  55.339  0.2855 -0.0845  0.0564
 4465TIP3    H134886   0.853   1.747  55.345  0.1924 -0.1385  0.8306
 4465TIP3    H234887   0.921   1.629  55.411  0.2327 -0.6347 -0.0681
 4466TIP3   OH234888   1.632   3.384  52.247  0.2744 -0.4689 -0.0045
 4466TIP3    H134889   1.671   3.297  52.255  0.7838 -0.1561  1.2009
 4466TIP3    H234890   1.704   3.441  52.222  1.1922  0.4225  3.8977
 4467TIP3   OH234891   2.334   1.535   4.923 -0.2763 -0.6537 -0.0135
 4467TIP3    H134892   2.423   1.565   4.906  0.2066 -0.4565  2.5272
 4467TIP3    H234893   2.342   1.440   4.930 -0.4137 -0.7059 -0.5451
 4468TIP3   OH234894   0.158   0.802   0.141  1.2351  0.2616  0.3874
 4468TIP3    H134895   0.135   0.785   0.050 -0.3609 -0.0698  0.8177
 4468TIP3    H234896   0.140   0.895   0.154  1.1140  0.2291  0.4549
 4469TIP3   OH234897   0.818   1.912  57.067 -0.1560  0.0680 -0.4306
 4469TIP3    H134898   0.794   2.002  57.048 -0.7249 -0.1097 -0.5722
 4469TIP3    H234899   0.812   1.867  56.983  2.2666  0.3435 -0.8111
 4470TIP3   OH234900   1.142   2.172  14.838  0.3364 -0.1459 -1.1499
 4470TIP3    H134901   1.058   2.138  14.868  0.2031 -1.0344 -2.4615
 4470TIP3    H234902   1.123   2.217  14.756  1.1187 -0.2491 -1.4008
 4471TIP3   OH234903   3.084   0.379  19.200  0.3518 -1.0916  0.5467
 4471TIP3    H134904   3.145   0.364  19.128 -0.6319 -1.2788 -0.2753
 4471TIP3    H234905   3.120   0.455  19.246  0.9479 -0.8949 -0.2151
 4472TIP3   OH234906   1.528   2.460   9.477 -0.6730  0.4847 -0.8615
 4472TIP3    H134907   1.616   2.429   9.500 -1.0243  0.0542 -0.0507
 4472TIP3    H234908   1.514   2.536   9.534 -2.1595 -1.5130  1.6541
 4473TIP3   OH234909   1.187   1.719   3.123  0.1036  0.3342 -0.0130
 4473TIP3    H134910   1.147   1.786   3.178 -0.4851 -0.3065  0.3447
 4473TIP3    H234911   1.122   1.649   3.118  0.6568 -0.1593 -0.4887
 4474TIP3   OH234912   2.918   3.145  18.515  0.0094  0.6927  0.2937
 4474TIP3    H134913   2.894   3.123  18.425  3.6001 -2.6541 -0.1028
 4474TIP3    H234914   2.881   3.232  18.529 -0.8794  1.3088 -4.3359
 4475TIP3   OH234915   0.249   1.771  50.194  0.7590  0.4074  0.2610
 4475TIP3    H134916   0.164   1.797  50.229  0.7328  0.7362 -0.0355
 4475TIP3    H234917   0.304   1.849  50.203  0.9612  0.2680  0.2399
 4476TIP3   OH234918   0.850   2.321  55.272  0.3331  0.5134  0.4113
 4476TIP3    H134919   0.898   2.396  55.237 -1.8640  2.6684  1.6659
 4476TIP3    H234920   0.785   2.301  55.204  0.7252 -0.0756  0.2062
 4477TIP3   OH234921   2.731   3.116   0.292 -0.2371  0.0813  0.2145
 4477TIP3    H134922   2.737   3.069   0.375  1.9621  0.3402  0.2783
 4477TIP3    H234923   2.747   3.049   0.225 -1.3953 -0.0143  0.0147
 4478TIP3   OH234924   1.244   2.990   3.738 -0.6465  0.0795  0.5213
 4478TIP3    H134925   1.225   2.925   3.805 -1.2567  0.2702  0.5446
 4478TIP3    H234926   1.158   3.012   3.701 -0.6757  2.0664  1.6256
 4479TIP3   OH234927   1.738   1.169  48.064  0.0932 -0.4557  0.0283
 4479TIP3    H134928   1.649   1.204  48.072  0.2618  0.0452 -0.2578
 4479TIP3    H234929   1.791   1.243  48.033  0.8483 -0.4252  1.3268
 4480TIP3   OH234930   2.429   0.273  10.914 -0.4440  0.4310 -0.1278
 4480TIP3    H134931   2.417   0.265  11.009 -0.7762 -1.9598 -0.3166
 4480TIP3    H234932   2.524   0.275  10.902 -0.3634 -0.5617  0.2089
 4481TIP3   OH234933   0.568   0.136   1.665 -0.6121 -0.0091 -0.4506
 4481TIP3    H134934   0.577   0.160   1.757 -0.0189 -0.6755 -0.3230
 4481TIP3    H234935   0.649   0.167   1.625  0.0661 -1.5286 -0.3278
 4482TIP3   OH234936   1.690   3.427  63.818  0.1100 -0.3190  0.0168
 4482TIP3    H134937   1.691   3.433  63.723 -1.9877 -0.0083 -0.0376
 4482TIP3    H234938   1.609   3.472  63.844  0.8981  0.0481  1.9807
 4483TIP3   OH234939   0.857   0.071  65.094  0.8500  0.7572  0.3414
 4483TIP3    H134940   0.795   0.079  65.022  0.4668  0.9800  0.6930
 4483TIP3    H234941   0.803   0.062  65.172  1.2175 -2.0911  0.3649
 4484TIP3   OH234942   1.403   1.116  67.410 -0.5465  0.1976 -0.3571
 4484TIP3    H134943   1.481   1.112  67.355 -2.1111  0.9516 -2.8239
 4484TIP3    H234944   1.371   1.026  67.413  1.4015 -0.5270  2.4008
 4485TIP3   OH234945   0.366   0.343  21.329 -0.6008  0.0129 -0.4151
 4485TIP3    H134946   0.324   0.360  21.414 -0.4783 -1.3683 -0.0650
 4485TIP3    H234947   0.387   0.431  21.296 -0.1136  0.5711  1.2599
 4486TIP3   OH234948   0.052   2.173  54.628 -0.2044  0.0887 -0.0914
 4486TIP3    H134949   0.002   2.124  54.562  2.4128 -0.9856 -1.4108
 4486TIP3    H234950   0.084   2.250  54.581 -3.3496  2.7329  1.6766
 4487TIP3   OH234951   0.704   1.277  44.093 -0.1202  0.1099  0.8442
 4487TIP3    H134952   0.777   1.329  44.127  0.5459 -0.2332 -0.0251
 4487TIP3    H234953   0.734   1.186  44.100 -0.7382 -0.0801  1.0991
 4488TIP3   OH234954   1.706   1.602  22.269  0.1964 -0.5064 -0.7279
 4488TIP3    H134955   1.684   1.628  22.179 -1.0321 -1.4755 -0.7254
 4488TIP3    H234956   1.722   1.508  22.264  0.8573 -0.4458 -0.0423
 4489TIP3   OH234957   1.916   2.031  59.543 -0.2523 -0.5116  0.2031
 4489TIP3    H134958   1.835   2.032  59.593 -0.7061  0.4832 -0.5371
 4489TIP3    H234959   1.891   1.998  59.456 -0.2197  1.4287 -0.5827
 4490TIP3   OH234960   0.323   1.167  19.372  0.5351  0.1006  0.2507
 4490TIP3    H134961   0.360   1.086  19.338 -0.5920 -0.7374  0.9754
 4490TIP3    H234962   0.336   1.162  19.467  0.5992  0.8410  0.2871
 4491TIP3   OH234963   2.964   0.834   7.657  0.1292  0.1245  0.4729
 4491TIP3    H134964   2.956   0.919   7.614 -0.2444 -0.1347  0.0241
 4491TIP3    H234965   2.946   0.770   7.588 -3.2158 -0.2642  1.5458
 4492TIP3   OH234966   2.154   1.946   0.633 -0.2728  0.9290  0.4865
 4492TIP3    H134967   2.123   1.882   0.698  0.5277  1.0066  0.9554
 4492TIP3    H234968   2.074   1.992   0.606 -0.8633 -0.2627  0.1273
 4493TIP3   OH234969   2.601   2.235  19.253 -0.7390  0.3287  0.7851
 4493TIP3    H134970   2.523   2.239  19.196 -0.9997  1.9957  1.2211
 4493TIP3    H234971   2.583   2.298  19.322 -0.0824 -1.1067  2.3287
 4494TIP3   OH234972   2.898   1.906  11.388  0.2451 -0.3696 -0.0878
 4494TIP3    H134973   2.855   1.942  11.466  0.1431  1.6807 -1.0339
 4494TIP3    H234974   2.826   1.878  11.332  0.2595 -0.0077 -0.2844
 4495TIP3   OH234975   1.243   3.128  64.255 -0.1327  0.3866  0.0753
 4495TIP3    H134976   1.171   3.166  64.206 -1.4147 -0.3478  1.2972
 4495TIP3    H234977   1.278   3.059  64.198 -0.3309  0.8235 -0.5738
 4496TIP3   OH234978   1.219   2.841  11.973  0.0130 -0.6554  0.4557
 4496TIP3    H134979   1.263   2.925  11.958  0.1820 -0.7373  0.5044
 4496TIP3    H234980   1.125   2.863  11.966  0.0301 -1.0287 -2.7317
 4497TIP3   OH234981   0.820   0.890  58.218  0.3865  0.4085 -0.3012
 4497TIP3    H134982   0.760   0.955  58.253  0.2215 -0.2119  0.5977
 4497TIP3    H234983   0.768   0.841  58.155 -0.0120 -0.0017  0.3323
 4498TIP3   OH234984   2.623   3.256  19.115 -0.4837 -0.5386 -0.2702
 4498TIP3    H134985   2.574   3.188  19.069 -1.7474  1.0360 -1.3461
 4498TIP3    H234986   2.683   3.291  19.049 -0.3365 -0.1324  0.0781
 4499TIP3   OH234987   1.992   1.326   4.143 -0.4355 -0.3632  0.1542
 4499TIP3    H134988   1.961   1.337   4.053 -0.1700 -2.6783 -0.2883
 4499TIP3    H234989   2.065   1.265   4.136 -1.2185 -1.6126  2.0486
 4500TIP3   OH234990   0.535   1.373  56.075  0.0031 -0.2068 -0.0145
 4500TIP3    H134991   0.569   1.427  56.146 -0.3434  1.3170 -0.9549
 4500TIP3    H234992   0.538   1.429  55.998  1.0957 -2.0529 -1.4062
 4501TIP3   OH234993   1.457   0.518   5.097 -0.5659 -0.2093  0.5283
 4501TIP3    H134994   1.534   0.566   5.128 -1.4971  1.7196 -0.0111
 4501TIP3    H234995   1.492   0.453   5.036  0.6708  0.3364  0.6243
 4502TIP3   OH234996   0.119   0.011  10.150 -0.8001  0.2676 -0.2502
 4502TIP3    H134997   0.054  -0.047  10.191 -0.6797  0.2447 -0.0930
 4502TIP3    H234998   0.199  -0.040  10.148 -0.4659  0.7375  0.6874
 4503TIP3   OH234999   2.825   2.349  55.588  0.3608 -0.0518  0.3616
 4503TIP3    H135000   2.841   2.323  55.497 -2.3541 -0.9480  0.0541
 4503TIP3    H235001   2.797   2.268  55.632  1.4577  0.4031  1.9875
 4504TIP3   OH235002   2.409   3.363  46.784  0.0104 -0.8378  0.5050
 4504TIP3    H135003   2.426   3.437  46.727  2.8294 -1.3074  0.5715
 4504TIP3    H235004   2.370   3.296  46.727 -0.5097 -0.0830 -0.0380
 4505TIP3   OH235005   1.877   3.131  64.748 -0.0963 -0.0768 -0.5457
 4505TIP3    H135006   1.885   3.051  64.695 -1.4912 -0.6901  0.1202
 4505TIP3    H235007   1.923   3.198  64.697  0.7199 -1.1980 -1.3287
 4506TIP3   OH235008   3.349   0.919  54.630  0.5844 -0.1018  0.1638
 4506TIP3    H135009   3.342   0.839  54.577  1.2428 -0.6754  0.9127
 4506TIP3    H235010   3.426   0.964  54.596 -0.6902  1.0560 -1.3202
 4507TIP3   OH235011   2.559   0.400  54.851  0.0529  0.2979  0.1589
 4507TIP3    H135012   2.478   0.372  54.893  0.0811 -0.6727 -0.3974
 4507TIP3    H235013   2.628   0.357  54.902  0.2105  0.9212  0.4787
 4508TIP3   OH235014   1.656   2.964  18.888  0.1119  0.3774  0.6753
 4508TIP3    H135015   1.672   3.058  18.896  0.1882  0.4192  0.0801
 4508TIP3    H235016   1.628   2.937  18.975 -1.2684  1.2038  0.5109
 4509TIP3   OH235017   1.753   2.225  65.875  0.5436 -0.1895 -0.0180
 4509TIP3    H135018   1.848   2.210  65.884  0.4051 -0.4759  1.1850
 4509TIP3    H235019   1.718   2.203  65.962 -0.2259  2.9936  0.5914
 4510TIP3   OH235020   0.391   1.750  64.269  0.1336  0.5624 -0.4521
 4510TIP3    H135021   0.334   1.680  64.236  0.4227 -0.3608  0.9238
 4510TIP3    H235022   0.477   1.709  64.278 -0.0734  0.5053  2.0911
 4511TIP3   OH235023   1.395   0.657  59.499  0.4942  0.3068  0.6296
 4511TIP3    H135024   1.486   0.684  59.484  0.0609  1.3110 -0.2883
 4511TIP3    H235025   1.346   0.739  59.502 -0.5619 -0.2797 -0.1283
 4512TIP3   OH235026   0.690   2.291  60.932  0.4215 -0.0215  0.4415
 4512TIP3    H135027   0.742   2.370  60.943  0.3645  0.2354 -1.0535
 4512TIP3    H235028   0.728   2.229  60.995  0.7187  1.0448  1.3460
 4513TIP3   OH235029   2.467   3.321   9.517  0.3411  0.2281 -0.2017
 4513TIP3    H135030   2.380   3.322   9.556  0.2968  1.8765 -0.2791
 4513TIP3    H235031   2.497   3.231   9.527 -0.6635  0.0456  1.4049
 4514TIP3   OH235032   3.149   2.726   6.557 -0.3419  0.0220 -0.2654
 4514TIP3    H135033   3.214   2.679   6.609 -1.2791 -0.3304  0.6054
 4514TIP3    H235034   3.178   2.817   6.558  0.6388 -0.2686 -0.6735
 4515TIP3   OH235035   2.728   2.761  45.110  0.4782 -0.3710 -0.2480
 4515TIP3    H135036   2.747   2.668  45.104  3.5043  0.1856 -0.6853
 4515TIP3    H235037   2.805   2.804  45.072 -0.4258  2.3306  0.7416
 4516TIP3   OH235038   1.262   1.368  62.825 -0.3442 -0.4436 -0.1973
 4516TIP3    H135039   1.177   1.323  62.823 -1.8346  2.1500 -0.3233
 4516TIP3    H235040   1.293   1.366  62.735 -0.8060 -0.5077 -0.3567
 4517TIP3   OH235041   0.228   0.019  19.440 -0.1644  0.1552  0.0748
 4517TIP3    H135042   0.151   0.031  19.386 -0.6792 -2.3927  0.1064
 4517TIP3    H235043   0.269  -0.061  19.406  3.1420  1.9413 -0.6699
 4518TIP3   OH235044   0.100   2.301  58.835  0.4277  0.2099 -0.4810
 4518TIP3    H135045   0.123   2.379  58.785  3.1874  0.1607  0.4943
 4518TIP3    H235046   0.080   2.235  58.769 -0.6542  1.3643 -1.3513
 4519TIP3   OH235047   2.042   3.344  15.470 -0.0187  0.0166 -0.1298
 4519TIP3    H135048   2.045   3.251  15.448  4.7261 -0.5245  1.6710
 4519TIP3    H235049   1.989   3.383  15.400  0.3671 -3.5929 -2.7223
 4520TIP3   OH235050   2.766   2.859  62.451 -0.0676  0.1759 -0.5515
 4520TIP3    H135051   2.718   2.843  62.370  0.6799  2.0897 -1.4207
 4520TIP3    H235052   2.698   2.884  62.514 -0.4094  1.3365 -1.3424
 4521TIP3   OH235053   1.081   3.350  59.375 -0.3658  0.5868  0.3189
 4521TIP3    H135054   1.055   3.315  59.290  1.7528 -3.1429  0.9732
 4521TIP3    H235055   1.015   3.317  59.436  0.0809  0.1908  0.5877
 4522TIP3   OH235056   0.464   0.689  56.325  0.4615 -0.1531 -0.0528
 4522TIP3    H135057   0.411   0.629  56.272 -3.4810  3.3251 -0.5492
 4522TIP3    H235058   0.446   0.664  56.415 -0.1313 -0.4940 -0.2596
 4523TIP3   OH235059   2.033   2.089  53.555  0.2269  0.6001  0.2812
 4523TIP3    H135060   2.063   2.164  53.606  0.6204  0.7191 -0.1166
 4523TIP3    H235061   2.112   2.056  53.512  0.1254 -0.2523  0.7169
 4524TIP3   OH235062   3.343   3.354  65.943 -0.2277  0.2524  0.0891
 4524TIP3    H135063   3.375   3.264  65.952 -0.5648  0.1845  0.6677
 4524TIP3    H235064   3.252   3.350  65.972  0.3425  1.1770  2.1916
 4525TIP3   OH235065   0.479   3.010  34.564  0.0540 -0.4241  1.0322
 4525TIP3    H135066   0.532   2.952  34.619  0.2637  0.6784  2.0421
 4525TIP3    H235067   0.446   2.953  34.494  1.3397 -1.4597  1.2172
 4526TIP3   OH235068   2.790   0.714  54.446 -0.0640  0.2420  0.0233
 4526TIP3    H135069   2.792   0.768  54.525  2.4584 -0.5199  0.5745
 4526TIP3    H235070   2.865   0.656  54.455 -0.6507 -0.9693 -2.2015
 4527TIP3   OH235071   1.375   2.826  57.828 -0.6521 -0.2331 -0.4057
 4527TIP3    H135072   1.449   2.886  57.831 -0.6990 -0.2026  0.7500
 4527TIP3    H235073   1.407   2.751  57.778 -0.5005  0.6025 -1.6027
 4528TIP3   OH235074   2.190   1.294  64.562 -0.6846  0.2639 -0.2868
 4528TIP3    H135075   2.247   1.219  64.547 -0.7086  0.3781 -0.9672
 4528TIP3    H235076   2.103   1.263  64.535 -0.7603  0.4166 -0.2148
 4529TIP3   OH235077   1.645   3.159  51.430  0.0869 -0.1969 -0.1111
 4529TIP3    H135078   1.733   3.157  51.469  0.2192  2.2068 -0.1334
 4529TIP3    H235079   1.586   3.150  51.505  0.1867 -4.0693 -0.2600
 4530TIP3   OH235080   1.321   2.751  35.517 -0.7377 -0.4224 -0.1979
 4530TIP3    H135081   1.351   2.829  35.564 -0.9440 -1.3673  1.5422
 4530TIP3    H235082   1.357   2.762  35.429  0.3832  0.9723  0.3910
 4531TIP3   OH235083   0.610   1.510  49.553  0.6179  0.7018  0.3499
 4531TIP3    H135084   0.603   1.416  49.569 -0.8722  0.7949  0.3829
 4531TIP3    H235085   0.554   1.550  49.620  0.2398  1.5321 -0.4469
 4532TIP3   OH235086   2.769   0.291  18.299  0.2836 -0.0007 -0.1501
 4532TIP3    H135087   2.748   0.309  18.391 -1.0474 -0.0257 -0.4274
 4532TIP3    H235088   2.769   0.195  18.293 -1.6703 -0.0323 -0.5609
 4533TIP3   OH235089   3.089   0.497   5.876  0.4459  0.1795 -1.2946
 4533TIP3    H135090   3.082   0.406   5.906  0.6816  0.0329 -1.6809
 4533TIP3    H235091   3.045   0.498   5.791 -1.5080  0.9135 -0.3292
 4534TIP3   OH235092   0.200   1.836  15.479 -0.1138  0.1655  0.6719
 4534TIP3    H135093   0.181   1.810  15.388  0.4948  0.7584  0.3675
 4534TIP3    H235094   0.295   1.846  15.482 -0.0210 -0.8750  1.6701
 4535TIP3   OH235095   2.428   1.065   3.311  0.0247 -0.6944  0.1950
 4535TIP3    H135096   2.480   1.109   3.244  1.1713  1.2814  2.2375
 4535TIP3    H235097   2.452   0.973   3.304  3.6463  0.0623  0.8165
 4536TIP3   OH235098   1.120   0.658   3.808  0.5992 -0.2484  0.4090
 4536TIP3    H135099   1.156   0.570   3.818  1.5436 -0.2842 -2.3408
 4536TIP3    H235100   1.026   0.646   3.798  0.7184 -0.9463  0.1086
 4537TIP3   OH235101   3.198   1.241  14.377  0.4162 -0.0684 -0.9162
 4537TIP3    H135102   3.245   1.258  14.295  2.1512  0.7817  0.1988
 4537TIP3    H235103   3.220   1.150  14.399  0.5414 -0.0645 -1.0212
 4538TIP3   OH235104   0.436   2.729  21.125 -0.5437 -0.0039 -0.1219
 4538TIP3    H135105   0.403   2.649  21.084  0.5503 -1.9298  2.4455
 4538TIP3    H235106   0.365   2.792  21.118 -1.9872 -1.6589 -1.0347
 4539TIP3   OH235107   0.770   1.784  17.913  0.6172 -0.3934 -0.1424
 4539TIP3    H135108   0.815   1.839  17.977 -0.5065  0.9566 -0.4641
 4539TIP3    H235109   0.680   1.817  17.912  0.2845 -1.2591 -1.4544
 4540TIP3   OH235110   0.380   1.767  13.395  0.4144 -0.3359 -0.1783
 4540TIP3    H135111   0.324   1.844  13.391 -0.4428 -0.7210  2.5231
 4540TIP3    H235112   0.320   1.695  13.418  1.7705 -1.0070  1.4675
 4541TIP3   OH235113   2.326   2.598  54.216 -0.0457 -0.7477 -0.5588
 4541TIP3    H135114   2.278   2.559  54.143  3.2858 -1.1511 -2.7846
 4541TIP3    H235115   2.410   2.553  54.217  0.6660  0.3649  2.5889
 4542TIP3   OH235116   0.889   2.809   9.603 -0.4310 -0.2857  0.2012
 4542TIP3    H135117   0.959   2.748   9.627 -0.8688 -1.3138 -1.0147
 4542TIP3    H235118   0.935   2.890   9.582  0.5029 -1.1491 -1.2423
 4543TIP3   OH235119   2.240   3.196   8.829 -0.6243 -0.6686 -0.2818
 4543TIP3    H135120   2.272   3.234   8.747 -0.0530 -0.4435  0.0461
 4543TIP3    H235121   2.161   3.148   8.803 -1.3396  0.6752 -0.7268
 4544TIP3   OH235122   2.476   1.373  56.886 -0.1248 -0.2635  0.4763
 4544TIP3    H135123   2.461   1.320  56.964  0.3928 -1.0488  0.0499
 4544TIP3    H235124   2.571   1.388  56.884  0.1516 -1.8304 -0.9779
 4545TIP3   OH235125   0.225   2.382  54.555 -0.0050  0.4687  0.0918
 4545TIP3    H135126   0.319   2.365  54.564 -0.0320 -0.1504 -0.6513
 4545TIP3    H235127   0.219   2.456  54.495  0.0436  1.7195  1.5679
 4546TIP3   OH235128   1.755   2.457  49.238  0.2869  0.0433  0.1835
 4546TIP3    H135129   1.733   2.504  49.318 -0.4453  1.2905 -0.7179
 4546TIP3    H235130   1.821   2.393  49.265  0.7360  1.0625  1.6068
 4547TIP3   OH235131   0.043   0.651   0.502  0.1711  0.1542 -0.4899
 4547TIP3    H135132   0.039   0.602   0.420 -0.7642 -0.1354 -0.2865
 4547TIP3    H235133   0.131   0.687   0.505  0.0119  0.7081 -1.9368
 4548TIP3   OH235134   1.271   0.130  10.419 -0.5284  0.0884  0.2596
 4548TIP3    H135135   1.238   0.069  10.485 -1.2984  2.8243  2.6588
 4548TIP3    H235136   1.363   0.144  10.443 -0.5543  0.3968  0.1839
 4549TIP3   OH235137   0.698   3.380  38.769  0.4096 -0.0779 -0.8674
 4549TIP3    H135138   0.672   3.343  38.684  1.5706  1.9437 -2.1775
 4549TIP3    H235139   0.714   3.473  38.751  0.0094  0.5703  1.7442
 4550TIP3   OH235140   0.657   2.364  61.346  0.0067  0.8394 -0.1184
 4550TIP3    H135141   0.663   2.459  61.349  1.5760  0.7575  2.8041
 4550TIP3    H235142   0.741   2.336  61.311  1.0036  0.5486  2.2924
 4551TIP3   OH235143   2.463   0.125  30.811  0.3166  0.0993  0.6532
 4551TIP3    H135144   2.431   0.038  30.786 -0.4561  1.1076 -2.2628
 4551TIP3    H235145   2.556   0.125  30.786  0.1145  0.3528 -0.1220
 4552TIP3   OH235146   0.254   1.386  43.823  0.1020  0.1677  0.0919
 4552TIP3    H135147   0.291   1.305  43.790  0.1688  0.7319 -1.2525
 4552TIP3    H235148   0.187   1.358  43.885 -0.6313 -0.9383 -1.1642
 4553TIP3   OH235149   1.015   2.310  18.206 -0.0563  0.0589  0.3154
 4553TIP3    H135150   1.056   2.231  18.244  1.2982  1.0676  1.0428
 4553TIP3    H235151   1.030   2.300  18.112  0.8522 -0.1758  0.4651
 4554TIP3   OH235152   0.224   1.153  58.656 -0.2288 -0.5451 -0.0339
 4554TIP3    H135153   0.147   1.098  58.672  1.4923 -2.2406  3.3971
 4554TIP3    H235154   0.230   1.209  58.733  1.0120  0.8650 -1.1010
 4555TIP3   OH235155   0.660   2.237  44.224 -0.3636  0.8344 -0.2934
 4555TIP3    H135156   0.621   2.203  44.304  1.1774  0.1024  0.1842
 4555TIP3    H235157   0.754   2.243  44.244 -0.3366  3.9236 -0.8805
 4556TIP3   OH235158   0.974   2.602   2.201  0.2147 -0.3489  0.2757
 4556TIP3    H135159   1.048   2.660   2.188  0.1452 -0.7096 -2.0783
 4556TIP3    H235160   0.976   2.542   2.126 -2.0483 -0.7912  0.4889
 4557TIP3   OH235161   0.333   2.675  12.264  0.2212 -0.8298  0.4350
 4557TIP3    H135162   0.427   2.681  12.251  0.3941 -2.1597  0.9004
 4557TIP3    H235163   0.322   2.639  12.352 -0.7510  0.1888  0.7526
 4558TIP3   OH235164   0.681   0.781  50.607 -0.0957  0.1466  0.3443
 4558TIP3    H135165   0.617   0.713  50.583 -0.1158  0.3266 -0.1122
 4558TIP3    H235166   0.751   0.772  50.543 -0.9760  1.7916 -0.9255
 4559TIP3   OH235167   1.892   0.180   5.657  0.0183 -0.6558 -0.7573
 4559TIP3    H135168   1.940   0.100   5.678  0.5359  0.1202  1.2809
 4559TIP3    H235169   1.954   0.234   5.608 -0.6048 -1.7593 -2.9171
 4560TIP3   OH235170   0.070   1.811  47.880 -0.4613 -0.3903  0.0801
 4560TIP3    H135171   0.097   1.878  47.817 -2.2784 -0.7824 -1.2072
 4560TIP3    H235172   0.146   1.753  47.888  1.1379  1.6941  1.1716
 4561TIP3   OH235173   0.891   1.157  45.269 -0.2737  0.1173 -0.2111
 4561TIP3    H135174   0.802   1.182  45.294  0.3855  1.0633  1.3387
 4561TIP3    H235175   0.893   1.167  45.174 -1.6713  0.5663 -0.2105
 4562TIP3   OH235176   0.459   1.364  50.618  0.7146 -0.1617  0.5151
 4562TIP3    H135177   0.519   1.423  50.572 -1.0287  0.7604 -0.6542
 4562TIP3    H235178   0.437   1.297  50.553 -0.4029  0.1487  0.5657
 4563TIP3   OH235179   0.465   1.783   4.227  0.9371  0.5861 -0.3350
 4563TIP3    H135180   0.454   1.725   4.152  1.7111 -0.6466  0.4732
 4563TIP3    H235181   0.444   1.870   4.194 -0.7561 -0.2102 -1.4473
 4564TIP3   OH235182   1.351   2.008  33.450  0.2036 -0.2722 -0.2339
 4564TIP3    H135183   1.405   2.086  33.464 -1.5671  0.9080  0.2774
 4564TIP3    H235184   1.338   1.972  33.537  2.4078 -2.2085 -0.5941
 4565TIP3   OH235185   2.893   2.102  21.947  0.1740 -0.3472 -0.0422
 4565TIP3    H135186   2.844   2.174  21.906  0.2793 -1.5701 -2.4665
 4565TIP3    H235187   2.980   2.138  21.961  0.3152 -0.0380 -1.5185
 4566TIP3   OH235188   3.290   2.453  46.527  0.1057 -0.1038 -0.0530
 4566TIP3    H135189   3.240   2.526  46.565 -0.6789 -0.1415 -0.9694
 4566TIP3    H235190   3.377   2.460  46.567  0.5209  2.2406 -1.2025
 4567TIP3   OH235191   2.092   2.776  19.538  0.2138 -0.2748 -0.1262
 4567TIP3    H135192   2.125   2.808  19.622 -0.2984 -1.2555  0.4606
 4567TIP3    H235193   2.161   2.799  19.476  0.3855  0.8958  0.4629
 4568TIP3   OH235194   2.162   3.053  67.258  0.1560  0.6709 -0.0262
 4568TIP3    H135195   2.087   3.018  67.209  0.1923  1.5246 -0.7261
 4568TIP3    H235196   2.159   3.008  67.342 -0.3873 -0.2476 -0.5235
 4569TIP3   OH235197   3.319   1.913  54.714 -0.2138 -0.3506  0.5789
 4569TIP3    H135198   3.292   1.975  54.782  0.0414  0.0671  0.3085
 4569TIP3    H235199   3.315   1.964  54.633  0.5047 -0.5346  0.4168
 4570TIP3   OH235200   2.354   2.176  18.431 -0.2197 -0.9949  0.0318
 4570TIP3    H135201   2.379   2.087  18.409 -0.0243 -0.9971  0.2602
 4570TIP3    H235202   2.400   2.230  18.366 -1.6136 -1.1511 -1.1358
 4571TIP3   OH235203   1.569   0.574  50.594  0.3283  0.0661 -0.0961
 4571TIP3    H135204   1.571   0.592  50.500 -1.4343  0.4771 -0.0864
 4571TIP3    H235205   1.653   0.532  50.612 -0.4608 -2.8916 -2.4509
 4572TIP3   OH235206   0.405   1.780   5.742 -0.1088  0.0062  0.7186
 4572TIP3    H135207   0.353   1.855   5.713  0.6250 -0.2171 -1.4022
 4572TIP3    H235208   0.356   1.743   5.815 -1.1389  1.7930  0.9913
 4573TIP3   OH235209   0.091   0.540  60.103 -0.3046  0.1909  0.0025
 4573TIP3    H135210   0.020   0.477  60.114  1.8332 -2.5515 -0.6761
 4573TIP3    H235211   0.088   0.564  60.011 -0.3883  0.1142 -0.0150
 4574TIP3   OH235212   0.947   3.075  15.553 -0.0673 -0.1353  0.6979
 4574TIP3    H135213   0.920   2.983  15.545  1.7321 -0.5533 -1.5299
 4574TIP3    H235214   1.030   3.080  15.505 -0.8685  2.9727 -0.6186
 4575TIP3   OH235215   2.336   3.199   2.067  0.0025 -0.7359 -0.3081
 4575TIP3    H135216   2.356   3.130   2.130 -0.8723 -1.2325 -0.5706
 4575TIP3    H235217   2.402   3.267   2.085  1.2541 -1.8681 -0.4408
 4576TIP3   OH235218   2.325   3.444  16.179  0.4485 -0.1038 -0.5976
 4576TIP3    H135219   2.338   3.350  16.172 -1.2345 -0.5880  1.7348
 4576TIP3    H235220   2.383   3.471  16.250 -2.4332 -0.3485  2.0860
 4577TIP3   OH235221   2.360   2.833  10.692  0.4450  0.2854  0.1281
 4577TIP3    H135222   2.445   2.833  10.736  0.3575  1.7816  0.3648
 4577TIP3    H235223   2.369   2.770  10.621  1.7229  0.3476  0.2208
 4578TIP3   OH235224   2.017   1.967  52.084  0.0885  0.0558  0.0975
 4578TIP3    H135225   2.110   1.985  52.073  0.0670 -0.7761 -1.9204
 4578TIP3    H235226   1.973   2.035  52.033 -0.1916 -1.7773 -2.3104
 4579TIP3   OH235227   0.088   3.291  17.524 -0.1816  0.1738 -0.6581
 4579TIP3    H135228   0.088   3.386  17.538 -0.7450 -0.0821  1.4757
 4579TIP3    H235229  -0.004   3.268  17.519 -0.0300 -0.1629 -2.1928
 4580TIP3   OH235230   2.042   1.092  20.933  0.3064  0.3242 -0.3766
 4580TIP3    H135231   1.999   1.177  20.935  2.0240  1.2374 -0.8829
 4580TIP3    H235232   1.970   1.029  20.936 -0.9748  1.7669  0.6564
 4581TIP3   OH235233   2.911   0.982  42.441  0.0032  0.1965  0.0435
 4581TIP3    H135234   2.993   0.976  42.489  0.9915 -0.6396 -1.6553
 4581TIP3    H235235   2.922   1.058  42.384 -0.9126  0.8198  0.6708
 4582TIP3   OH235236   2.278   1.298  46.634 -0.0149  0.3222  0.0891
 4582TIP3    H135237   2.205   1.237  46.625  0.0233  0.5977 -2.8569
 4582TIP3    H235238   2.334   1.280  46.559  2.9490  0.2125  2.1775
 4583TIP3   OH235239   3.378   1.575   6.340  0.0308 -0.1356  0.6631
 4583TIP3    H135240   3.405   1.535   6.422 -0.8455 -0.7169  0.6729
 4583TIP3    H235241   3.351   1.664   6.363  1.0423  0.1607  0.7863
 4584TIP3   OH235242   0.626   0.511   1.476 -0.3731 -0.3556 -0.6893
 4584TIP3    H135243   0.662   0.513   1.388  0.2849 -0.6584 -0.4375
 4584TIP3    H235244   0.585   0.425   1.484 -0.5018 -0.2974 -0.7298
 4585TIP3   OH235245   2.248   0.267  58.948 -0.4010 -0.0824  0.1842
 4585TIP3    H135246   2.322   0.219  58.910  0.2189 -0.3394  1.6545
 4585TIP3    H235247   2.192   0.288  58.873  1.3371  0.4569 -1.0191
 4586TIP3   OH235248   0.539   1.451  43.949 -0.3636 -0.3462 -0.1727
 4586TIP3    H135249   0.471   1.406  43.899  0.0649 -2.3284  0.9155
 4586TIP3    H235250   0.587   1.380  43.993  1.3106  1.1090  0.4493
 4587TIP3   OH235251   1.219   2.005  38.347 -0.5194  0.1279  0.0902
 4587TIP3    H135252   1.169   1.926  38.368 -1.9348  0.9272 -0.1236
 4587TIP3    H235253   1.296   1.973  38.300 -1.5442 -1.0686 -0.8603
 4588TIP3   OH235254   1.450   2.121  62.429 -0.0833  0.3685  0.1461
 4588TIP3    H135255   1.444   2.213  62.405  2.3106  0.0266 -2.1860
 4588TIP3    H235256   1.495   2.080  62.356 -0.1609 -2.4944  1.5663
 4589TIP3   OH235257   1.948   0.421  56.931 -0.5912  0.1671  0.2187
 4589TIP3    H135258   2.034   0.429  56.891 -0.5470  1.2921  0.5009
 4589TIP3    H235259   1.924   0.511  56.954 -0.7945 -0.3714  2.3165
 4590TIP3   OH235260   2.070   2.612  57.499  0.1341  0.1484  0.2790
 4590TIP3    H135261   2.123   2.581  57.425  1.3860 -1.1047  1.6245
 4590TIP3    H235262   1.984   2.571  57.486 -1.0920  3.1829 -2.5972
 4591TIP3   OH235263   1.416   1.797   1.478 -0.7370  0.7436 -1.0291
 4591TIP3    H135264   1.492   1.741   1.493 -1.6800 -0.7269 -1.4270
 4591TIP3    H235265   1.452   1.883   1.457  0.7670  0.4288  0.1082
 4592TIP3   OH235266   1.687   1.786  12.061  0.0747  0.0872 -0.6028
 4592TIP3    H135267   1.592   1.783  12.068  0.2002 -0.2444  3.4950
 4592TIP3    H235268   1.715   1.695  12.069  0.7048  0.3825  1.3100
 4593TIP3   OH235269   1.153   0.269   6.153 -0.4306  0.0493 -0.2040
 4593TIP3    H135270   1.218   0.257   6.083 -0.9785  1.0999 -0.9341
 4593TIP3    H235271   1.070   0.243   6.113 -0.6110 -0.2915  0.3852
 4594TIP3   OH235272   1.449   2.509  20.370 -0.3857 -0.1919 -0.3880
 4594TIP3    H135273   1.504   2.579  20.406 -1.6853 -0.1519  1.6634
 4594TIP3    H235274   1.510   2.454  20.322  0.9299  1.4899 -0.7624
 4595TIP3   OH235275   1.914   2.822  50.992  0.6404  0.1252  0.0401
 4595TIP3    H135276   1.938   2.914  50.996  1.1733  0.1146 -1.9674
 4595TIP3    H235277   1.921   2.799  50.899 -2.3428 -1.1942  0.0342
 4596TIP3   OH235278   1.243   0.089   7.277 -0.2225 -0.2040  0.4399
 4596TIP3    H135279   1.286   0.039   7.347 -0.1221 -0.2777  0.3278
 4596TIP3    H235280   1.188   0.025   7.232 -1.5501  0.1923  1.4514
 4597TIP3   OH235281   3.231   2.599  62.046 -0.2416 -0.0884  0.2342
 4597TIP3    H135282   3.187   2.561  62.121  2.9437 -1.3907  1.6271
 4597TIP3    H235283   3.251   2.689  62.072  1.0135 -0.5908  1.0809
 4598TIP3   OH235284   1.094   3.195  60.742  0.3463  0.6118  0.2869
 4598TIP3    H135285   1.095   3.273  60.687  1.7291 -0.6231 -1.5495
 4598TIP3    H235286   1.183   3.162  60.740 -0.5104 -1.8969 -0.3337
 4599TIP3   OH235287   3.273   0.182   5.462  0.2841 -0.2506  0.4373
 4599TIP3    H135288   3.208   0.175   5.532  1.2612 -0.7401  1.3306
 4599TIP3    H235289   3.235   0.135   5.389 -0.8774  0.4865  0.5354
 4600TIP3   OH235290   1.607   2.822   3.193  0.0182  0.1888  0.1634
 4600TIP3    H135291   1.693   2.834   3.233  0.6574  0.6834 -1.2866
 4600TIP3    H235292   1.545   2.838   3.265  1.1155 -0.8607  1.3981
 4601TIP3   OH235293   0.628   0.128  51.584 -0.0612 -0.1080  0.6743
 4601TIP3    H135294   0.667   0.044  51.606  0.4803  0.1497  0.7042
 4601TIP3    H235295   0.689   0.193  51.619  0.0227  0.3029 -0.2122
 4602TIP3   OH235296   2.137   1.404  20.797  0.2515  0.1026  0.6790
 4602TIP3    H135297   2.050   1.365  20.787  0.4390 -0.1797  0.1470
 4602TIP3    H235298   2.142   1.427  20.890 -0.5789  0.5555  0.6248
 4603TIP3   OH235299   3.203   0.548  64.616 -0.1533 -0.1728  0.2598
 4603TIP3    H135300   3.261   0.623  64.633 -1.6916  1.4212 -1.1046
 4603TIP3    H235301   3.194   0.505  64.701 -0.7655  2.3770  1.5813
 4604TIP3   OH235302   0.245   2.330  63.162  0.4268  0.2235  0.2917
 4604TIP3    H135303   0.221   2.406  63.110  1.0593  0.1288 -0.1514
 4604TIP3    H235304   0.308   2.364  63.226  2.0197 -0.2048 -0.9766
 4605TIP3   OH235305   3.240   2.700  20.483 -0.1661 -0.1042 -0.0290
 4605TIP3    H135306   3.187   2.774  20.513  0.1012 -0.2997  0.9814
 4605TIP3    H235307   3.200   2.673  20.400 -0.5363  0.8849 -0.1904
 4606TIP3   OH235308   0.745   0.307  52.864  0.4152  0.1334  0.0734
 4606TIP3    H135309   0.781   0.270  52.784  0.3471  1.6572 -0.7172
 4606TIP3    H235310   0.759   0.241  52.931  1.5050 -0.7076 -0.9604
 4607TIP3   OH235311   0.941   1.986  55.914 -0.5717  0.2617  0.2087
 4607TIP3    H135312   0.896   2.050  55.970  1.3245 -0.4790  2.7775
 4607TIP3    H235313   0.926   1.902  55.957 -1.2107 -0.7681 -1.9141
 4608TIP3   OH235314   2.996   0.961  54.351  0.0862 -0.0156  0.7340
 4608TIP3    H135315   3.021   1.001  54.435 -0.7621  0.1987  0.8956
 4608TIP3    H235316   3.063   0.991  54.290  0.0557  0.8082  1.0855
 4609TIP3   OH235317   2.442   1.865   9.360 -0.0241  0.5653  0.0794
 4609TIP3    H135318   2.400   1.797   9.412 -1.2948  0.8821 -0.4875
 4609TIP3    H235319   2.525   1.827   9.333 -0.7898 -0.8531 -0.4025
 4610TIP3   OH235320   1.204   1.487  10.017  0.2737 -0.0079  0.5976
 4610TIP3    H135321   1.209   1.392  10.024 -1.4620 -0.0883  1.2112
 4610TIP3    H235322   1.136   1.504   9.953 -0.0998  0.8041  1.1807
 4611TIP3   OH235323   2.968   1.501  12.716  0.1965 -0.4437  0.4063
 4611TIP3    H135324   2.886   1.511  12.668 -0.2153 -0.4088  1.1099
 4611TIP3    H235325   2.981   1.585  12.759 -1.0386 -1.3949  2.8195
 4612TIP3   OH235326   3.302   2.503  60.600  0.1242 -0.0434  0.0713
 4612TIP3    H135327   3.375   2.562  60.622 -0.6711  0.5613  1.2087
 4612TIP3    H235328   3.288   2.452  60.680  1.1803 -2.2646 -1.0719
 4613TIP3   OH235329   1.292   1.723  60.474 -0.3218 -0.4029  0.1387
 4613TIP3    H135330   1.228   1.682  60.415  0.1835  0.6815 -1.2133
 4613TIP3    H235331   1.343   1.650  60.509 -1.8815 -1.2439  0.7935
 4614TIP3   OH235332   1.357   3.440   1.238 -0.1000 -0.3613 -0.5682
 4614TIP3    H135333   1.369   3.524   1.195  0.0481  0.2788  0.6581
 4614TIP3    H235334   1.267   3.415   1.217  0.3956 -0.7360 -2.3257
 4615TIP3   OH235335   2.382   3.116  21.676  0.3034  0.1530  0.2414
 4615TIP3    H135336   2.408   3.036  21.629 -1.4382 -0.1948 -0.2263
 4615TIP3    H235337   2.381   3.090  21.768 -1.8256 -0.9195 -0.0184
 4616TIP3   OH235338   1.636   2.225  44.069  0.3062 -0.0253  0.0006
 4616TIP3    H135339   1.636   2.131  44.088  0.1920 -0.1686 -0.6910
 4616TIP3    H235340   1.679   2.265  44.145 -1.4569 -0.4364  1.3060
 4617TIP3   OH235341   2.092   3.035  11.564 -0.2038 -0.0463  0.0191
 4617TIP3    H135342   2.127   3.124  11.567  0.7475 -0.4285  0.3845
 4617TIP3    H235343   2.072   3.013  11.655  1.4017 -0.9138  0.1918
 4618TIP3   OH235344   2.135   2.881  60.673 -0.0994 -0.3220 -0.1908
 4618TIP3    H135345   2.179   2.821  60.613 -0.4670 -2.0587  1.1932
 4618TIP3    H235346   2.202   2.944  60.698  0.6311 -0.8626 -0.7639
 4619TIP3   OH235347   3.193   0.424  60.510  0.2366 -0.3170  0.8003
 4619TIP3    H135348   3.243   0.359  60.560  0.1903 -0.8684  0.1501
 4619TIP3    H235349   3.245   0.504  60.516  0.7975 -0.6742  0.7956
 4620TIP3   OH235350   0.536   2.968  65.856 -0.4495 -0.2427 -0.4217
 4620TIP3    H135351   0.465   3.031  65.865  0.3512  0.5909  0.2597
 4620TIP3    H235352   0.576   2.963  65.943  1.3894  0.6264 -1.1532
 4621TIP3   OH235353   1.639   0.743  18.721  0.0650 -0.0453  0.0808
 4621TIP3    H135354   1.640   0.654  18.755  1.3000 -0.3589 -0.7056
 4621TIP3    H235355   1.549   0.774  18.735 -1.0154 -2.1955 -1.5711
 4622TIP3   OH235356   2.170   0.473  60.396 -0.1224 -0.1703 -0.3189
 4622TIP3    H135357   2.239   0.532  60.426 -1.5671  1.7209 -0.4844
 4622TIP3    H235358   2.173   0.480  60.300 -1.4413  1.1217 -0.3083
 4623TIP3   OH235359   0.347   1.632  16.998  0.3354 -0.2760  0.4200
 4623TIP3    H135360   0.341   1.594  17.085 -1.9313 -1.5370 -0.2081
 4623TIP3    H235361   0.279   1.699  16.996  0.0224 -0.6083 -0.5265
 4624TIP3   OH235362   1.942   1.661  11.697 -0.3721 -0.0399  0.3983
 4624TIP3    H135363   1.959   1.729  11.762 -2.8522  0.1545  0.9640
 4624TIP3    H235364   1.846   1.661  11.688 -0.3787 -2.7359 -0.3560
 4625TIP3   OH235365   0.980   3.223  14.117  0.5184  0.2678  0.2950
 4625TIP3    H135366   0.894   3.250  14.148  0.8864 -1.0429  2.7612
 4625TIP3    H235367   1.040   3.291  14.149  0.6403  0.0745  0.4814
 4626TIP3   OH235368   3.164   2.561  13.544 -0.2459  0.3619  0.2879
 4626TIP3    H135369   3.122   2.521  13.619 -0.7206  1.5646  0.6912
 4626TIP3    H235370   3.156   2.496  13.474 -0.9797 -0.2361  0.9144
 4627TIP3   OH235371   3.358   2.127  11.777  0.3928 -0.1103  0.1290
 4627TIP3    H135372   3.365   2.188  11.704  2.7321 -0.6910 -0.1917
 4627TIP3    H235373   3.305   2.054  11.742  0.4302  0.1876 -0.5639
 4628TIP3   OH235374   1.817   3.277  36.618 -0.4310 -0.6204 -0.4097
 4628TIP3    H135375   1.902   3.320  36.616  1.1745 -3.4553  1.1851
 4628TIP3    H235376   1.778   3.298  36.533  0.6221  2.8994 -0.1898
 4629TIP3   OH235377   0.720   2.672   7.893 -0.0326 -0.0190  0.1631
 4629TIP3    H135378   0.756   2.690   7.806  0.0006  1.1441  0.3991
 4629TIP3    H235379   0.661   2.598   7.880 -0.8898  0.8508 -1.0911
 4630TIP3   OH235380   1.507   1.238  56.118 -0.3868  0.3991 -0.0141
 4630TIP3    H135381   1.544   1.280  56.040 -0.0217  2.4149  1.1666
 4630TIP3    H235382   1.414   1.260  56.115 -0.5455 -0.2765 -0.3084
 4631TIP3   OH235383   0.380   2.075  52.210 -0.0540  0.4659  0.1076
 4631TIP3    H135384   0.392   1.990  52.167 -1.3358 -0.3065  1.1995
 4631TIP3    H235385   0.391   2.139  52.140  1.7174 -0.5209 -0.6024
 4632TIP3   OH235386   1.940   2.255  19.034  0.4885  0.0204  0.2527
 4632TIP3    H135387   1.896   2.328  18.990  1.0449  0.3828  0.3030
 4632TIP3    H235388   2.014   2.233  18.977 -1.3234 -2.4796 -1.3851
 4633TIP3   OH235389   1.788   2.314  14.099  0.3007 -0.6250 -0.0690
 4633TIP3    H135390   1.713   2.361  14.063  0.9776  1.3027  0.8600
 4633TIP3    H235391   1.826   2.268  14.024 -1.7377 -1.5982 -0.5555
 4634TIP3   OH235392   3.398   3.359  49.537  0.4320  0.2954 -0.1292
 4634TIP3    H135393   3.393   3.454  49.527 -1.1436  0.2394 -0.0300
 4634TIP3    H235394   3.422   3.328  49.450  2.2904  0.8400  0.1373
 4635TIP3   OH235395   1.517   2.782  44.618  0.4184  0.1006  0.5649
 4635TIP3    H135396   1.478   2.788  44.705 -0.9466  0.5518 -0.0450
 4635TIP3    H235397   1.445   2.754  44.562  0.8163  1.5366 -0.7171
 4636TIP3   OH235398   3.428   2.677  19.001 -0.2955 -0.7281  0.2570
 4636TIP3    H135399   3.413   2.583  18.993 -2.2091 -0.4634  0.2871
 4636TIP3    H235400   3.345   2.712  19.033 -0.0976  1.1627 -1.1369
 4637TIP3   OH235401   2.315   0.474   3.855  0.1977 -0.3618  0.4346
 4637TIP3    H135402   2.246   0.499   3.917 -0.7206 -1.1542 -0.2448
 4637TIP3    H235403   2.347   0.558   3.820 -1.0331 -0.0016  0.1240
 4638TIP3   OH235404   1.910   0.744  16.179 -0.1892  0.1059 -0.6630
 4638TIP3    H135405   1.865   0.669  16.218  0.7066 -0.7632 -1.2504
 4638TIP3    H235406   1.839   0.799  16.144 -1.0307  0.8243  1.9018
 4639TIP3   OH235407   2.672   3.004  27.707 -0.2951 -0.4976  0.5848
 4639TIP3    H135408   2.712   2.919  27.723 -0.1779 -0.5601 -0.0081
 4639TIP3    H235409   2.579   2.986  27.695 -0.0573 -0.7509 -1.0549
 4640TIP3   OH235410   1.596   2.016   3.751  0.1973  0.0475 -0.0279
 4640TIP3    H135411   1.588   2.094   3.697  1.6321  1.0200  1.0908
 4640TIP3    H235412   1.617   2.049   3.838  0.6089 -1.5808  0.5255
 4641TIP3   OH235413   2.634   1.401  21.579 -0.0291 -0.0957  0.0828
 4641TIP3    H135414   2.710   1.350  21.550  0.1314 -0.2791  0.8066
 4641TIP3    H235415   2.587   1.421  21.498  0.9219  0.2445 -0.3998
 4642TIP3   OH235416   0.028   1.235  53.148 -0.2203  0.1261 -0.8220
 4642TIP3    H135417   0.104   1.286  53.118  0.4731  1.9697  3.3582
 4642TIP3    H235418   0.060   1.146  53.155  0.5622  0.2785 -2.0939
 4643TIP3   OH235419   1.555   0.426  53.681 -0.2096  0.1684 -0.4233
 4643TIP3    H135420   1.553   0.521  53.671 -0.8269  0.5022  2.1647
 4643TIP3    H235421   1.644   0.407  53.710 -0.4536  0.1634  0.3640
 4644TIP3   OH235422   0.825   1.324  67.401 -0.2877 -0.1811  0.5696
 4644TIP3    H135423   0.793   1.294  67.486  0.8509  1.1477  1.4999
 4644TIP3    H235424   0.914   1.289  67.395 -0.0489  0.4621  0.3160
 4645TIP3   OH235425   2.401   1.406  12.354 -0.1143 -0.4579 -0.4266
 4645TIP3    H135426   2.348   1.327  12.347  1.5705 -1.6428 -0.6202
 4645TIP3    H235427   2.375   1.460  12.279  0.0428 -1.7198 -1.4353
 4646TIP3   OH235428   1.757   2.035  56.450  0.0761  0.2445 -0.3401
 4646TIP3    H135429   1.723   1.946  56.450 -2.3176  1.0820  1.1803
 4646TIP3    H235430   1.832   2.032  56.510 -1.5787 -0.2971  1.8464
 4647TIP3   OH235431   1.022   0.301   3.260  0.3805  0.1869  0.4335
 4647TIP3    H135432   1.034   0.311   3.165  4.0873  1.0837  0.8234
 4647TIP3    H235433   1.023   0.207   3.274  3.4261 -0.0057 -0.2635
 4648TIP3   OH235434   2.234   2.700  16.637  0.1322  0.3077 -0.0395
 4648TIP3    H135435   2.251   2.757  16.711  1.3189  0.0257 -0.0672
 4648TIP3    H235436   2.195   2.756  16.570  0.5163  0.9059  0.2354
 4649TIP3   OH235437   0.256   0.614  44.457  0.6713  0.4494 -0.1038
 4649TIP3    H135438   0.246   0.562  44.378  0.6912  0.8895 -0.3982
 4649TIP3    H235439   0.167   0.644  44.478  0.4381 -0.7745  0.8204
 4650TIP3   OH235440   0.714   2.355  60.675 -0.3758 -0.2222  0.5548
 4650TIP3    H135441   0.787   2.296  60.654 -0.7498 -0.8400  0.9667
 4650TIP3    H235442   0.711   2.356  60.771 -0.6442  0.1406  0.5432
 4651TIP3   OH235443   2.801   1.191  45.860  0.2257 -0.0495 -0.2806
 4651TIP3    H135444   2.789   1.212  45.952  2.2266  3.6302 -0.6662
 4651TIP3    H235445   2.863   1.118  45.860  2.9456  2.0773  1.4229
 4652TIP3   OH235446   1.987   1.805   1.590  0.0254 -0.1992  0.0020
 4652TIP3    H135447   1.923   1.876   1.595  0.3407  0.1181 -0.3837
 4652TIP3    H235448   2.062   1.837   1.640  0.7491  0.3768 -1.4020
 4653TIP3   OH235449   0.224   1.111  51.383  0.1098 -0.2432 -0.3418
 4653TIP3    H135450   0.182   1.100  51.298  0.7776  1.1087 -0.8779
 4653TIP3    H235451   0.317   1.121  51.362  0.3213 -0.2103  0.5767
 4654TIP3   OH235452   2.405   1.847  27.503 -0.5799  0.1095 -0.0399
 4654TIP3    H135453   2.369   1.931  27.532 -0.0705  0.2887  0.1014
 4654TIP3    H235454   2.381   1.841  27.411 -0.7445  0.3439 -0.0136
 4655TIP3   OH235455   0.298   2.183   1.687  0.0941  0.6506  0.1386
 4655TIP3    H135456   0.219   2.147   1.727 -0.7358 -1.8022 -3.2108
 4655TIP3    H235457   0.367   2.120   1.710  0.1524  0.6052 -0.1499
 4656TIP3   OH235458   2.921   2.237  52.164 -0.2941  0.8491 -0.1210
 4656TIP3    H135459   2.996   2.241  52.105  0.9645 -0.3407  1.3014
 4656TIP3    H235460   2.873   2.159  52.136  1.0502 -0.5080  1.1987
 4657TIP3   OH235461   1.092   2.548  14.592  0.0494  0.3593  0.3391
 4657TIP3    H135462   1.132   2.630  14.562 -0.8933  0.3951 -0.9480
 4657TIP3    H235463   1.006   2.575  14.626 -0.2736 -0.0766 -0.1105
 4658TIP3   OH235464   3.147   1.161  31.890  0.1514  0.1914 -0.2344
 4658TIP3    H135465   3.207   1.154  31.815  0.1257  0.8988 -0.3248
 4658TIP3    H235466   3.065   1.193  31.852 -0.5747 -1.5655 -0.2488
 4659TIP3   OH235467   1.846   2.219  14.883 -0.4919  0.5358 -0.0758
 4659TIP3    H135468   1.856   2.145  14.822 -0.6146  1.8752 -1.8208
 4659TIP3    H235469   1.765   2.261  14.855 -0.2719  1.4872  0.6891
 4660TIP3   OH235470   1.051   0.368   9.262 -0.2077  0.0652  0.0117
 4660TIP3    H135471   1.008   0.394   9.181 -2.2200  2.4638  1.6948
 4660TIP3    H235472   1.001   0.292   9.292  0.1070 -0.4067 -0.6572
 4661TIP3   OH235473   1.436   2.722  64.328  0.4690 -0.1318  0.0307
 4661TIP3    H135474   1.504   2.738  64.263  2.1665 -1.4812  1.3673
 4661TIP3    H235475   1.437   2.627  64.341 -0.8130 -0.0445  1.0132
 4662TIP3   OH235476   2.482   0.963  47.412  0.5043  0.0144  0.3036
 4662TIP3    H135477   2.540   1.038  47.422 -0.3251  0.6011  0.8359
 4662TIP3    H235478   2.486   0.918  47.497 -1.6679  1.4410  1.2495
 4663TIP3   OH235479   1.263   0.929  56.100 -0.5527 -0.1032  0.4673
 4663TIP3    H135480   1.352   0.952  56.071 -0.1586 -0.1053  1.6369
 4663TIP3    H235481   1.233   0.866  56.035  0.9313 -1.3372  0.9136
 4664TIP3   OH235482   2.454   2.461  15.523  0.2534  0.2038 -0.5843
 4664TIP3    H135483   2.460   2.401  15.448 -3.1985 -1.5473  0.3230
 4664TIP3    H235484   2.365   2.494  15.521  1.1968  3.2258  0.6328
 4665TIP3   OH235485   3.251   1.887  43.037  0.5456 -0.2327  0.0834
 4665TIP3    H135486   3.310   1.857  42.968  0.6919  1.4108 -0.5548
 4665TIP3    H235487   3.195   1.812  43.055  0.3307 -0.6421 -2.0342
 4666TIP3   OH235488   1.994   2.315  60.135  0.1672 -0.6479 -0.2124
 4666TIP3    H135489   1.962   2.275  60.054  0.2379 -1.7259  0.2756
 4666TIP3    H235490   2.083   2.282  60.146  0.7279  0.6953 -0.4655
 4667TIP3   OH235491   0.551   0.106  61.897  0.3975 -0.0095  0.1914
 4667TIP3    H135492   0.629   0.086  61.845  0.6361  0.0422  0.5284
 4667TIP3    H235493   0.479   0.103  61.834  0.5629 -0.8966  0.0349
 4668TIP3   OH235494   0.945   2.999  53.516 -0.0230 -0.2847 -0.1927
 4668TIP3    H135495   0.897   2.985  53.435 -0.8883 -0.2261  0.2974
 4668TIP3    H235496   0.925   2.922  53.570 -0.7675  0.4258  0.5793
 4669TIP3   OH235497   1.096   0.370   5.759 -0.2363 -0.3011  0.0356
 4669TIP3    H135498   1.067   0.411   5.840 -2.0112 -0.1586 -0.6280
 4669TIP3    H235499   1.127   0.443   5.705 -0.7510 -0.1585 -0.0776
 4670TIP3   OH235500   0.385   0.838  61.821  0.1155  0.1140 -0.1108
 4670TIP3    H135501   0.324   0.769  61.793 -0.8231  0.0528  1.9089
 4670TIP3    H235502   0.331   0.917  61.827 -0.6739 -0.4893  4.4275
 4671TIP3   OH235503   1.945   3.317  54.634  0.2641  0.5159 -0.2650
 4671TIP3    H135504   1.877   3.364  54.586 -0.3170  1.6581  1.5595
 4671TIP3    H235505   2.016   3.381  54.644  0.3932  0.2855  0.3359
 4672TIP3   OH235506   0.031   1.886   5.826 -0.4195  0.1187  0.2918
 4672TIP3    H135507  -0.028   1.947   5.783 -0.2763 -0.3149 -0.5402
 4672TIP3    H235508   0.112   1.936   5.840 -0.7833  0.5439  0.9351
 4673TIP3   OH235509   0.166   2.315  57.275 -0.7859 -0.1160  0.2048
 4673TIP3    H135510   0.122   2.395  57.248 -0.7188  1.5792  4.3487
 4673TIP3    H235511   0.192   2.331  57.366  1.8863 -3.7804  0.3374
 4674TIP3   OH235512   3.347   0.902  53.781  0.0682 -0.3298 -0.2569
 4674TIP3    H135513   3.276   0.862  53.730 -0.2379  1.4038 -1.2284
 4674TIP3    H235514   3.404   0.943  53.716 -1.1845  3.3349  0.7341
 4675TIP3   OH235515   3.094   2.065  45.269  0.1203  0.2762  0.3368
 4675TIP3    H135516   3.129   2.064  45.358 -2.4142  0.0544  1.4233
 4675TIP3    H235517   3.128   1.984  45.229 -4.5363 -4.0162  3.7600
 4676TIP3   OH235518   0.413   2.893  17.515 -0.2072 -0.2468 -0.1948
 4676TIP3    H135519   0.438   2.937  17.597  0.9080 -1.8878  0.3897
 4676TIP3    H235520   0.425   2.960  17.448  1.1629  0.4607  0.7021
 4677TIP3   OH235521   3.128   1.400  66.871 -0.4376  0.5256 -0.1021
 4677TIP3    H135522   3.083   1.379  66.953 -0.6562 -0.6127 -0.4936
 4677TIP3    H235523   3.219   1.376  66.887 -0.3154  1.1158  0.0867
 4678TIP3   OH235524   0.501   1.240  50.854 -0.4877  0.0438  0.1501
 4678TIP3    H135525   0.476   1.287  50.775 -0.6018 -0.1616  0.0609
 4678TIP3    H235526   0.551   1.164  50.822  0.0209  0.3066  0.3081
 4679TIP3   OH235527   0.834   2.014  51.411  0.3206 -0.6871 -0.5091
 4679TIP3    H135528   0.922   1.981  51.431 -0.6933 -2.6530  1.1432
 4679TIP3    H235529   0.801   1.954  51.344 -1.2973 -2.9248  2.0557
 4680TIP3   OH235530   3.000   2.989  29.992  0.1529 -0.4116  0.4865
 4680TIP3    H135531   2.999   3.033  30.077  1.5408  0.8301 -0.0773
 4680TIP3    H235532   3.055   2.912  30.005  0.3098 -0.2556  0.7415
 4681TIP3   OH235533   1.626   0.508  26.474  0.2037  0.4444  0.6562
 4681TIP3    H135534   1.566   0.447  26.431  0.3848  1.6064 -1.3803
 4681TIP3    H235535   1.676   0.547  26.403 -0.6586  3.7660  1.6968
 4682TIP3   OH235536   0.429   0.286  62.660  0.3536  0.4350  0.2523
 4682TIP3    H135537   0.421   0.207  62.606  1.2938 -0.2206  1.0470
 4682TIP3    H235538   0.417   0.255  62.749  1.8266  0.9794  0.6728
 4683TIP3   OH235539   2.061   0.464  57.556 -0.4971 -0.2493  0.4013
 4683TIP3    H135540   2.074   0.499  57.644 -1.5868 -0.9986  0.8932
 4683TIP3    H235541   1.967   0.445  57.552 -0.4714 -0.1732 -0.9518
 4684TIP3   OH235542   2.450   0.232  65.953  0.1099 -0.1349 -0.0258
 4684TIP3    H135543   2.404   0.151  65.932 -0.5843  0.1118  0.4985
 4684TIP3    H235544   2.486   0.262  65.870 -0.2317 -0.6082 -0.3449
 4685TIP3   OH235545   2.988   2.905  49.956 -0.4728  0.4659 -0.1663
 4685TIP3    H135546   2.999   2.853  50.036  1.6719 -0.5405 -1.0001
 4685TIP3    H235547   3.019   2.992  49.979  0.1677  0.1703  0.1223
 4686TIP3   OH235548   3.033   2.444  47.571 -0.4481 -0.1593  0.2530
 4686TIP3    H135549   3.032   2.353  47.600 -3.4588 -0.1449  0.4478
 4686TIP3    H235550   3.057   2.494  47.649 -1.6188 -0.6063  0.9183
 4687TIP3   OH235551   2.388   2.837   6.799  0.4000  0.2956 -0.5475
 4687TIP3    H135552   2.410   2.745   6.809 -1.6574 -0.1040  0.9266
 4687TIP3    H235553   2.466   2.884   6.830  0.7760 -0.9710  0.4958
 4688TIP3   OH235554   2.269   0.456   2.817 -0.1589 -0.3326  0.1663
 4688TIP3    H135555   2.288   0.488   2.729 -2.6368 -0.2054 -0.3842
 4688TIP3    H235556   2.315   0.372   2.822  1.2262  0.3312 -0.6637
 4689TIP3   OH235557   2.135   1.403  44.446  0.0170 -0.0181 -0.5899
 4689TIP3    H135558   2.168   1.368  44.364  1.2276  0.0276 -0.1368
 4689TIP3    H235559   2.189   1.480  44.464  1.2541 -1.2611  1.3259
 4690TIP3   OH235560   1.845   1.353   3.277  0.1679  0.3424  0.0848
 4690TIP3    H135561   1.908   1.381   3.210 -0.6311  3.8688  0.5995
 4690TIP3    H235562   1.898   1.336   3.355  0.7240  0.1648 -0.3240
 4691TIP3   OH235563   2.881   3.376  50.450  0.2226 -0.2620  0.6548
 4691TIP3    H135564   2.880   3.323  50.370  1.0220  2.1097 -1.0458
 4691TIP3    H235565   2.789   3.387  50.473 -0.0639 -0.3523 -0.3940
 4692TIP3   OH235566   1.723   0.848  12.288  0.1250 -0.6246  0.0251
 4692TIP3    H135567   1.636   0.863  12.325 -0.2077 -0.7884 -0.6778
 4692TIP3    H235568   1.725   0.755  12.267 -0.6133 -0.1443 -2.5882
 4693TIP3   OH235569   0.257   1.414  11.944 -0.4068 -0.1786 -0.4430
 4693TIP3    H135570   0.305   1.339  11.910 -1.5497 -0.3066 -1.8733
 4693TIP3    H235571   0.319   1.487  11.937 -0.1335 -0.4972 -1.4942
 4694TIP3   OH235572   2.791   2.517  44.382 -0.9804  0.1580  0.3284
 4694TIP3    H135573   2.787   2.583  44.312 -1.9191  0.2837  0.4836
 4694TIP3    H235574   2.737   2.554  44.452 -0.8318 -0.4076  0.7435
 4695TIP3   OH235575   0.626   0.282   2.231  0.0695 -0.3161  0.0494
 4695TIP3    H135576   0.629   0.371   2.196 -2.0105 -0.6009 -0.9969
 4695TIP3    H235577   0.534   0.266   2.249  0.4339 -2.1682  0.4841
 4696TIP3   OH235578   1.477   2.828   3.681 -0.5977 -0.5628  0.0609
 4696TIP3    H135579   1.393   2.801   3.718 -0.3076 -0.5008  0.7692
 4696TIP3    H235580   1.522   2.746   3.661  0.3229 -0.6719  2.2985
 4697TIP3   OH235581   1.963   1.328  14.041 -0.0071  0.1852  0.5793
 4697TIP3    H135582   1.938   1.263  14.106 -0.1872  0.7346  1.0669
 4697TIP3    H235583   2.041   1.291  13.999  2.0239  1.1433  3.1940
 4698TIP3   OH235584   0.143   3.313   4.456  0.6586  0.2961  0.5506
 4698TIP3    H135585   0.168   3.221   4.444  0.4260  0.4248 -1.0474
 4698TIP3    H235586   0.200   3.343   4.527  1.2408 -0.8773  0.6155
 4699TIP3   OH235587   0.655   0.434   9.486  0.2972 -0.0532  0.7375
 4699TIP3    H135588   0.667   0.341   9.504  0.9546 -0.5279 -1.8161
 4699TIP3    H235589   0.738   0.474   9.513  0.9898 -0.6225 -0.4884
 4700TIP3   OH235590   2.635   3.328  58.196  0.0224  0.2266  0.0860
 4700TIP3    H135591   2.711   3.313  58.253 -0.8093  0.3202  1.2480
 4700TIP3    H235592   2.662   3.293  58.111  0.7154 -1.3934  0.9340
 4701TIP3   OH235593   1.615   1.995  67.458 -0.4672 -0.3914  0.1035
 4701TIP3    H135594   1.619   2.073  67.404  1.2354 -0.6696 -0.2434
 4701TIP3    H235595   1.577   1.928  67.401  0.1816 -0.3704 -0.3727
 4702TIP3   OH235596   2.369   0.477  53.792 -0.2392 -0.1034  0.4126
 4702TIP3    H135597   2.409   0.441  53.713  0.7246  0.7813  0.4661
 4702TIP3    H235598   2.345   0.401  53.845 -2.4878 -0.8032 -1.4357
 4703TIP3   OH235599   2.393   1.139  59.725 -0.1740 -0.3901 -0.5294
 4703TIP3    H135600   2.433   1.158  59.810  0.6103  1.0902 -1.1915
 4703TIP3    H235601   2.467   1.113  59.670 -0.4835 -0.0324 -1.1145
 4704TIP3   OH235602   0.219   2.685  67.009 -0.5551 -0.0799  0.3473
 4704TIP3    H135603   0.185   2.655  66.925  0.4751  3.4004 -1.5002
 4704TIP3    H235604   0.297   2.631  67.025  0.0080  0.0918 -1.6467
 4705TIP3   OH235605   1.269   1.553  53.050 -0.1581  0.1375 -0.2196
 4705TIP3    H135606   1.330   1.506  53.106  0.3297  1.0715  0.0450
 4705TIP3    H235607   1.209   1.596  53.110 -3.4251 -3.5660 -0.3956
 4706TIP3   OH235608   1.349   0.532  52.020 -0.2456  0.1682  0.1886
 4706TIP3    H135609   1.293   0.470  52.067 -0.8439  0.5168 -0.0505
 4706TIP3    H235610   1.413   0.562  52.085 -1.0162  0.5950  0.7647
 4707TIP3   OH235611   0.733   0.536  55.683 -0.5649 -0.6842 -1.1038
 4707TIP3    H135612   0.816   0.528  55.635  0.5635  1.5318  0.3394
 4707TIP3    H235613   0.680   0.595  55.630  0.2422  0.8388 -0.2856
 4708TIP3   OH235614   1.418   0.844  38.052  0.3814  0.3075  0.4198
 4708TIP3    H135615   1.383   0.903  37.986  1.0026 -0.7512 -0.9108
 4708TIP3    H235616   1.395   0.884  38.135 -2.2887  0.6517 -0.3908
 4709TIP3   OH235617   1.775   3.134  22.171  0.1108 -0.0940 -0.2128
 4709TIP3    H135618   1.758   3.056  22.118  0.2790 -0.0222 -0.3745
 4709TIP3    H235619   1.688   3.169  22.191 -0.0552 -1.2150  1.2162
 4710TIP3   OH235620   0.009   1.719  52.882 -0.1211  0.0608 -0.0771
 4710TIP3    H135621  -0.009   1.760  52.967  1.3316  0.3493  0.1127
 4710TIP3    H235622   0.046   1.634  52.904 -1.0534 -0.4637 -0.4571
 4711TIP3   OH235623   1.948   1.317  48.500 -0.1305 -0.2853 -0.0093
 4711TIP3    H135624   1.866   1.334  48.455 -0.0796 -0.0084 -0.0009
 4711TIP3    H235625   2.007   1.387  48.470  0.9318 -1.9254 -2.0500
 4712TIP3   OH235626   1.872   3.186  13.344  0.0624 -0.0246 -0.0289
 4712TIP3    H135627   1.961   3.222  13.341  0.0904 -0.1508 -1.1860
 4712TIP3    H235628   1.824   3.245  13.402  0.9659 -0.1273  0.8544
 4713TIP3   OH235629   1.800   3.019  45.848  0.6552 -0.3523  0.1412
 4713TIP3    H135630   1.810   3.106  45.886  0.1684 -0.3865  0.3474
 4713TIP3    H235631   1.846   2.961  45.909  0.9568 -0.2457  0.0170
 4714TIP3   OH235632   1.882   0.768  62.485 -0.8758  0.4762  1.0432
 4714TIP3    H135633   1.905   0.860  62.497 -1.0747  0.4007  2.0453
 4714TIP3    H235634   1.894   0.728  62.571 -2.3577 -0.0863  1.0266
 4715TIP3   OH235635   1.641   2.562   3.390  0.2536  0.7166 -0.3812
 4715TIP3    H135636   1.562   2.584   3.341 -1.0712 -2.3142  0.1496
 4715TIP3    H235637   1.709   2.554   3.324 -0.7931 -0.2725 -1.3998
 4716TIP3   OH235638   1.271   1.896  63.940 -0.1008 -0.0733 -0.1312
 4716TIP3    H135639   1.186   1.860  63.963 -0.8056  0.6266 -1.5247
 4716TIP3    H235640   1.301   1.841  63.867 -0.2799  0.8693 -0.9425
 4717TIP3   OH235641   1.509   2.455  61.145 -0.2606 -0.0317 -0.3995
 4717TIP3    H135642   1.559   2.375  61.127 -1.5314 -0.6776 -1.2004
 4717TIP3    H235643   1.552   2.493  61.222  0.0198 -1.8016  0.3727
 4718TIP3   OH235644   0.981   0.734  46.446  0.2326  0.5596 -0.8498
 4718TIP3    H135645   0.940   0.649  46.430  1.4311  0.3662 -3.4465
 4718TIP3    H235646   1.074   0.714  46.453  0.3518  1.4814  0.5018
 4719TIP3   OH235647   0.551   0.180  66.266 -0.3215  0.2132  0.6516
 4719TIP3    H135648   0.517   0.268  66.286  0.5872  0.6924  0.1880
 4719TIP3    H235649   0.482   0.138  66.217 -0.8765  0.5796  1.1048
 4720TIP3   OH235650   2.638   0.836  50.038 -0.1552  0.1678 -0.0543
 4720TIP3    H135651   2.609   0.799  49.955  3.4128 -0.8605 -1.0061
 4720TIP3    H235652   2.625   0.766  50.102 -1.3101  0.3650 -0.0492
 4721TIP3   OH235653   0.066   2.399  59.344  0.1197  0.3554  0.3861
 4721TIP3    H135654   0.146   2.438  59.309  1.1089 -0.7590  1.3088
 4721TIP3    H235655  -0.001   2.466  59.332  1.1515  1.2520 -0.5549
 4722TIP3   OH235656   0.595   0.311  42.609  0.2609 -0.2236 -0.4888
 4722TIP3    H135657   0.657   0.346  42.673  0.6599  0.5628 -1.2794
 4722TIP3    H235658   0.608   0.216  42.612  0.4253 -0.1749  0.4334
 4723TIP3   OH235659   0.061   2.979  43.509  0.1666  0.0251 -0.2485
 4723TIP3    H135660   0.133   3.042  43.507 -1.9783  2.6165 -0.8445
 4723TIP3    H235661   0.053   2.950  43.418 -1.0011  1.5825 -0.6776
 4724TIP3   OH235662   3.078   1.655  53.491  0.4934 -0.6035  0.1586
 4724TIP3    H135663   3.169   1.667  53.519  0.1267  2.4667  0.4357
 4724TIP3    H235664   3.029   1.720  53.541 -1.1921  0.6822 -2.8522
 4725TIP3   OH235665   0.463   2.713  60.829  0.1827  0.3081 -0.3800
 4725TIP3    H135666   0.434   2.641  60.884  1.4815 -1.5417 -1.9649
 4725TIP3    H235667   0.407   2.787  60.854 -0.6455 -0.9911  1.8873
 4726TIP3   OH235668   0.155   3.009  49.856 -0.1780  0.1696  0.2735
 4726TIP3    H135669   0.191   3.097  49.845  0.7730 -0.2102  0.2736
 4726TIP3    H235670   0.099   2.996  49.780  0.0817  0.5811  0.0060
 4727TIP3   OH235671   2.288   1.549  21.208  0.1333  0.7092  0.3156
 4727TIP3    H135672   2.193   1.544  21.206 -0.1597  2.3144  3.3680
 4727TIP3    H235673   2.314   1.476  21.266  0.9453 -0.5309 -1.5199
 4728TIP3   OH235674   2.866   1.412   5.328  0.2809 -0.5624 -0.0782
 4728TIP3    H135675   2.849   1.501   5.298  3.1992  0.0652 -0.1261
 4728TIP3    H235676   2.916   1.423   5.409  0.4936 -2.1697  0.0399
 4729TIP3   OH235677   1.668   2.709  42.217 -0.2110 -0.1100 -0.7625
 4729TIP3    H135678   1.582   2.711  42.175 -0.2777  0.4141 -0.6081
 4729TIP3    H235679   1.651   2.736  42.307  0.0721 -0.3248 -0.6422
 4730TIP3   OH235680   2.591   1.270  60.739 -0.2664  0.5560  0.4225
 4730TIP3    H135681   2.567   1.238  60.652  3.7946  1.3147 -1.2018
 4730TIP3    H235682   2.565   1.363  60.738 -1.5862  0.2150  0.6865
 4731TIP3   OH235683   3.423   1.390  51.386 -0.6792  0.0432  0.0086
 4731TIP3    H135684   3.443   1.409  51.478 -1.9620  1.3251  0.0541
 4731TIP3    H235685   3.359   1.319  51.389 -0.5235 -0.0952  0.0870
 4732TIP3   OH235686   1.585   1.341  60.696 -0.2093  0.0547  0.2098
 4732TIP3    H135687   1.603   1.370  60.607  0.0907 -0.8825 -0.0430
 4732TIP3    H235688   1.510   1.395  60.724 -0.3107  0.3470 -0.6077
 4733TIP3   OH235689   0.888   0.442  43.457  0.6519  0.2258  0.2189
 4733TIP3    H135690   0.925   0.355  43.442  0.4497  0.1696  0.0454
 4733TIP3    H235691   0.875   0.478  43.370 -0.3888 -0.0431  0.2587
 4734TIP3   OH235692   3.045   0.661   8.612  0.0572  0.3180 -0.1595
 4734TIP3    H135693   3.080   0.578   8.644  0.1426  1.5959  3.5291
 4734TIP3    H235694   2.956   0.641   8.585  0.5923 -1.2465 -0.8687
 4735TIP3   OH235695   2.044   0.399  45.750  0.0368  0.7091  0.6812
 4735TIP3    H135696   2.032   0.436  45.837  0.8324 -0.0732  1.1425
 4735TIP3    H235697   2.069   0.308  45.766  1.7491  0.9599 -0.2943
 4736TIP3   OH235698   1.911   2.770  21.789 -0.4867  0.2163 -0.7792
 4736TIP3    H135699   1.821   2.745  21.807 -0.6068  0.2732 -1.2836
 4736TIP3    H235700   1.927   2.738  21.700 -0.0211  0.2325 -0.7031
 4737TIP3   OH235701   2.010   0.561   8.508 -0.2641  0.0666  0.0465
 4737TIP3    H135702   2.056   0.586   8.588 -1.2052  0.7581  0.3785
 4737TIP3    H235703   1.927   0.525   8.538 -0.0847 -0.8964 -0.5664
 4738TIP3   OH235704   0.978   3.259  50.988 -0.0798  0.1340  0.6288
 4738TIP3    H135705   0.887   3.258  50.957  0.1286  1.0206 -0.0508
 4738TIP3    H235706   0.994   3.170  51.017 -0.2960 -0.7856 -1.8539
 4739TIP3   OH235707   0.891   1.614  11.534 -0.1730  0.1718  0.5570
 4739TIP3    H135708   0.933   1.652  11.456  1.9889 -0.1501  1.4897
 4739TIP3    H235709   0.866   1.526  11.507  1.5912 -0.3516  0.4952
 4740TIP3   OH235710   1.887   2.894  60.332 -0.6544  0.0081  0.3236
 4740TIP3    H135711   1.815   2.939  60.288  0.8312  0.6480 -1.5916
 4740TIP3    H235712   1.940   2.964  60.369 -0.2067 -0.3732  0.4129
 4741TIP3   OH235713   3.167   0.077  59.718 -0.3727 -0.0122 -0.3862
 4741TIP3    H135714   3.101   0.068  59.786 -1.5978 -0.0436 -1.5239
 4741TIP3    H235715   3.170   0.171  59.700 -0.9680 -0.1204 -1.1184
 4742TIP3   OH235716   1.189   0.511  60.279  0.0133  0.0359  0.1759
 4742TIP3    H135717   1.134   0.563  60.337  0.5354  1.4771 -0.5602
 4742TIP3    H235718   1.155   0.529  60.191 -0.3203 -1.5441 -0.0457
 4743TIP3   OH235719   1.360   0.954  11.518  0.1504  0.0609  0.3495
 4743TIP3    H135720   1.404   0.946  11.434 -2.0498 -0.0976 -0.8540
 4743TIP3    H235721   1.324   0.867  11.535 -0.9780  0.5567  0.5488
 4744TIP3   OH235722   2.839   2.857  26.977 -0.1147  0.5766  0.0207
 4744TIP3    H135723   2.745   2.875  26.977 -0.3933 -0.7216  0.6462
 4744TIP3    H235724   2.854   2.810  26.895 -0.4130 -0.9327  0.7871
 4745TIP3   OH235725   0.628   0.343   6.283 -0.0355  0.1950 -0.2246
 4745TIP3    H135726   0.656   0.304   6.200 -0.4285 -3.1076  1.0441
 4745TIP3    H235727   0.542   0.379   6.266 -0.2171 -0.6789 -1.2070
 4746TIP3   OH235728   3.168   2.214  58.915  0.4340 -0.1159 -0.5814
 4746TIP3    H135729   3.087   2.238  58.961  0.8014 -1.2846  0.7803
 4746TIP3    H235730   3.238   2.251  58.969  0.8380  0.1648 -1.2913
 4747TIP3   OH235731   1.171   3.123  64.985 -0.0844  0.2532  0.2095
 4747TIP3    H135732   1.245   3.101  65.041  0.0067 -0.0979 -0.0431
 4747TIP3    H235733   1.193   3.085  64.900 -0.3411  0.5543  0.0012
 4748TIP3   OH235734   0.644   1.779   3.068 -0.3594  0.1859  0.0561
 4748TIP3    H135735   0.705   1.852   3.057  0.0271 -0.1216  0.1039
 4748TIP3    H235736   0.700   1.705   3.090 -0.8677  0.2108  1.5351
 4749TIP3   OH235737   3.269   2.061   0.404  0.4953 -0.3293 -0.3519
 4749TIP3    H135738   3.184   2.024   0.382  1.1334 -1.4157 -1.0837
 4749TIP3    H235739   3.266   2.074   0.499 -0.8554  0.6604 -0.4954
 4750TIP3   OH235740   0.602   2.638   0.654  0.8773 -0.1167  0.1780
 4750TIP3    H135741   0.651   2.604   0.729  0.1965 -3.4783 -0.7349
 4750TIP3    H235742   0.523   2.676   0.692  0.6569 -1.5340  1.2162
 4751TIP3   OH235743   3.347   2.059  47.045 -0.5755 -0.0417 -0.1834
 4751TIP3    H135744   3.376   2.087  47.132 -0.0239  2.0367 -0.9791
 4751TIP3    H235745   3.254   2.039  47.057 -1.0568  2.2559  0.5030
 4752TIP3   OH235746   1.717   0.450  56.639  0.0358 -0.2301 -0.0623
 4752TIP3    H135747   1.633   0.442  56.593  0.3159  0.3162 -0.6813
 4752TIP3    H235748   1.694   0.487  56.724 -0.6080 -2.2112  0.6766
 4753TIP3   OH235749   2.203   3.206  43.907  0.2764 -0.4462  0.0770
 4753TIP3    H135750   2.271   3.208  43.840 -1.7914 -1.6445 -2.2426
 4753TIP3    H235751   2.178   3.113  43.913 -1.6753  0.0299  0.1681
 4754TIP3   OH235752   1.821   2.924  54.334  0.0878  1.0956 -0.4469
 4754TIP3    H135753   1.872   2.939  54.254  0.2456  1.2225 -0.3236
 4754TIP3    H235754   1.738   2.886  54.302  0.0754  1.3194 -0.6861
 4755TIP3   OH235755   2.525   3.439  20.427 -0.1687 -0.3299  0.1708
 4755TIP3    H135756   2.606   3.419  20.473  0.5165  0.5630 -0.6064
 4755TIP3    H235757   2.469   3.478  20.494  0.4477  0.0415  0.4788
 4756TIP3   OH235758   0.627   0.603  42.228  0.1085  0.1709  0.1623
 4756TIP3    H135759   0.628   0.513  42.261 -0.4890 -0.2141 -0.8133
 4756TIP3    H235760   0.621   0.658  42.306 -1.1925 -0.7009  0.6994
 4757TIP3   OH235761   1.568   2.467  52.348 -0.9481  0.2519  0.0722
 4757TIP3    H135762   1.604   2.480  52.436  0.4400  1.9308 -0.6867
 4757TIP3    H235763   1.586   2.549  52.302  0.0204 -1.1985 -2.3240
 4758TIP3   OH235764   0.178   0.641  61.743 -0.3893 -0.0963  0.1861
 4758TIP3    H135765   0.099   0.620  61.693 -0.2703  2.4551 -1.2787
 4758TIP3    H235766   0.248   0.593  61.698 -0.7026 -0.1259 -0.2762
 4759TIP3   OH235767   2.540   1.606   8.196  0.1061  0.3519  0.2595
 4759TIP3    H135768   2.601   1.534   8.212  1.1898  1.4166  1.0559
 4759TIP3    H235769   2.519   1.599   8.102 -0.2416 -1.2938  0.4230
 4760TIP3   OH235770   1.115   3.200   7.528  0.1965 -0.6309 -0.0157
 4760TIP3    H135771   1.130   3.106   7.542  0.7570 -0.4942  0.3440
 4760TIP3    H235772   1.044   3.204   7.465  2.2208 -1.3262 -2.4922
 4761TIP3   OH235773   2.563   1.346  63.674 -0.2598  0.2520  0.1156
 4761TIP3    H135774   2.549   1.328  63.581  1.3219 -0.0478 -0.0863
 4761TIP3    H235775   2.643   1.399  63.677 -0.5750  0.6984  1.2772
 4762TIP3   OH235776   2.463   1.226  51.034  0.0129  0.1516  0.4394
 4762TIP3    H135777   2.534   1.191  51.088  0.5350 -0.4303 -0.5997
 4762TIP3    H235778   2.455   1.317  51.062  1.1571  0.2219  0.5992
 4763TIP3   OH235779   2.744   0.133  65.188 -0.1713  0.5357 -0.2192
 4763TIP3    H135780   2.801   0.070  65.231 -0.9459  0.0059  0.0589
 4763TIP3    H235781   2.738   0.206  65.250 -0.2551  0.3367  0.0133
 4764TIP3   OH235782   1.591   1.019  16.103 -0.1020  0.2720 -0.2798
 4764TIP3    H135783   1.527   1.004  16.173 -0.9977  0.7608 -0.9766
 4764TIP3    H235784   1.616   0.931  16.074 -0.8909  0.0750 -0.3834
 4765TIP3   OH235785   1.767   2.111  15.135  0.7050  0.1984 -0.2633
 4765TIP3    H135786   1.767   2.161  15.053 -1.5731 -0.1982 -0.5859
 4765TIP3    H235787   1.831   2.041  15.120  1.1417  0.7903 -1.2744
 4766TIP3   OH235788   3.267   1.946  22.846 -0.5848 -0.2306  0.0031
 4766TIP3    H135789   3.237   2.029  22.808 -0.3945  0.4710  1.3003
 4766TIP3    H235790   3.306   1.972  22.930 -1.0427 -1.7158  0.6926
 4767TIP3   OH235791   2.611   0.172  45.396 -0.7015 -0.5655  0.3056
 4767TIP3    H135792   2.581   0.146  45.309 -1.6776  1.5134 -0.0385
 4767TIP3    H235793   2.704   0.150  45.397  0.1900  2.2649 -2.5701
 4768TIP3   OH235794   1.545   1.223  17.081 -0.1411 -0.1151  0.2090
 4768TIP3    H135795   1.564   1.156  17.015 -0.1375 -2.1780  2.1714
 4768TIP3    H235796   1.628   1.269  17.092  0.8034 -1.8862  0.9875
 4769TIP3   OH235797   2.626   1.915  29.266 -0.0096 -0.8965 -0.5242
 4769TIP3    H135798   2.702   1.914  29.324  0.4682  0.1736 -1.0861
 4769TIP3    H235799   2.650   1.857  29.193  0.3014 -0.5248 -0.7233
 4770TIP3   OH235800   1.473   0.766  65.514 -0.3835 -0.1352  0.7949
 4770TIP3    H135801   1.533   0.776  65.440 -0.7393 -0.8807  0.4048
 4770TIP3    H235802   1.456   0.672  65.519 -1.3351  0.0403  1.0518
 4771TIP3   OH235803   1.033   1.225   5.839 -0.0669 -0.3272 -0.0554
 4771TIP3    H135804   1.064   1.149   5.888 -0.0140 -1.2977 -1.5195
 4771TIP3    H235805   0.985   1.277   5.903  0.7113 -1.1040  1.2089
 4772TIP3   OH235806   0.944   1.561   5.819 -0.1899  0.8537 -0.3755
 4772TIP3    H135807   0.950   1.657   5.811  1.8053  0.6900 -1.6268
 4772TIP3    H235808   1.025   1.537   5.866  0.4970 -0.3724 -2.1069
 4773TIP3   OH235809   2.026   0.512   9.375  0.0312  0.7353 -0.3088
 4773TIP3    H135810   1.978   0.593   9.357  0.0465  0.4994 -1.5382
 4773TIP3    H235811   1.986   0.478   9.455 -1.0827  1.1369 -0.6661
 4774TIP3   OH235812   3.089   0.914  12.801 -0.0154 -0.2403  1.0402
 4774TIP3    H135813   3.058   0.888  12.714 -2.5355 -1.0534  2.0958
 4774TIP3    H235814   3.139   0.838  12.831 -0.0252 -0.3808  0.7077
 4775TIP3   OH235815   2.625   0.922  55.222  0.5306 -0.1233 -0.0321
 4775TIP3    H135816   2.614   0.954  55.132 -0.6427  0.0278  0.1458
 4775TIP3    H235817   2.712   0.954  55.248  0.4137  0.8161 -0.7161
 4776TIP3   OH235818   2.732   0.204  60.550 -0.6085  0.0380 -0.0079
 4776TIP3    H135819   2.767   0.256  60.623 -1.0938  1.7871 -0.9457
 4776TIP3    H235820   2.778   0.120  60.556  2.5899  1.6089 -0.2051
 4777TIP3   OH235821   3.071   1.263  41.921 -0.0782  0.0748  0.5608
 4777TIP3    H135822   3.069   1.352  41.956  0.4222 -0.0678  0.9717
 4777TIP3    H235823   3.163   1.249  41.898  0.3122 -1.1245  2.6048
 4778TIP3   OH235824   1.008   0.876  13.844  0.4242  0.3756  0.0818
 4778TIP3    H135825   1.098   0.869  13.876  1.0449  1.7485 -1.2401
 4778TIP3    H235826   0.954   0.857  13.920  1.8150 -1.5648  0.6450
 4779TIP3   OH235827   1.099   0.325  37.368 -0.1796  0.2853  0.6224
 4779TIP3    H135828   1.004   0.326  37.381 -0.3083 -0.1334 -0.2707
 4779TIP3    H235829   1.113   0.373  37.287  0.2827 -0.5053  0.2220
 4780TIP3   OH235830   3.276   1.038  65.674 -0.4375  0.2602  0.2419
 4780TIP3    H135831   3.317   1.120  65.647  2.5447 -1.3709 -0.6846
 4780TIP3    H235832   3.244   0.999  65.593 -0.4132 -0.1831  0.4395
 4781TIP3   OH235833   2.626   2.756  63.695 -0.2452 -0.7553 -0.0259
 4781TIP3    H135834   2.541   2.765  63.652  0.0125  1.4461 -0.1800
 4781TIP3    H235835   2.682   2.716  63.629 -1.0089 -1.7587 -0.0909
 4782TIP3   OH235836   1.522   2.778  51.671 -0.8294 -0.2767  0.2732
 4782TIP3    H135837   1.540   2.826  51.752  1.2920 -3.0672  1.5953
 4782TIP3    H235838   1.437   2.736  51.687 -0.5423 -0.6087  0.9955
 4783TIP3   OH235839   1.603   0.020  57.395 -0.4058 -0.1001 -0.0141
 4783TIP3    H135840   1.611  -0.070  57.362 -0.8715 -0.0808 -0.1808
 4783TIP3    H235841   1.551   0.012  57.475  1.3539 -0.2416  1.1630
 4784TIP3   OH235842   1.669   2.224  37.879 -0.4918  0.5125  0.4834
 4784TIP3    H135843   1.695   2.219  37.971  1.6241  0.3619 -0.0819
 4784TIP3    H235844   1.729   2.287  37.840 -0.9810  0.1469 -0.9169
 4785TIP3   OH235845   0.967   2.255  14.018  0.0728 -0.3100  0.5296
 4785TIP3    H135846   1.048   2.256  13.967  0.4392 -0.3139  1.0944
 4785TIP3    H235847   0.992   2.294  14.102 -0.4918 -0.3966  0.7400
 4786TIP3   OH235848   3.156   3.030  57.083  0.1871 -0.4711  0.0095
 4786TIP3    H135849   3.163   3.124  57.068 -0.3990 -0.5129 -0.5369
 4786TIP3    H235850   3.093   3.021  57.154  0.9470 -0.4096  0.7043
 4787TIP3   OH235851   0.736   0.440   6.916  0.1933  0.4435 -0.4676
 4787TIP3    H135852   0.774   0.407   6.834 -0.4198  1.1531 -1.0373
 4787TIP3    H235853   0.747   0.535   6.911 -1.1319  0.6104 -0.3792
 4788TIP3   OH235854   0.430   1.675  45.968  0.2478  0.6259 -0.0425
 4788TIP3    H135855   0.450   1.699  46.059 -0.3791 -1.1814  0.6080
 4788TIP3    H235856   0.336   1.689  45.960 -0.0576 -1.0922  0.2264
 4789TIP3   OH235857   2.722   2.725  58.142  0.1847  0.4337  0.0817
 4789TIP3    H135858   2.669   2.675  58.204 -1.2702  0.0967 -1.3580
 4789TIP3    H235859   2.806   2.680  58.140 -0.6281 -1.1515 -0.1341
 4790TIP3   OH235860   1.389   2.108  17.885 -0.4871  0.3116 -0.3550
 4790TIP3    H135861   1.429   2.058  17.956 -0.5719  0.2764 -0.3313
 4790TIP3    H235862   1.405   2.057  17.806 -0.7246  0.1610 -0.3053
 4791TIP3   OH235863   0.158   1.712   4.058 -0.0884 -0.3817 -0.1289
 4791TIP3    H135864   0.113   1.633   4.031  1.0614 -1.0589 -0.1539
 4791TIP3    H235865   0.231   1.721   3.996  0.2091  0.2922  0.2988
 4792TIP3   OH235866   2.055   0.534  55.823 -0.5104 -0.0320 -0.6854
 4792TIP3    H135867   2.062   0.442  55.799  0.6611 -0.4519  1.0441
 4792TIP3    H235868   1.964   0.544  55.850  0.0254 -1.5545  2.0714
 4793TIP3   OH235869   2.850   1.537  62.668  0.7807 -0.1424  0.3729
 4793TIP3    H135870   2.944   1.530  62.679  0.8151  0.2636  0.3506
 4793TIP3    H235871   2.817   1.565  62.753  0.5145 -1.6429  0.7991
 4794TIP3   OH235872   3.175   0.261  13.976 -0.1519  0.3866  0.2022
 4794TIP3    H135873   3.244   0.266  13.910 -0.4390  1.9183 -0.0213
 4794TIP3    H235874   3.219   0.230  14.055  0.7228  0.9874 -0.0344
 4795TIP3   OH235875   2.354   2.291   1.280 -0.2851  0.2385  0.0443
 4795TIP3    H135876   2.312   2.377   1.273 -0.2304  0.4615  1.8260
 4795TIP3    H235877   2.293   2.231   1.238 -0.4290  1.1043 -1.0313
 4796TIP3   OH235878   0.246   2.155  19.324  0.7300  0.1243 -0.3684
 4796TIP3    H135879   0.331   2.155  19.279 -0.2386 -0.6217 -2.3138
 4796TIP3    H235880   0.199   2.081  19.286  0.1727 -1.2337  2.7076
 4797TIP3   OH235881   0.163   0.131  59.449  0.5548 -0.0261 -0.2480
 4797TIP3    H135882   0.169   0.216  59.492  3.0817  0.0241 -0.5635
 4797TIP3    H235883   0.071   0.106  59.458 -0.2466  2.6828 -0.0816
 4798TIP3   OH235884   2.894   1.865  17.737  0.3098  0.1071 -0.1527
 4798TIP3    H135885   2.892   1.800  17.667  0.0615  0.4599 -0.4781
 4798TIP3    H235886   2.982   1.904  17.730  0.1879  0.3338 -0.4491
 4799TIP3   OH235887   1.798   3.249   6.968  0.0445 -0.1180 -0.8249
 4799TIP3    H135888   1.737   3.299   7.023  2.4140  2.1711 -0.0347
 4799TIP3    H235889   1.743   3.188   6.920 -2.6858  0.9359  0.7296
 4800TIP3   OH235890   1.310   2.731  57.369  0.1306  0.4717  0.0183
 4800TIP3    H135891   1.301   2.637  57.383  1.4036  0.2484 -0.5935
 4800TIP3    H235892   1.221   2.765  57.380 -0.2274 -0.6982  0.9350
 4801TIP3   OH235893   0.159   1.436  52.914  0.2193  0.2576  0.9448
 4801TIP3    H135894   0.181   1.412  53.004  0.1859 -0.4625  0.7681
 4801TIP3    H235895   0.243   1.438  52.868  0.2489  0.7317  1.0103
 4802TIP3   OH235896   1.385   0.097  47.548 -0.3102 -0.0447  0.2373
 4802TIP3    H135897   1.315   0.044  47.585 -0.0510 -0.2494  0.4383
 4802TIP3    H235898   1.375   0.183  47.590 -1.4847  0.4573 -0.9929
 4803TIP3   OH235899   1.219   0.251   9.540 -0.2013 -0.3235 -0.2578
 4803TIP3    H135900   1.228   0.222   9.449  0.0088  2.3851 -1.1929
 4803TIP3    H235901   1.289   0.315   9.551 -0.7391 -0.0016  1.5593
 4804TIP3   OH235902   0.953   0.857  46.696 -1.1054  0.3090 -0.3134
 4804TIP3    H135903   0.891   0.930  46.701 -0.0874  1.1536  0.6392
 4804TIP3    H235904   0.965   0.842  46.602  0.3590  2.9135 -0.6528
 4805TIP3   OH235905   2.894   1.493  18.684 -0.5742  0.1093  0.3662
 4805TIP3    H135906   2.967   1.470  18.743 -0.4250  0.9208  0.5065
 4805TIP3    H235907   2.867   1.409  18.646 -0.0879 -0.3087  0.9166
 4806TIP3   OH235908   0.574   3.081  52.955  0.0990  0.0943 -0.0735
 4806TIP3    H135909   0.485   3.048  52.969  0.6913 -2.2887 -1.4316
 4806TIP3    H235910   0.582   3.154  53.016 -2.0302 -1.0374  1.7042
 4807TIP3   OH235911   1.190   3.422  55.215  0.0121 -0.4267 -0.0393
 4807TIP3    H135912   1.216   3.344  55.264  1.0119 -0.0736  0.0225
 4807TIP3    H235913   1.273   3.466  55.194 -0.4985  0.2947 -0.6060
 4808TIP3   OH235914   3.020   2.235  18.867 -0.0602 -0.3742  0.1384
 4808TIP3    H135915   2.951   2.263  18.927  0.9938  0.3263  1.0749
 4808TIP3    H235916   2.991   2.265  18.781 -1.6636 -1.5186  0.2578
 4809TIP3   OH235917   2.690   1.674  60.319  0.0767 -0.0462 -0.1120
 4809TIP3    H135918   2.777   1.659  60.356 -0.7717 -2.1960  1.1713
 4809TIP3    H235919   2.685   1.769  60.310  2.9195  0.1076 -1.2545
 4810TIP3   OH235920   0.226   2.930   4.935  0.2567  0.6251 -0.2831
 4810TIP3    H135921   0.298   2.913   4.996 -0.2565  1.5663  0.6041
 4810TIP3    H235922   0.199   3.020   4.953 -1.4814  0.1273 -0.2465
 4811TIP3   OH235923   3.059   0.882   6.589 -0.0088 -0.3707  0.3544
 4811TIP3    H135924   3.107   0.866   6.671 -1.4187  0.1059  1.3027
 4811TIP3    H235925   3.067   0.799   6.541  0.0595 -0.9879  1.3871
 4812TIP3   OH235926   2.443   3.251  12.446 -0.4386 -0.1612  0.1204
 4812TIP3    H135927   2.450   3.346  12.443 -0.0713 -0.2045 -0.5724
 4812TIP3    H235928   2.374   3.234  12.511 -1.0048  0.5960 -0.2624
 4813TIP3   OH235929   2.861   0.805  10.841 -0.0761  0.0119  1.1287
 4813TIP3    H135930   2.879   0.782  10.750 -0.8295 -0.8675  1.1849
 4813TIP3    H235931   2.802   0.880  10.835 -0.8396 -0.5984  0.8656
 4814TIP3   OH235932   2.935   1.876  65.786 -0.0216  0.4055  0.2614
 4814TIP3    H135933   2.956   1.824  65.864 -1.1253 -0.4401  0.0157
 4814TIP3    H235934   3.010   1.935  65.776 -0.0988  0.9328  2.2878
 4815TIP3   OH235935   1.088   2.464   1.618 -0.2497  0.1584 -0.6329
 4815TIP3    H135936   1.073   2.537   1.678  0.1455  1.0579 -1.5833
 4815TIP3    H235937   1.024   2.478   1.547 -0.5425 -0.7357 -0.5567
 4816TIP3   OH235938   0.237   0.700   9.428  0.1170  0.0353  0.1269
 4816TIP3    H135939   0.265   0.731   9.341 -1.6461 -0.5509 -0.6910
 4816TIP3    H235940   0.156   0.653   9.412 -0.5300  0.3390  2.1802
 4817TIP3   OH235941   2.623   2.791  47.812  0.1508 -0.0370 -0.8906
 4817TIP3    H135942   2.651   2.708  47.771 -0.1739 -0.3366 -0.5108
 4817TIP3    H235943   2.537   2.771  47.849  0.6474  0.0850  0.3691
 4818TIP3   OH235944   2.593   0.111  51.975  0.0101 -0.1291 -0.8321
 4818TIP3    H135945   2.574   0.183  52.036  1.8327  1.0003 -1.5276
 4818TIP3    H235946   2.628   0.042  52.031 -1.3510 -0.3697 -0.2157
 4819TIP3   OH235947   1.455   1.298   5.693 -0.4077 -0.4848  0.2182
 4819TIP3    H135948   1.444   1.205   5.714 -2.2008 -0.1947  0.7586
 4819TIP3    H235949   1.365   1.330   5.678  0.2578  0.8816 -1.2214
 4820TIP3   OH235950   0.236   0.900  59.934 -0.0996  0.2489 -0.1494
 4820TIP3    H135951   0.307   0.840  59.957  1.2144  2.7337  3.0152
 4820TIP3    H235952   0.160   0.867  59.983 -0.7387 -1.3262 -2.0643
 4821TIP3   OH235953   0.654   3.442  18.909 -0.0812  0.2504  0.4917
 4821TIP3    H135954   0.606   3.496  18.971  0.4521 -0.6831  1.7659
 4821TIP3    H235955   0.621   3.354  18.924 -0.3392  0.0744 -0.9732
 4822TIP3   OH235956   3.251   3.429  13.659 -0.0226  0.1227  0.3738
 4822TIP3    H135957   3.184   3.485  13.698 -0.5303 -0.5043  0.4360
 4822TIP3    H235958   3.214   3.404  13.574 -0.1249 -0.6631  0.6370
 4823TIP3   OH235959   1.772   1.353   4.301  0.2282  0.7331  0.7171
 4823TIP3    H135960   1.701   1.364   4.237 -0.9424 -0.5972  1.7000
 4823TIP3    H235961   1.845   1.319   4.249 -0.1592  1.2310 -0.1802
 4824TIP3   OH235962   1.006   3.225  50.315 -0.0575 -0.1660 -0.5116
 4824TIP3    H135963   1.084   3.212  50.261 -1.6660  0.8855 -3.3106
 4824TIP3    H235964   0.964   3.140  50.317 -0.6288  0.0411 -2.1173
 4825TIP3   OH235965   0.489   2.458  42.097  0.1314 -0.0383  0.0107
 4825TIP3    H135966   0.402   2.453  42.056  0.3288  1.7061 -0.6763
 4825TIP3    H235967   0.522   2.544  42.073  0.9962  0.3665  2.4280
 4826TIP3   OH235968   3.233   1.061  66.143 -0.2535 -0.3856  0.1410
 4826TIP3    H135969   3.318   1.091  66.111 -0.5081  0.7671  0.4759
 4826TIP3    H235970   3.253   0.987  66.199  0.1954 -2.5933 -2.7318
 4827TIP3   OH235971   1.139   0.534  50.625 -0.1334  0.1266 -0.1634
 4827TIP3    H135972   1.137   0.438  50.623 -1.2958  0.1169 -3.3557
 4827TIP3    H235973   1.047   0.561  50.625  0.1757  1.2562 -0.0870
 4828TIP3   OH235974   3.382   2.998  62.536  0.3206  0.4254  0.2056
 4828TIP3    H135975   3.433   2.918  62.539  0.4195  0.3297 -1.9561
 4828TIP3    H235976   3.293   2.969  62.513  0.3955  0.9057 -0.7736
 4829TIP3   OH235977   0.392   2.761  62.518  0.0947  0.1253 -0.4267
 4829TIP3    H135978   0.305   2.757  62.557  0.5597  0.6073  0.7095
 4829TIP3    H235979   0.388   2.701  62.444 -1.0728 -0.1771 -0.1361
 4830TIP3   OH235980   3.293   1.310  16.643  0.1051  0.4323 -0.5966
 4830TIP3    H135981   3.313   1.270  16.558 -2.4058  2.7867 -2.4621
 4830TIP3    H235982   3.362   1.375  16.656  1.1616 -0.7300 -0.1890
 4831TIP3   OH235983   0.160   0.026  15.468  0.0659  0.5526 -0.2220
 4831TIP3    H135984   0.095   0.097  15.465 -2.1398 -1.3772 -1.2523
 4831TIP3    H235985   0.125  -0.036  15.531 -0.2603 -1.5257 -2.3059
 4832TIP3   OH235986   1.280   1.395  13.494  0.2917  0.4084 -0.1114
 4832TIP3    H135987   1.290   1.402  13.589  0.5681 -1.9224  0.0892
 4832TIP3    H235988   1.198   1.347  13.482 -0.5231  1.9689 -1.1364
 4833TIP3   OH235989   2.931   3.427  57.222 -0.2232 -0.4486 -0.5152
 4833TIP3    H135990   2.835   3.420  57.223 -0.2872  0.3386 -0.2326
 4833TIP3    H235991   2.956   3.427  57.314 -0.0015 -0.1079 -0.5724
 4834TIP3   OH235992   2.088   2.149  13.273  0.3197 -0.3448 -0.6666
 4834TIP3    H135993   2.001   2.188  13.265  0.9098  0.9125 -1.2125
 4834TIP3    H235994   2.118   2.175  13.360 -0.8215 -2.9390  0.6212
 4835TIP3   OH235995   1.371   1.374  44.821 -0.5662 -0.0913  0.4329
 4835TIP3    H135996   1.378   1.282  44.847  0.6159 -0.6330 -1.5748
 4835TIP3    H235997   1.314   1.372  44.744 -0.0057  0.7517 -0.0187
 4836TIP3   OH235998   0.644   2.628  15.489  0.9164  0.6821 -0.3242
 4836TIP3    H135999   0.695   2.548  15.476  1.4194  0.9179  0.1457
 4836TIP3    H236000   0.592   2.636  15.410  3.2215  1.6136 -1.8402
 4837TIP3   OH236001   1.816   0.116  20.538  0.0414  0.1588 -0.6070
 4837TIP3    H136002   1.753   0.174  20.582 -0.0880  0.4453 -1.1624
 4837TIP3    H236003   1.832   0.157  20.453 -1.0868 -1.3147 -1.5785
 4838TIP3   OH236004   1.877   2.218   8.065 -0.1593 -0.0843  0.6862
 4838TIP3    H136005   1.831   2.301   8.074 -0.4030 -0.0190 -0.8504
 4838TIP3    H236006   1.969   2.243   8.053 -0.3533  0.0422 -0.6978
 4839TIP3   OH236007   0.486   1.909  51.612  0.6635  0.1956 -0.4168
 4839TIP3    H136008   0.445   1.896  51.526 -0.1202  2.6096 -0.4870
 4839TIP3    H236009   0.528   1.995  51.606 -0.0420  0.7732  1.7994
 4840TIP3   OH236010   1.325   1.850  18.305  0.3069  0.6191  0.6306
 4840TIP3    H136011   1.314   1.819  18.395  2.7019 -3.5017 -0.2406
 4840TIP3    H236012   1.253   1.808  18.256  0.9671  0.0407  0.1317
 4841TIP3   OH236013   2.745   0.022  49.137 -0.3523  0.7386  0.3024
 4841TIP3    H136014   2.776  -0.066  49.119  3.0198  1.7890  0.3510
 4841TIP3    H236015   2.655   0.010  49.169 -0.3476 -2.5347 -0.5972
 4842TIP3   OH236016   1.254   2.952  18.252  0.0871 -0.4414 -0.1694
 4842TIP3    H136017   1.172   2.955  18.204 -0.8858 -0.2648  1.4401
 4842TIP3    H236018   1.241   3.012  18.326  1.5227 -0.7012  0.3295
 4843TIP3   OH236019   3.380   3.093  54.868 -0.5888 -0.0449 -0.2516
 4843TIP3    H136020   3.341   3.176  54.840 -1.6997 -0.0329  1.2413
 4843TIP3    H236021   3.311   3.028  54.854  0.6968 -1.0081 -2.6366
 4844TIP3   OH236022   0.245   1.219  16.714  0.0696 -0.0734  0.0184
 4844TIP3    H136023   0.186   1.144  16.713 -0.3883  0.2704  0.6484
 4844TIP3    H236024   0.308   1.198  16.783  1.0368 -0.6945 -1.0277
 4845TIP3   OH236025   2.369   1.107   7.908 -0.4756 -0.1465 -0.2693
 4845TIP3    H136026   2.310   1.060   7.967 -2.8244  0.2090 -2.1529
 4845TIP3    H236027   2.456   1.087   7.940 -1.5750 -0.9541  2.5306
 4846TIP3   OH236028   2.504   2.899  14.012 -0.0075 -0.2613  0.2790
 4846TIP3    H136029   2.488   2.830  14.076  1.0288  0.0672  0.9077
 4846TIP3    H236030   2.592   2.931  14.032 -0.8569  2.0234  0.7899
 4847TIP3   OH236031   3.095   1.043   1.528 -0.0321  0.7789  0.0618
 4847TIP3    H136032   3.079   1.022   1.436 -0.3146  3.2272 -0.4989
 4847TIP3    H236033   3.012   1.079   1.560  0.6282  1.7814  0.7066
 4848TIP3   OH236034   3.110   1.848  46.308  0.2928 -0.2161 -0.1669
 4848TIP3    H136035   3.058   1.905  46.252  0.1202 -0.9512 -0.7749
 4848TIP3    H236036   3.047   1.808  46.367  0.1378 -1.1370 -0.9296
 4849TIP3   OH236037   2.628   1.556  53.176 -0.2133  0.4302  0.0855
 4849TIP3    H136038   2.723   1.561  53.177 -0.1801 -0.1249  0.5427
 4849TIP3    H236039   2.606   1.523  53.089  0.1956 -2.1368  0.8713
 4850TIP3   OH236040   3.248   1.041  44.974  0.7835  0.0337 -0.5278
 4850TIP3    H136041   3.333   1.035  45.019 -0.7545  1.2372  2.8922
 4850TIP3    H236042   3.213   1.126  45.001 -1.4331 -0.3342 -1.9970
 4851TIP3   OH236043   2.553   1.463  52.936 -0.0844  0.6801 -0.0124
 4851TIP3    H136044   2.575   1.414  52.856 -3.0202 -2.6093  0.9380
 4851TIP3    H236045   2.469   1.503  52.916 -1.5674 -1.3450  1.7182
 4852TIP3   OH236046   1.472   2.126  47.218 -0.3673  0.1253  0.0659
 4852TIP3    H136047   1.522   2.198  47.258  0.5267 -0.4672  0.0329
 4852TIP3    H236048   1.416   2.094  47.289  1.3898 -1.0805  0.9693
 4853TIP3   OH236049   2.010   1.671  55.451 -0.5112 -0.5747 -0.5182
 4853TIP3    H136050   2.019   1.749  55.396 -1.3504 -1.8508 -2.5906
 4853TIP3    H236051   1.992   1.705  55.539 -3.1498  1.5838 -1.7507
 4854TIP3   OH236052   1.681   0.160   8.010 -0.1218  0.2144  0.2450
 4854TIP3    H136053   1.726   0.079   8.033 -0.9125 -0.1007  0.7301
 4854TIP3    H236054   1.596   0.132   7.977 -0.9114  0.8689  1.5908
 4855TIP3   OH236055   2.713   2.899  56.270 -0.1015  0.4546  0.0179
 4855TIP3    H136056   2.798   2.878  56.233  0.2238  0.9442  0.4817
 4855TIP3    H236057   2.721   2.879  56.363  0.0964  2.2386  0.4079
 4856TIP3   OH236058   0.402   3.437   7.789 -0.6252  0.3891 -0.3698
 4856TIP3    H136059   0.475   3.440   7.850 -0.2462 -2.4679 -0.5516
 4856TIP3    H236060   0.443   3.442   7.702 -0.9694  1.9883 -0.4769
 4857TIP3   OH236061   3.117   1.572  27.017 -0.1459  0.3939  0.4905
 4857TIP3    H136062   3.134   1.582  27.111 -3.6653  0.5433  1.2598
 4857TIP3    H236063   3.140   1.481  26.998  0.9523  0.4602  1.4114
 4858TIP3   OH236064   2.165   2.104   2.811 -0.1639  0.0537 -0.4410
 4858TIP3    H136065   2.230   2.058   2.758  0.4306  1.0079 -0.5796
 4858TIP3    H236066   2.098   2.039   2.830 -0.1425 -0.4371 -1.9480
 4859TIP3   OH236067   1.388   0.170  61.658  0.4417 -0.1886  0.2227
 4859TIP3    H136068   1.340   0.184  61.577 -0.0196  0.0895  0.5430
 4859TIP3    H236069   1.458   0.109  61.634 -0.5283 -1.2153 -0.0897
 4860TIP3   OH236070   2.225   1.141  22.726 -0.0801 -0.1583  0.0640
 4860TIP3    H136071   2.234   1.048  22.750 -1.4271 -0.6475 -1.1288
 4860TIP3    H236072   2.304   1.182  22.759 -0.0650 -1.4644  1.8447
 4861TIP3   OH236073   3.256   2.116  45.822 -0.1408 -0.3477  0.8598
 4861TIP3    H136074   3.249   2.208  45.846 -0.4447 -0.0717 -0.2183
 4861TIP3    H236075   3.191   2.072  45.877 -0.6385  0.2178  0.7391
 4862TIP3   OH236076   2.969   0.898  46.598  0.1801  0.2756  0.5105
 4862TIP3    H136077   2.925   0.979  46.571 -0.5869 -0.8649 -1.8506
 4862TIP3    H236078   2.944   0.887  46.690 -0.2752  2.3148  0.6869
 4863TIP3   OH236079   3.306   2.341  53.076  0.6784  0.1220 -0.1247
 4863TIP3    H136080   3.268   2.305  53.157 -0.3296  0.7157 -0.3074
 4863TIP3    H236081   3.345   2.265  53.032 -0.9852 -0.7083 -0.2785
 4864TIP3   OH236082   3.222   2.783  15.329  0.3589 -0.0296 -0.3269
 4864TIP3    H136083   3.168   2.704  15.328  1.6191 -0.9338  0.1601
 4864TIP3    H236084   3.299   2.760  15.278  0.6188  0.9926 -0.4156
 4865TIP3   OH236085   2.676   1.806  11.219 -0.1303  0.2380  0.0894
 4865TIP3    H136086   2.676   1.787  11.126 -0.2916 -0.3749  0.2078
 4865TIP3    H236087   2.644   1.726  11.260 -2.3610  1.2689  0.5215
 4866TIP3   OH236088   0.254   1.507  57.480 -0.6932 -0.7182  0.0103
 4866TIP3    H136089   0.291   1.507  57.568 -0.0859 -0.1786 -0.2288
 4866TIP3    H236090   0.321   1.465  57.426 -1.5755 -2.1665 -0.0124
 4867TIP3   OH236091   1.482   2.996  37.426 -0.3310  0.7937  0.7188
 4867TIP3    H136092   1.544   3.009  37.354  0.7390 -0.4707  1.3556
 4867TIP3    H236093   1.397   2.987  37.384  0.2360  0.3446 -0.3814
 4868TIP3   OH236094   1.304   2.185  46.670  0.0061  0.1043 -0.1638
 4868TIP3    H136095   1.340   2.252  46.612  2.9588 -1.1784 -0.0311
 4868TIP3    H236096   1.353   2.195  46.752 -1.3875 -0.5265  0.7829
 4869TIP3   OH236097   0.822   0.286  50.681  0.0282 -0.0109  0.0051
 4869TIP3    H136098   0.792   0.356  50.738  0.1720 -0.1697  0.2739
 4869TIP3    H236099   0.809   0.320  50.592 -1.3048 -0.2287  0.0997
 4870TIP3   OH236100   1.133   0.609  16.635 -0.1998 -0.0972 -0.1054
 4870TIP3    H136101   1.132   0.513  16.634 -0.4242 -0.1094 -1.7356
 4870TIP3    H236102   1.211   0.632  16.685 -0.4785 -1.1123  0.8351
 4871TIP3   OH236103   2.025   1.808   6.064 -0.2500  0.0379 -0.3011
 4871TIP3    H136104   1.945   1.845   6.029 -0.8622 -1.3647 -0.4626
 4871TIP3    H236105   2.087   1.881   6.066 -1.5832  1.1946  0.0391
 4872TIP3   OH236106   1.836   2.718  12.314  0.3261 -0.3583 -0.4250
 4872TIP3    H136107   1.768   2.784  12.328  0.9682  0.1286  0.4526
 4872TIP3    H236108   1.806   2.641  12.364 -0.6388 -0.9176 -1.7992
 4873TIP3   OH236109   1.569   2.423   8.296 -0.1272  0.1203  0.2289
 4873TIP3    H136110   1.632   2.382   8.356 -0.2008 -0.3303 -0.0040
 4873TIP3    H236111   1.532   2.495   8.347  0.3127  0.1660  0.4934
 4874TIP3   OH236112   0.640   3.264  13.898 -0.0544 -0.3215 -0.0215
 4874TIP3    H136113   0.592   3.296  13.974  0.6629  0.1008  0.2620
 4874TIP3    H236114   0.695   3.193  13.933 -0.8305 -1.1391 -0.4368
 4875TIP3   OH236115   1.534   1.821  14.070 -0.1555 -0.3567 -0.3038
 4875TIP3    H136116   1.541   1.822  13.975 -0.1130 -0.1501 -0.2979
 4875TIP3    H236117   1.523   1.728  14.092  0.0397 -0.4263 -0.4939
 4876TIP3   OH236118   2.503   0.553  56.049  0.0735  0.1201  0.1288
 4876TIP3    H136119   2.532   0.644  56.060 -0.8121  0.3005  1.2335
 4876TIP3    H236120   2.410   0.555  56.073  0.1325 -1.1398  0.5253
 4877TIP3   OH236121   0.004   0.565   3.807 -0.5356 -0.1541  0.6427
 4877TIP3    H136122   0.078   0.535   3.858  0.7275 -1.4554 -1.7877
 4877TIP3    H236123  -0.050   0.487   3.794 -2.1579  0.6835  2.0060
 4878TIP3   OH236124   3.155   2.957  45.559  0.5513 -0.4433  0.0124
 4878TIP3    H136125   3.205   2.935  45.638 -0.2670  0.6621  0.8739
 4878TIP3    H236126   3.114   2.875  45.532  1.5622 -1.0224  0.2040
 4879TIP3   OH236127   0.518   0.743  31.170  0.4683 -0.3674  0.1768
 4879TIP3    H136128   0.505   0.807  31.241 -2.6799 -0.9455  0.2950
 4879TIP3    H236129   0.484   0.661  31.207 -0.7162 -0.8087 -1.7621
 4880TIP3   OH236130   3.254   3.386  18.537 -0.2355  0.1510  0.4623
 4880TIP3    H136131   3.221   3.339  18.613 -0.6877 -0.5259 -0.1418
 4880TIP3    H236132   3.345   3.359  18.529  1.0582  3.0792  2.9721
 4881TIP3   OH236133   1.528   3.408   1.752  0.3060 -0.3875 -0.2299
 4881TIP3    H136134   1.480   3.451   1.823 -2.4660  0.5723 -2.5337
 4881TIP3    H236135   1.472   3.336   1.725  1.8970 -1.5021 -0.7042
 4882TIP3   OH236136   2.861   2.416  52.654 -0.5605  0.1308 -0.1071
 4882TIP3    H136137   2.801   2.354  52.697 -0.2255  0.6760  1.2157
 4882TIP3    H236138   2.942   2.367  52.643 -0.2438  0.3462  1.0846
 4883TIP3   OH236139   1.616   0.772  51.321  0.6334  0.1524  0.3229
 4883TIP3    H136140   1.633   0.692  51.271  1.6275 -0.4213  1.5104
 4883TIP3    H236141   1.685   0.773  51.388 -0.0691  1.3973  1.0673
 4884TIP3   OH236142   3.244   3.357  15.187 -0.0089  0.0267 -0.2283
 4884TIP3    H136143   3.171   3.417  15.200  0.5521  0.5988  0.3918
 4884TIP3    H236144   3.219   3.277  15.232 -0.3437  0.1497 -0.1985
 4885TIP3   OH236145   3.138   2.547  22.038  0.1399 -0.5294 -0.0090
 4885TIP3    H136146   3.058   2.553  21.986 -0.7814  0.6493  1.4604
 4885TIP3    H236147   3.188   2.625  22.014  1.0180 -1.4045 -1.1311
 4886TIP3   OH236148   1.748   2.683   2.047  0.1758 -0.4712 -0.2103
 4886TIP3    H136149   1.720   2.610   2.102  0.2473  0.2795  0.8518
 4886TIP3    H236150   1.757   2.645   1.959  0.7909 -1.8662  0.4334
 4887TIP3   OH236151   0.277   0.273  50.040 -0.3675  0.3901 -0.2048
 4887TIP3    H136152   0.336   0.269  49.965 -0.3066 -2.1524 -0.1171
 4887TIP3    H236153   0.267   0.182  50.067 -3.7307  0.7820  0.2674
 4888TIP3   OH236154   1.064   0.230  38.566  0.2905 -0.1216  1.2200
 4888TIP3    H136155   0.991   0.222  38.628 -0.4607  0.6231  0.4700
 4888TIP3    H236156   1.123   0.293  38.607 -0.2164  0.3904  1.1843
 4889TIP3   OH236157   0.556   2.459  67.099  0.4235 -0.2188 -0.4851
 4889TIP3    H136158   0.587   2.505  67.021 -1.2035 -0.0754 -1.0940
 4889TIP3    H236159   0.526   2.374  67.067 -1.9438  0.5002 -0.4117
 4890TIP3   OH236160   1.843   3.196  15.141 -0.0929  0.3651  0.1050
 4890TIP3    H136161   1.861   3.284  15.173 -1.0363  0.9200 -0.8371
 4890TIP3    H236162   1.927   3.151  15.147  0.0774  0.8726  1.9452
 4891TIP3   OH236163   2.374   2.081   8.938  0.1556  0.5552 -0.2136
 4891TIP3    H136164   2.442   2.075   9.004 -0.4852  1.9115  0.6191
 4891TIP3    H236165   2.295   2.102   8.987 -0.4245  1.1320 -1.3645
 4892TIP3   OH236166   1.305   1.787  46.608  0.5187  0.1937 -0.4320
 4892TIP3    H136167   1.277   1.753  46.524 -1.2191  0.1545  0.1174
 4892TIP3    H236168   1.338   1.711  46.656  0.5710  0.0452 -0.7041
 4893TIP3   OH236169   2.646   1.840  67.059 -0.0110 -0.2736  0.5927
 4893TIP3    H136170   2.735   1.830  67.093  0.1679  0.5179  0.3803
 4893TIP3    H236171   2.591   1.847  67.136  0.0709 -1.0722  0.7378
 4894TIP3   OH236172   0.367   1.925  59.572  0.0646 -0.0296  0.2844
 4894TIP3    H136173   0.398   2.015  59.568 -1.3173  0.4781  0.6279
 4894TIP3    H236174   0.403   1.891  59.654  0.5455  0.2166  0.1767
 4895TIP3   OH236175   1.670   1.196  12.248  0.5723  0.2275  0.5824
 4895TIP3    H136176   1.703   1.191  12.338 -0.6849  1.1733  1.1289
 4895TIP3    H236177   1.604   1.265  12.251  0.7628  0.5319 -1.1625
 4896TIP3   OH236178   3.094   0.895  64.137  0.1575 -0.7384  0.8425
 4896TIP3    H136179   3.058   0.927  64.054 -0.8130  1.0557  1.9043
 4896TIP3    H236180   3.189   0.896  64.123  0.0243 -3.1640 -1.1427
 4897TIP3   OH236181   3.109   1.808  12.401 -0.0718  0.2439  0.5640
 4897TIP3    H136182   3.133   1.803  12.308 -0.4043  2.0913  0.3570
 4897TIP3    H236183   3.044   1.738  12.412  0.0001 -0.0356 -0.5702
 4898TIP3   OH236184   2.585   0.979  45.904 -0.6958 -0.2110  0.1046
 4898TIP3    H136185   2.538   0.950  45.826 -2.3165 -0.0395  0.9670
 4898TIP3    H236186   2.607   1.071  45.887 -0.7825 -0.2588 -0.2621
 4899TIP3   OH236187   2.111   0.921  45.633 -0.6016 -0.0470 -0.3450
 4899TIP3    H136188   2.044   0.962  45.687  0.9823  0.8121  1.0403
 4899TIP3    H236189   2.097   0.827  45.644 -0.8642  0.1194  0.8637
 4900TIP3   OH236190   2.290   0.728  13.501  0.2159  0.2489 -0.2325
 4900TIP3    H136191   2.305   0.645  13.545  2.7981  1.7903  2.1805
 4900TIP3    H236192   2.232   0.776  13.561  2.3071  1.7057  0.7604
 4901TIP3   OH236193   0.179   1.184  11.647  0.5404  0.5128  0.0875
 4901TIP3    H136194   0.217   1.159  11.732  1.0809  1.7339  0.2311
 4901TIP3    H236195   0.211   1.273  11.632 -2.1078  1.5353  0.0948
 4902TIP3   OH236196   1.962   0.142  13.844 -0.5332 -0.3213  0.1659
 4902TIP3    H136197   1.945   0.234  13.828 -1.0873 -0.3837  0.3678
 4902TIP3    H236198   1.935   0.128  13.935  1.1251 -0.3091  0.6826
 4903TIP3   OH236199   0.532   1.187  14.276  0.3319  0.4638 -0.1667
 4903TIP3    H136200   0.461   1.194  14.213 -0.6772 -0.6529  0.7994
 4903TIP3    H236201   0.543   1.275  14.311 -0.7298  0.6104 -0.1863
 4904TIP3   OH236202   2.258   1.597  45.210  0.5741  0.1499 -0.1841
 4904TIP3    H136203   2.258   1.692  45.208 -1.7746  0.2146 -1.3221
 4904TIP3    H236204   2.190   1.572  45.147  0.5437 -2.2474  0.6893
 4905TIP3   OH236205   0.441   0.716  57.092  0.0286 -0.3246  0.2577
 4905TIP3    H136206   0.395   0.656  57.151 -2.1465 -0.9629 -1.9250
 4905TIP3    H236207   0.442   0.671  57.008  1.6198  1.2214 -0.6178
 4906TIP3   OH236208   0.083   1.729  30.655  0.2495  0.6028 -0.3659
 4906TIP3    H136209   0.061   1.640  30.682 -1.3471  0.7566 -1.0637
 4906TIP3    H236210   0.176   1.738  30.677 -0.3327 -0.0630  2.8976
 4907TIP3   OH236211   2.791   0.689  27.630  0.2992 -0.0891 -0.3151
 4907TIP3    H136212   2.839   0.637  27.694 -0.3617  0.3791  0.5772
 4907TIP3    H236213   2.791   0.635  27.551  0.7013 -0.8912  0.2181
 4908TIP3   OH236214   2.389   2.545  61.653 -0.2827  0.1069  0.1448
 4908TIP3    H136215   2.310   2.493  61.650  1.0458 -1.9840 -1.5552
 4908TIP3    H236216   2.412   2.551  61.746 -1.0301 -1.5079  0.4536
 4909TIP3   OH236217   1.258   2.393  54.540 -0.4776  0.0592  0.0946
 4909TIP3    H136218   1.294   2.365  54.456  1.8896  0.7548  0.8090
 4909TIP3    H236219   1.291   2.328  54.602 -0.5652  0.6740  0.7862
 4910TIP3   OH236220   1.815   0.696  45.996 -0.7342  0.6062 -0.3250
 4910TIP3    H136221   1.752   0.632  46.031  0.2170 -0.0045  0.3077
 4910TIP3    H236222   1.842   0.747  46.073  0.6152 -0.0858 -0.3205
 4911TIP3   OH236223   0.475   2.838  13.786  0.1934  0.1900  0.3055
 4911TIP3    H136224   0.555   2.786  13.774 -0.3868 -0.3461 -1.4204
 4911TIP3    H236225   0.481   2.907  13.721 -0.9828 -0.1530 -0.1911
 4912TIP3   OH236226   2.900   2.594   1.608 -0.0168  0.0045 -0.2589
 4912TIP3    H136227   2.975   2.597   1.667  0.5793  0.7104 -1.0331
 4912TIP3    H236228   2.913   2.668   1.549 -0.4695 -0.8137 -1.4210
 4913TIP3   OH236229   0.102   2.826   5.541  0.1641  0.4080  0.2958
 4913TIP3    H136230   0.109   2.918   5.517 -0.0797  0.1395 -0.8673
 4913TIP3    H236231   0.072   2.827   5.632 -0.9291  1.4740 -0.0528
 4914TIP3   OH236232   3.329   3.287  65.236 -0.5863  0.3845  0.4807
 4914TIP3    H136233   3.347   3.193  65.241  0.9973  0.5944 -0.5328
 4914TIP3    H236234   3.408   3.329  65.270 -0.6304  1.3519 -0.5336
 4915TIP3   OH236235   1.153   0.825  67.238 -0.5454 -0.1807  0.7477
 4915TIP3    H136236   1.247   0.819  67.221 -0.9383 -2.0128 -1.1101
 4915TIP3    H236237   1.146   0.821  67.333  1.2902  1.0557  0.9865
 4916TIP3   OH236238   0.820   0.105  65.577  0.3305 -0.2029 -0.6206
 4916TIP3    H136239   0.819   0.153  65.659  0.9339 -1.0908 -0.0847
 4916TIP3    H236240   0.730   0.112  65.544 -0.2368 -0.8342  0.7064
 4917TIP3   OH236241   0.815   2.973  46.160 -0.0989  0.5416  0.1662
 4917TIP3    H136242   0.889   2.927  46.120 -1.2383 -0.9986 -0.2636
 4917TIP3    H236243   0.773   2.907  46.215 -1.2032  1.3607  0.3252
 4918TIP3   OH236244   2.356   0.082   1.028 -0.3222 -0.4972  0.4001
 4918TIP3    H136245   2.321   0.073   1.116 -0.0690 -1.7593  0.3936
 4918TIP3    H236246   2.428   0.019   1.024  0.1952  0.1201 -0.4513
 4919TIP3   OH236247   1.699   0.321  56.944  0.1353 -0.8181  0.4491
 4919TIP3    H136248   1.781   0.369  56.937  0.0947 -0.9148 -0.9241
 4919TIP3    H236249   1.672   0.332  57.035  0.4786  1.1697  0.3452
 4920TIP3   OH236250   1.755   1.417  58.081  0.2927 -0.7066 -0.7724
 4920TIP3    H136251   1.789   1.343  58.029  1.1266 -0.8998  0.0211
 4920TIP3    H236252   1.814   1.489  58.060  0.2535 -0.6177 -0.5712
 4921TIP3   OH236253   1.550   0.333   8.538 -0.0950  0.4397 -0.4076
 4921TIP3    H136254   1.456   0.323   8.527 -0.1681 -2.1278  1.6656
 4921TIP3    H236255   1.561   0.419   8.579 -1.3017  1.5114 -2.1927
 4922TIP3   OH236256   3.049   2.939  14.868 -0.1928  0.2069 -0.4653
 4922TIP3    H136257   3.096   2.861  14.841 -0.6900 -0.2261 -0.0924
 4922TIP3    H236258   2.959   2.910  14.881 -0.4422  0.8974 -0.5908
 4923TIP3   OH236259   3.421   0.465  16.859 -0.6259  0.3353  0.2049
 4923TIP3    H136260   3.506   0.507  16.849 -1.0318  1.0678 -0.2485
 4923TIP3    H236261   3.371   0.524  16.915 -0.5341 -0.5631  1.2687
 4924TIP3   OH236262   2.409   2.162  17.865  0.2487  0.0529  0.9159
 4924TIP3    H136263   2.448   2.108  17.934  0.1817 -0.9205  0.2230
 4924TIP3    H236264   2.454   2.246  17.872  4.7410 -1.7721 -1.6568
 4925TIP3   OH236265   0.972   0.782   5.894 -0.5906  0.4367  0.2549
 4925TIP3    H136266   1.004   0.844   5.960 -1.3201  0.7873  0.2845
 4925TIP3    H236267   0.921   0.836   5.833 -1.3196 -0.1536  0.3353
 4926TIP3   OH236268   0.372   0.601  64.950  0.0008 -0.3027  0.6303
 4926TIP3    H136269   0.391   0.629  65.040 -0.7725 -0.4374  0.8499
 4926TIP3    H236270   0.403   0.672  64.895  1.3815 -0.6437  0.9351
 4927TIP3   OH236271   0.415   0.704   1.269  0.4709 -0.1546 -0.4093
 4927TIP3    H136272   0.347   0.674   1.330  0.1030  1.3800 -0.0401
 4927TIP3    H236273   0.493   0.655   1.296  0.6115  1.2426  2.0823
 4928TIP3   OH236274   2.164   3.217  14.191  0.1300  0.3505 -0.0225
 4928TIP3    H136275   2.118   3.134  14.179  0.2964  0.2665 -0.0690
 4928TIP3    H236276   2.106   3.282  14.150  1.0297 -0.0191 -2.0085
 4929TIP3   OH236277   1.900   2.491  58.751  0.6547 -0.0936  0.4566
 4929TIP3    H136278   1.808   2.478  58.776  0.6077  1.1478  0.9818
 4929TIP3    H236279   1.943   2.519  58.832  1.4474 -0.4196  0.1536
 4930TIP3   OH236280   1.729   0.559  19.574 -0.3908 -0.1276 -0.3360
 4930TIP3    H136281   1.681   0.550  19.656 -0.6364  0.4655 -0.4085
 4930TIP3    H236282   1.703   0.484  19.521 -1.7266  0.5107 -0.6171
 4931TIP3   OH236283   1.420   0.648  56.521  0.2538 -0.1426 -0.4111
 4931TIP3    H136284   1.486   0.706  56.483 -0.2614  1.0222  0.4092
 4931TIP3    H236285   1.351   0.643  56.454  1.0353 -1.1870 -1.1803
 4932TIP3   OH236286   1.556   2.901  49.672  0.4703  0.0555 -0.2384
 4932TIP3    H136287   1.587   2.884  49.583  0.0357  1.8455 -0.7879
 4932TIP3    H236288   1.460   2.898  49.665  0.3892  1.7415 -0.2158
 4933TIP3   OH236289   1.162   0.594   7.749 -0.2515  0.2511  0.2214
 4933TIP3    H136290   1.108   0.520   7.721  1.9029 -0.9321 -1.0649
 4933TIP3    H236291   1.145   0.662   7.684  0.0915 -0.2622 -0.4171
 4934TIP3   OH236292   2.387   1.001  56.906 -0.6169  0.3721  0.2232
 4934TIP3    H136293   2.323   1.047  56.854 -0.4617 -1.7602 -2.0382
 4934TIP3    H236294   2.470   1.043  56.886 -0.3867 -1.0521 -2.2722
 4935TIP3   OH236295   0.819   3.300  58.701 -0.5245 -0.3671  0.2002
 4935TIP3    H136296   0.736   3.319  58.745  0.8501  1.4187  2.2004
 4935TIP3    H236297   0.857   3.385  58.683  1.1666 -1.1393 -0.0796
 4936TIP3   OH236298   0.358   2.934  50.072 -0.4756  0.0495 -0.3898
 4936TIP3    H136299   0.430   2.917  50.012 -0.3343 -1.5685  0.2070
 4936TIP3    H236300   0.279   2.930  50.017 -0.3366 -1.2168 -0.5077
 4937TIP3   OH236301   0.262   1.588  13.093 -0.4857 -0.2128 -0.0653
 4937TIP3    H136302   0.225   1.529  13.159  1.6974 -0.0266  1.4097
 4937TIP3    H236303   0.257   1.538  13.012  0.1165 -1.9545  0.9154
 4938TIP3   OH236304   2.121   2.221  51.090  0.5721  0.1690  0.1252
 4938TIP3    H136305   2.050   2.217  51.154  0.8547 -0.8110  0.3996
 4938TIP3    H236306   2.156   2.310  51.097 -1.2531  1.0128 -0.7192
 4939TIP3   OH236307   0.634   0.098  17.057 -0.1230 -1.1264 -0.3804
 4939TIP3    H136308   0.559   0.048  17.090 -1.0202  0.9498  0.9390
 4939TIP3    H236309   0.627   0.183  17.100  1.4822  0.0698 -2.3020
 4940TIP3   OH236310   1.039   2.648  21.795  0.2877 -0.0234  0.0642
 4940TIP3    H136311   1.127   2.684  21.783  0.3287 -0.4499 -1.0466
 4940TIP3    H236312   1.029   2.586  21.723 -1.3933  0.9397 -0.5839
 4941TIP3   OH236313   1.510   0.604   4.598  0.0629 -0.2195 -0.1672
 4941TIP3    H136314   1.475   0.516   4.610 -0.6245 -0.0662 -0.9175
 4941TIP3    H236315   1.514   0.641   4.687  2.1203 -1.6209  0.3782
 4942TIP3   OH236316   0.706   1.854  63.684  0.0220 -0.0292  0.4247
 4942TIP3    H136317   0.779   1.839  63.744  0.0796 -0.5334  0.2323
 4942TIP3    H236318   0.629   1.859  63.741  0.3804  2.2191  0.8142
 4943TIP3   OH236319   0.519   1.442  20.117 -0.0466 -0.2032  0.2613
 4943TIP3    H136320   0.541   1.519  20.065  1.0354 -0.3625  0.4573
 4943TIP3    H236321   0.448   1.471  20.173  1.4836  1.2024  1.5793
 4944TIP3   OH236322   2.844   0.595  49.355  0.4121 -0.2443 -0.1142
 4944TIP3    H136323   2.862   0.560  49.268 -0.1518 -0.9376  0.0411
 4944TIP3    H236324   2.902   0.546  49.413  0.8727  0.2982 -0.1009
 4945TIP3   OH236325   1.093   0.204  14.665 -0.3377 -0.1858 -0.0244
 4945TIP3    H136326   1.179   0.238  14.689 -0.2548  0.0489 -0.6528
 4945TIP3    H236327   1.083   0.125  14.719  0.2915 -0.2400  0.0220
 4946TIP3   OH236328   3.270   0.221   9.857 -0.7400  0.4212 -0.0498
 4946TIP3    H136329   3.194   0.200   9.802 -0.0216  0.4608 -1.0847
 4946TIP3    H236330   3.263   0.315   9.873 -1.4701  0.2463  0.7550
 4947TIP3   OH236331   2.184   0.756  60.722  0.7760 -0.0206  0.0584
 4947TIP3    H136332   2.227   0.814  60.659 -0.3139  0.4311 -0.2905
 4947TIP3    H236333   2.113   0.809  60.759 -0.5098 -1.2499 -0.5665
 4948TIP3   OH236334   2.144   3.432  42.907  0.2407  0.5254  0.3428
 4948TIP3    H136335   2.098   3.391  42.980 -0.8167  1.2683  0.1189
 4948TIP3    H236336   2.236   3.408  42.920 -0.1834 -0.9012  0.8655
 4949TIP3   OH236337   1.048   3.088  38.052 -0.2322 -0.0736  0.4131
 4949TIP3    H136338   1.139   3.064  38.071  0.1905  1.6200  0.6907
 4949TIP3    H236339   1.041   3.084  37.957  0.4818  0.9015  0.3050
 4950TIP3   OH236340   1.063   1.152   2.794 -0.4370  0.2193  0.5009
 4950TIP3    H136341   1.074   1.247   2.803 -0.7240  0.3180 -0.1447
 4950TIP3    H236342   1.034   1.140   2.704  0.6102 -0.5795  0.2610
 4951TIP3   OH236343   1.030   2.206   8.861 -0.1061 -0.1900  0.3366
 4951TIP3    H136344   1.125   2.218   8.860  0.0603 -1.3882 -0.2703
 4951TIP3    H236345   1.010   2.164   8.777 -1.1803  0.1042  0.4284
 4952TIP3   OH236346   1.971   1.342  45.949  0.2484  0.2071  0.2649
 4952TIP3    H136347   1.958   1.419  45.894  0.2459  0.4449  0.5909
 4952TIP3    H236348   2.039   1.368  46.011 -1.1944  0.6902  1.7297
 4953TIP3   OH236349   2.028   0.029  57.114  0.3287  0.2274  0.0075
 4953TIP3    H136350   2.020  -0.025  57.193 -1.2074  0.4771  0.0480
 4953TIP3    H236351   2.001   0.117  57.142 -2.0516 -0.0564 -1.1763
 4954TIP3   OH236352   2.120   2.946   5.466 -0.2169 -0.2396  0.0316
 4954TIP3    H136353   2.159   2.988   5.389 -1.5465  0.4460 -0.3017
 4954TIP3    H236354   2.046   2.895   5.431  0.1720 -1.2680  0.6703
 4955TIP3   OH236355   2.749   2.107  17.721  0.8871  0.4334 -0.4252
 4955TIP3    H136356   2.818   2.158  17.679  1.7789 -1.3540 -1.2480
 4955TIP3    H236357   2.781   2.017  17.718 -1.0925 -0.3280  0.0075
 4956TIP3   OH236358   2.056   2.015  54.564  0.1717 -0.0177 -0.2852
 4956TIP3    H136359   2.070   2.091  54.620 -0.1569 -0.7534  0.8441
 4956TIP3    H236360   1.967   2.025  54.530 -0.2884 -0.4036  0.7341
 4957TIP3   OH236361   2.653   2.733   9.874 -0.2676  0.1666 -0.3109
 4957TIP3    H136362   2.597   2.676   9.821 -1.6296  1.2127 -0.0721
 4957TIP3    H236363   2.619   2.821   9.858  1.1502  0.8151  0.0860
 4958TIP3   OH236364   0.275   0.176  43.454  0.2827  0.2316  0.2992
 4958TIP3    H136365   0.222   0.222  43.389  0.1486  0.0247  0.2612
 4958TIP3    H236366   0.230   0.193  43.537 -0.2444 -0.5265  0.1781
 4959TIP3   OH236367   2.423   1.316   5.434  0.0747 -0.2577  0.1758
 4959TIP3    H136368   2.360   1.244   5.433  1.2058 -1.2998  0.9089
 4959TIP3    H236369   2.446   1.329   5.342 -0.2288 -0.7688  0.0247
 4960TIP3   OH236370   0.637   2.209  61.581 -0.3553  0.8741 -0.1078
 4960TIP3    H136371   0.614   2.279  61.519 -0.7625  1.4259  0.6592
 4960TIP3    H236372   0.663   2.255  61.661 -2.7334  0.1603  1.1748
 4961TIP3   OH236373   2.228   2.315  14.817 -0.2068 -0.3450  0.1515
 4961TIP3    H136374   2.179   2.351  14.891  0.1148  2.5469 -0.8992
 4961TIP3    H236375   2.206   2.222  14.817 -0.5908 -0.3977  3.5441
 4962TIP3   OH236376   3.284   0.719  50.131 -0.9155 -0.1278 -0.0274
 4962TIP3    H136377   3.190   0.705  50.118 -1.0033  0.2828  0.1388
 4962TIP3    H236378   3.293   0.815  50.136 -0.6149 -0.1918  0.8599
 4963TIP3   OH236379   1.820   3.421  11.221  0.1905  0.0978 -0.1649
 4963TIP3    H136380   1.877   3.496  11.239 -0.1929  0.5062 -0.6256
 4963TIP3    H236381   1.751   3.427  11.287 -1.2209  1.6015 -1.7023
 4964TIP3   OH236382   3.435   3.365   2.855  0.5037 -0.6858  0.5221
 4964TIP3    H136383   3.365   3.309   2.823 -0.2717  0.0593  0.8648
 4964TIP3    H236384   3.420   3.370   2.949  0.1901  0.5615  0.4218
 4965TIP3   OH236385   1.692   2.719  46.270  0.8919  0.0408 -0.3424
 4965TIP3    H136386   1.754   2.653  46.301 -1.0710 -0.3258  3.4403
 4965TIP3    H236387   1.675   2.695  46.178  2.4142 -2.9720  0.0370
 4966TIP3   OH236388   2.836   3.387  59.439 -0.2566 -0.6000 -0.0919
 4966TIP3    H136389   2.741   3.394  59.427 -0.5932 -0.5173  2.1978
 4966TIP3    H236390   2.869   3.474  59.416 -1.0955  0.2107  1.6072
 4967TIP3   OH236391   1.556   3.025  54.531  0.7104  0.3834  0.0448
 4967TIP3    H136392   1.498   3.075  54.473 -1.3342 -0.7390  1.0369
 4967TIP3    H236393   1.587   3.090  54.595 -0.3528  0.7899  0.1624
 4968TIP3   OH236394   2.240   1.323   1.137  0.3375  0.2262  0.2092
 4968TIP3    H136395   2.298   1.367   1.076  0.3509 -0.7179 -0.4773
 4968TIP3    H236396   2.192   1.394   1.180  2.1885  1.0395  1.0168
 4969TIP3   OH236397   0.810   2.118  64.583 -0.0007 -0.2535  0.5295
 4969TIP3    H136398   0.833   2.175  64.509 -1.4405 -0.2381  0.0732
 4969TIP3    H236399   0.888   2.065  64.597 -0.2209 -1.4196 -2.0818
 4970TIP3   OH236400   2.813   1.738   6.679  0.0496  0.3267 -0.0378
 4970TIP3    H136401   2.884   1.732   6.615  1.6581 -0.1832  1.6694
 4970TIP3    H236402   2.836   1.815   6.732 -1.1354  0.6332  0.0611
 4971TIP3   OH236403   2.237   0.275  16.218  0.1943 -0.5022  0.1593
 4971TIP3    H136404   2.267   0.313  16.301  3.2497 -0.2896 -0.9002
 4971TIP3    H236405   2.282   0.190  16.214  2.4048  0.6440 -2.4179
 4972TIP3   OH236406   3.365   1.332  61.348 -0.2947  0.9646 -0.1443
 4972TIP3    H136407   3.423   1.366  61.416  1.0006 -1.0025 -0.1976
 4972TIP3    H236408   3.294   1.397  61.342  2.1775  3.8487 -0.5648
 4973TIP3   OH236409   2.745   1.144  67.003 -0.0953  0.5897  0.8328
 4973TIP3    H136410   2.755   1.224  67.055  1.8877  0.8168  0.1634
 4973TIP3    H236411   2.834   1.117  66.984 -0.6793 -2.2880  1.7373
 4974TIP3   OH236412   0.054   2.032  62.456 -0.5430  0.1271 -0.1997
 4974TIP3    H136413   0.123   1.988  62.407  1.0162  1.3767  0.7980
 4974TIP3    H236414   0.097   2.106  62.498 -2.3151  0.4544  1.1591
 4975TIP3   OH236415   3.089   2.603  59.989 -0.1073  0.2664  0.3130
 4975TIP3    H136416   3.161   2.590  59.928 -0.0696  1.2253  0.1445
 4975TIP3    H236417   3.011   2.604  59.934 -0.3640 -1.5910  0.5732
 4976TIP3   OH236418   3.271   3.213  61.607  0.4614  0.1738 -0.0773
 4976TIP3    H136419   3.210   3.243  61.541  0.6339 -0.2560 -0.4375
 4976TIP3    H236420   3.248   3.262  61.686  0.1358  0.5494 -0.4074
 4977TIP3   OH236421   1.712   1.597  54.662  0.0498  0.4070 -0.2275
 4977TIP3    H136422   1.780   1.611  54.728 -2.1374  1.7800  1.9377
 4977TIP3    H236423   1.677   1.510  54.682 -0.1906  0.5629  0.0450
 4978TIP3   OH236424   3.298   1.740   7.888 -0.2053 -0.2283  0.0756
 4978TIP3    H136425   3.272   1.805   7.823  5.0977  0.9873 -1.3139
 4978TIP3    H236426   3.331   1.666   7.837  2.6521  0.1175  1.2018
 4979TIP3   OH236427   1.914   1.538   7.094  0.3609 -0.2882  0.1996
 4979TIP3    H136428   1.875   1.567   7.011 -1.7859 -0.7443  0.9961
 4979TIP3    H236429   1.890   1.606   7.156  0.1927 -0.9655  0.8838
 4980TIP3   OH236430   0.734   1.067   7.898  0.3137 -0.0768 -0.1131
 4980TIP3    H136431   0.656   1.015   7.880  0.9055 -1.5899  1.3417
 4980TIP3    H236432   0.798   1.003   7.932  2.3646  1.0062 -1.6909
 4981TIP3   OH236433   2.792   3.027  55.886 -0.4558 -0.1371 -0.2350
 4981TIP3    H136434   2.832   2.967  55.948 -0.5064  1.0353  0.9793
 4981TIP3    H236435   2.702   3.038  55.917 -0.6045  0.1427 -0.7467
 4982TIP3   OH236436   0.553   3.020  54.622  0.5845  0.0745  0.4346
 4982TIP3    H136437   0.576   2.927  54.618  0.5764  0.0681  0.5381
 4982TIP3    H236438   0.464   3.022  54.656  0.6942  0.1335  0.7236
 4983TIP3   OH236439   2.009   2.908  59.215 -0.0033 -0.8832  0.1187
 4983TIP3    H136440   2.008   2.813  59.230  0.5019 -0.7472  1.1198
 4983TIP3    H236441   2.003   2.917  59.120 -4.1234 -1.8292  0.1024
 4984TIP3   OH236442   3.113   1.506   4.263 -0.8282 -0.0025 -0.0781
 4984TIP3    H136443   3.095   1.589   4.218 -0.6838 -0.0482 -0.2157
 4984TIP3    H236444   3.106   1.528   4.356 -0.5843  0.2105 -0.1094
 4985TIP3   OH236445   1.923   2.150  43.903 -0.0484 -0.5723 -0.3122
 4985TIP3    H136446   2.007   2.183  43.935 -0.0988 -0.4851 -0.2681
 4985TIP3    H236447   1.871   2.134  43.982  0.7739 -3.0008 -0.1843
 4986TIP3   OH236448   0.530   0.800  42.030  0.2794 -0.3383 -0.8532
 4986TIP3    H136449   0.555   0.877  42.080 -1.1390 -0.2061 -0.3026
 4986TIP3    H236450   0.576   0.728  42.073  0.7808  0.0554 -0.7170
 4987TIP3   OH236451   0.924   1.653  50.949 -0.6833 -0.4384  0.0286
 4987TIP3    H136452   0.998   1.684  51.000 -0.8529  0.4582 -0.2535
 4987TIP3    H236453   0.933   1.558  50.949  1.9949 -0.2889 -2.2627
 4988TIP3   OH236454   2.339   0.048  20.068 -0.6056 -0.1375 -0.3597
 4988TIP3    H136455   2.279   0.093  20.127 -1.2405 -1.7053  0.2192
 4988TIP3    H236456   2.320   0.085  19.982 -3.2454 -1.3823 -0.3972
 4989TIP3   OH236457   1.807   1.931  49.116 -0.1661 -0.2709  0.2497
 4989TIP3    H136458   1.857   1.980  49.181 -0.8499  0.3300  0.3242
 4989TIP3    H236459   1.847   1.843  49.117  0.0541 -0.1686  1.2213
 4990TIP3   OH236460   0.057   1.924  17.359 -0.4061 -0.4334 -0.2232
 4990TIP3    H136461   0.013   1.985  17.299 -0.3389 -0.8490 -0.6931
 4990TIP3    H236462   0.129   1.888  17.308  0.9980  0.8320  0.7858
 4991TIP3   OH236463   2.263   1.281  48.047 -0.0397  0.0231  0.0648
 4991TIP3    H136464   2.226   1.221  48.112 -0.2924 -1.7915 -1.6851
 4991TIP3    H236465   2.337   1.322  48.092 -0.5759 -0.7181  1.6926
 4992TIP3   OH236466   0.938   0.993   1.098  0.2924  0.6681 -0.5941
 4992TIP3    H136467   0.881   0.952   1.163 -0.1674  2.5425  0.2768
 4992TIP3    H236468   0.893   0.979   1.014 -0.0174 -0.2519 -0.2901
 4993TIP3   OH236469   0.112   1.292  10.363  0.3881  0.1770 -0.2151
 4993TIP3    H136470   0.140   1.333  10.444 -0.1235  2.0446 -0.9266
 4993TIP3    H236471   0.109   1.198  10.383  1.6245  0.4487  1.4823
 4994TIP3   OH236472   3.224   2.552  44.506 -0.0883 -0.7222  0.3840
 4994TIP3    H136473   3.193   2.615  44.571 -1.2458 -1.0631  0.1843
 4994TIP3    H236474   3.204   2.466  44.543  1.9680 -1.0421  0.8986
 4995TIP3   OH236475   2.569   2.170  53.154 -1.0148  0.6625  0.2936
 4995TIP3    H136476   2.613   2.113  53.091  0.4204  1.0008  0.9444
 4995TIP3    H236477   2.596   2.258  53.129 -1.4441  0.8902  0.6242
 4996TIP3   OH236478   1.288   2.580  22.205 -0.3371 -0.0866  0.0120
 4996TIP3    H136479   1.281   2.610  22.296 -0.7643  3.6301 -1.1035
 4996TIP3    H236480   1.363   2.627  22.169 -1.2241 -0.1288 -2.0176
 4997TIP3   OH236481   0.185   1.391  54.823  0.3308  0.5368 -0.2302
 4997TIP3    H136482   0.162   1.481  54.800  0.9136  1.1491  1.4282
 4997TIP3    H236483   0.104   1.342  54.810 -0.8075  1.8502  1.5012
 4998TIP3   OH236484   3.130   1.333  20.887  0.2785  0.1461 -0.7918
 4998TIP3    H136485   3.166   1.257  20.841  1.3207 -0.7702  1.3978
 4998TIP3    H236486   3.193   1.351  20.957 -1.1057  1.5933  0.1566
 4999TIP3   OH236487   0.582   1.351  62.770 -0.1290 -0.2648 -0.1708
 4999TIP3    H136488   0.551   1.419  62.831 -0.9802 -0.6513 -0.1575
 4999TIP3    H236489   0.668   1.326  62.803  1.6149  2.8940 -1.8456
 5000TIP3   OH236490   2.494   3.291  60.993  0.7504 -0.2599 -0.3800
 5000TIP3    H136491   2.486   3.382  60.965  0.5481 -0.4602 -0.9917
 5000TIP3    H236492   2.405   3.257  60.990  0.7053 -0.2579  0.6426
 5001TIP3   OH236493   0.275   0.729  12.375 -0.1674  0.3319  0.2995
 5001TIP3    H136494   0.315   0.644  12.394  0.8228  0.8502  0.6383
 5001TIP3    H236495   0.216   0.712  12.303  1.8812 -0.1945 -1.3659
 5002TIP3   OH236496   1.141   1.969  19.244  0.0500 -0.6035  0.0971
 5002TIP3    H136497   1.170   2.057  19.221 -0.8740 -0.2570  0.2174
 5002TIP3    H236498   1.222   1.919  19.252  0.5446  0.0053 -0.8746
 5003TIP3   OH236499   3.099   2.094  18.537  0.2047 -0.0184 -0.1577
 5003TIP3    H136500   3.111   2.069  18.629 -3.2375  0.2208  0.5006
 5003TIP3    H236501   3.079   2.012  18.492  1.6235 -0.0978 -0.6923
 5004TIP3   OH236502   2.840   0.790  59.690 -0.1619  0.0980  0.2652
 5004TIP3    H136503   2.931   0.791  59.719 -0.3332  1.7411  0.7938
 5004TIP3    H236504   2.842   0.743  59.606  0.9087 -1.2583  1.0026
 5005TIP3   OH236505   0.533   0.599  48.306 -0.1631 -0.4243  0.3568
 5005TIP3    H136506   0.531   0.509  48.274  0.3279 -0.9736  1.7927
 5005TIP3    H236507   0.626   0.620  48.311 -0.2793  0.2322 -0.1420
 5006TIP3   OH236508   0.447   3.426  58.150  0.1912 -0.2100  0.4448
 5006TIP3    H136509   0.376   3.485  58.175  1.0362  0.5119  1.2244
 5006TIP3    H236510   0.484   3.396  58.234  0.2021 -1.3305  0.0555
 5007TIP3   OH236511   1.978   2.601  14.828  0.0275  0.1545  0.4454
 5007TIP3    H136512   1.969   2.528  14.765  1.0799 -1.1322  1.7193
 5007TIP3    H236513   1.975   2.679  14.773  0.7928 -0.9085 -1.2210
 5008TIP3   OH236514   2.855   2.172   1.345  0.4727  0.1462  0.6278
 5008TIP3    H136515   2.774   2.173   1.294  0.4978 -0.8009  0.5403
 5008TIP3    H236516   2.833   2.213   1.428 -0.1947 -0.4358  0.7414
 5009TIP3   OH236517   0.362   0.589  60.164  0.3911  0.5382  0.0827
 5009TIP3    H136518   0.358   0.494  60.155 -0.6915  0.6408 -0.7836
 5009TIP3    H236519   0.271   0.617  60.159  0.6568  1.5894  0.8276
 5010TIP3   OH236520   0.593   3.234  53.560 -0.8563 -0.0457  0.3420
 5010TIP3    H136521   0.595   3.145  53.595 -3.1309 -0.5758 -0.7095
 5010TIP3    H236522   0.643   3.230  53.479 -0.2608 -0.1561  0.7136
 5011TIP3   OH236523   2.277   0.494   4.506  0.6011 -0.6743 -0.1309
 5011TIP3    H136524   2.344   0.558   4.533 -0.7243  0.7539 -0.0777
 5011TIP3    H236525   2.312   0.456   4.426  1.0844  0.7172 -0.6160
 5012TIP3   OH236526   0.347   1.385   2.107 -0.7532 -0.2537 -0.1746
 5012TIP3    H136527   0.303   1.442   2.044 -1.0468  0.0936  0.3352
 5012TIP3    H236528   0.421   1.437   2.139 -0.3774 -0.5723 -0.5081
 5013TIP3   OH236529   3.007   2.089   6.605  0.0807  0.4013 -0.0128
 5013TIP3    H136530   2.988   2.074   6.512 -0.4754  0.3439  0.1055
 5013TIP3    H236531   2.921   2.085   6.647  0.4635 -0.9879  0.6979
 5014TIP3   OH236532   0.348   0.195  48.635  0.2832  0.1429 -0.0504
 5014TIP3    H136533   0.367   0.263  48.699 -0.8876  0.9434 -0.5174
 5014TIP3    H236534   0.414   0.128  48.650  1.7679  1.5927  0.1225
 5015TIP3   OH236535   1.676   1.721  44.227  0.1192 -0.0663 -0.3280
 5015TIP3    H136536   1.582   1.739  44.234  0.5875  2.2316  1.1241
 5015TIP3    H236537   1.683   1.628  44.248 -1.8413 -0.3757 -0.7793
 5016TIP3   OH236538   1.209   1.733  56.249 -0.0883 -0.3323  0.4089
 5016TIP3    H136539   1.288   1.686  56.276 -0.8216 -0.3644  2.7029
 5016TIP3    H236540   1.232   1.774  56.166  2.4732  0.0156  1.2230
 5017TIP3   OH236541   2.601   0.072   9.771 -0.8015 -0.1285  0.6227
 5017TIP3    H136542   2.556   0.015   9.834  0.8882 -0.9804  1.1090
 5017TIP3    H236543   2.645   0.138   9.825 -0.0861 -0.3134  0.2753
 5018TIP3   OH236544   2.824   1.597  14.879  0.3149  0.8612 -0.1694
 5018TIP3    H136545   2.805   1.651  14.802 -0.8472 -0.1017 -0.5771
 5018TIP3    H236546   2.913   1.624  14.905  0.2935  1.9842 -1.1677
 5019TIP3   OH236547   0.764   1.285   9.909  0.2975  0.1740  0.0924
 5019TIP3    H136548   0.681   1.326   9.886  0.1731 -0.1160  0.0173
 5019TIP3    H236549   0.801   1.256   9.826  0.3886  0.1416  0.1435
 5020TIP3   OH236550   2.424   2.715  59.673 -0.3207  0.0879  0.0243
 5020TIP3    H136551   2.368   2.785  59.638  0.0003  0.3223 -0.0177
 5020TIP3    H236552   2.406   2.714  59.767 -0.6732 -0.0884 -0.0393
 5021TIP3   OH236553   0.517   2.749  52.217 -0.1119 -0.1097  0.2749
 5021TIP3    H136554   0.474   2.814  52.162  0.1747  0.1138  0.3157
 5021TIP3    H236555   0.446   2.711  52.269 -0.1381  1.0156  1.1256
 5022TIP3   OH236556   3.125   2.734  49.244 -0.0041 -0.8213 -0.0517
 5022TIP3    H136557   3.046   2.754  49.193  0.3855  0.8608 -0.0755
 5022TIP3    H236558   3.099   2.747  49.335  0.9248  2.9374 -0.1488
 5023TIP3   OH236559   2.858   3.077   6.804 -0.5730  0.2847  0.2988
 5023TIP3    H136560   2.895   3.123   6.730 -0.3636  1.0491  0.8717
 5023TIP3    H236561   2.789   3.135   6.837  0.9089  1.0782  2.1524
 5024TIP3   OH236562   1.999   1.503  61.454 -0.1939  0.0552 -0.4948
 5024TIP3    H136563   2.023   1.570  61.518 -3.9844 -0.6961  2.0056
 5024TIP3    H236564   2.058   1.430  61.473  0.6256  0.8668  0.1739
 5025TIP3   OH236565   2.046   2.199  10.706  0.5818  0.2666  0.1834
 5025TIP3    H136566   2.058   2.120  10.654 -0.9668 -0.0056  0.1690
 5025TIP3    H236567   2.086   2.269  10.655  0.2337 -0.2054 -0.7519
 5026TIP3   OH236568   0.607   0.302  19.922  0.4778 -0.5641 -0.6199
 5026TIP3    H136569   0.521   0.263  19.908  1.0306 -2.0292 -0.1780
 5026TIP3    H236570   0.625   0.351  19.842 -0.8506 -0.0364 -0.6191
 5027TIP3   OH236571   0.023   1.910   9.881  0.2200  0.6328  0.4659
 5027TIP3    H136572   0.047   1.987   9.932  0.7949  0.2185  0.8353
 5027TIP3    H236573   0.084   1.909   9.807  0.4205  0.3665  0.6311
 5028TIP3   OH236574   0.666   1.486  21.516  0.1200 -0.2830 -0.1702
 5028TIP3    H136575   0.620   1.411  21.554 -1.3339  0.2365 -0.8740
 5028TIP3    H236576   0.722   1.517  21.587  0.5225 -1.8310  0.2325
 5029TIP3   OH236577   3.213   2.566  64.813  0.4486  0.0577 -0.1573
 5029TIP3    H136578   3.278   2.632  64.789  0.8895 -0.6875 -1.0404
 5029TIP3    H236579   3.248   2.484  64.779 -1.4823 -0.1921 -1.7301
 5030TIP3   OH236580   2.440   0.669  61.141 -0.7155 -0.3102  0.0109
 5030TIP3    H136581   2.413   0.697  61.053  0.0195 -0.1553 -0.1733
 5030TIP3    H236582   2.364   0.621  61.175 -0.8373 -0.7868 -0.8995
 5031TIP3   OH236583   0.649   2.986  42.089 -0.7473 -0.6710 -0.0112
 5031TIP3    H136584   0.714   3.024  42.148 -1.4933 -1.5596  1.4430
 5031TIP3    H236585   0.701   2.933  42.027  0.1727  1.4853 -1.2066
 5032TIP3   OH236586   3.078   2.009   7.487  0.0436 -0.3040  0.0165
 5032TIP3    H136587   3.099   1.977   7.399 -0.8550  2.1697 -1.1926
 5032TIP3    H236588   2.987   2.036   7.481  0.8203  2.8109  0.7164
 5033TIP3   OH236589   1.086   3.244  63.288 -0.1474  0.3510 -0.0779
 5033TIP3    H136590   1.018   3.227  63.222  1.7308 -0.1614 -2.0035
 5033TIP3    H236591   1.091   3.340  63.293  0.8980  0.4617 -2.1267
 5034TIP3   OH236592   3.357   0.271  20.768 -0.3025 -0.5791 -0.5740
 5034TIP3    H136593   3.294   0.322  20.819  0.4832  0.4369 -0.5946
 5034TIP3    H236594   3.398   0.212  20.831 -0.8391 -0.8256 -0.4510
 5035TIP3   OH236595   0.788   0.272  59.211  0.5338  0.8413  0.1860
 5035TIP3    H136596   0.866   0.325  59.196  0.1558  1.6254  0.9465
 5035TIP3    H236597   0.812   0.216  59.286 -0.3756  2.6869  1.9483
 5036TIP3   OH236598   1.945   3.236  17.124  0.1109 -0.2933 -0.7232
 5036TIP3    H136599   2.028   3.193  17.146  0.1617 -0.4115 -1.1419
 5036TIP3    H236600   1.966   3.293  17.050 -0.1150 -0.0852 -0.6290
 5037TIP3   OH236601   2.781   1.557  61.130 -0.0411  0.4183 -0.2634
 5037TIP3    H136602   2.724   1.490  61.168 -1.2425  0.7598 -1.4149
 5037TIP3    H236603   2.823   1.598  61.206  0.6409 -1.5223  0.4833
 5038TIP3   OH236604   1.781   1.203  55.145 -0.3830  0.2393 -0.0394
 5038TIP3    H136605   1.773   1.295  55.170  0.0451  0.8199 -1.8509
 5038TIP3    H236606   1.875   1.186  55.144 -0.4928 -0.5640  1.3491
 5039TIP3   OH236607   0.266   0.968  16.129 -0.1501 -0.6447 -0.4694
 5039TIP3    H136608   0.193   0.906  16.122 -1.5225  0.8952 -0.3886
 5039TIP3    H236609   0.323   0.946  16.055 -1.3690 -1.0361 -1.3220
 5040TIP3   OH236610   2.465   3.377  21.648 -0.5486  0.2789 -0.3277
 5040TIP3    H136611   2.423   3.395  21.564  1.0203  0.2255 -1.1590
 5040TIP3    H236612   2.447   3.284  21.664 -0.7535  0.2583 -0.6700
 5041TIP3   OH236613   2.387   1.610  16.987 -0.0208  0.2162 -0.1714
 5041TIP3    H136614   2.473   1.650  16.999  0.2135 -0.4134  0.2598
 5041TIP3    H236615   2.404   1.516  16.982 -0.6981  0.0709  0.1147
 5042TIP3   OH236616   1.737   0.301  54.898  0.3882 -0.1655  0.3363
 5042TIP3    H136617   1.738   0.310  54.993 -1.8552  0.9921  0.3347
 5042TIP3    H236618   1.818   0.343  54.869  1.5998 -1.4404  1.7556
 5043TIP3   OH236619   1.922   2.162  11.341  0.2569  0.3750  0.1532
 5043TIP3    H136620   1.989   2.213  11.296  0.4037  0.0853  0.0384
 5043TIP3    H236621   1.843   2.215  11.336 -0.2814 -0.5104 -2.2480
 5044TIP3   OH236622   1.218   1.658  59.264 -0.1538 -0.0688 -0.3760
 5044TIP3    H136623   1.280   1.710  59.317 -0.4967  0.0914 -0.1265
 5044TIP3    H236624   1.159   1.723  59.227  0.0920 -0.1814 -0.9724
 5045TIP3   OH236625   3.271   3.051  48.762 -0.3436 -0.0085  0.2438
 5045TIP3    H136626   3.248   3.064  48.669 -0.9200 -0.0726  0.3714
 5045TIP3    H236627   3.366   3.049  48.763 -0.2749  1.4419 -0.1715
 5046TIP3   OH236628   1.336   3.231   1.747  0.5404  0.3385  0.1696
 5046TIP3    H136629   1.247   3.205   1.771 -0.0171 -0.4039 -2.3223
 5046TIP3    H236630   1.393   3.167   1.790 -0.3392 -0.7096 -0.1806
 5047TIP3   OH236631   3.113   2.264  14.221  0.2146  0.0707  0.1423
 5047TIP3    H136632   3.162   2.317  14.284 -0.1136 -0.8360  1.1954
 5047TIP3    H236633   3.029   2.247  14.264 -0.5187  0.4779 -1.0788
 5048TIP3   OH236634   2.337   0.104  43.379 -0.1988  0.6068 -0.0623
 5048TIP3    H136635   2.319   0.088  43.472 -1.9183 -1.1571 -0.6273
 5048TIP3    H236636   2.259   0.149  43.347  0.2963  1.0299 -0.6968
 5049TIP3   OH236637   3.227   0.036   0.949 -0.0479 -0.6112 -0.2196
 5049TIP3    H136638   3.291   0.028   0.878  3.1888 -1.4942  2.5288
 5049TIP3    H236639   3.183   0.119   0.933 -0.4143 -1.3689 -3.8816
 5050TIP3   OH236640   0.036   1.155  13.162  0.0279  0.5189 -0.2398
 5050TIP3    H136641   0.104   1.171  13.097  0.6474 -0.3615  0.1704
 5050TIP3    H236642   0.077   1.097  13.226 -1.7025 -1.7238 -1.0213
 5051TIP3   OH236643   2.944   0.515   0.359 -0.7425  0.2220  0.4751
 5051TIP3    H136644   3.038   0.521   0.341 -0.8647 -1.0858 -0.7326
 5051TIP3    H236645   2.929   0.424   0.383 -1.3629  0.8977  3.0529
 5052TIP3   OH236646   3.245   1.660  19.494 -0.5546  0.2433 -0.3342
 5052TIP3    H136647   3.251   1.713  19.574  2.8398 -2.0584  1.1393
 5052TIP3    H236648   3.199   1.581  19.522  2.5545 -1.5521  0.1160
 5053TIP3   OH236649   0.243   0.485  52.101 -0.2566  0.7176  0.1674
 5053TIP3    H136650   0.315   0.536  52.064 -0.0344  0.5848  0.4110
 5053TIP3    H236651   0.254   0.493  52.196 -1.7136  2.3239  0.2480
 5054TIP3   OH236652   3.208   1.508  57.452 -0.0871  0.0617 -0.5386
 5054TIP3    H136653   3.263   1.441  57.494 -0.2993 -0.0760 -0.4806
 5054TIP3    H236654   3.242   1.513  57.362  0.3136  0.3004 -0.3736
 5055TIP3   OH236655   2.867   3.129  44.308  0.6175  0.3840 -0.0644
 5055TIP3    H136656   2.807   3.201  44.328  0.5535  0.0005  1.2072
 5055TIP3    H236657   2.917   3.116  44.388  0.0545 -1.5302  0.0515
 5056TIP3   OH236658   0.521   1.885  11.532 -0.6565 -0.1325 -0.0180
 5056TIP3    H136659   0.426   1.874  11.538 -1.1298  1.9801 -2.0491
 5056TIP3    H236660   0.548   1.820  11.466 -1.3658  1.6788 -2.2227
 5057TIP3   OH236661   0.194   0.181  17.756  0.3797 -0.0887 -0.9594
 5057TIP3    H136662   0.285   0.171  17.783  0.2330 -0.8262 -0.6992
 5057TIP3    H236663   0.164   0.261  17.800  1.2266  0.8124 -1.9836
 5058TIP3   OH236664   2.856   1.377  66.453 -0.0435 -0.2733  0.3132
 5058TIP3    H136665   2.773   1.408  66.417  0.9377  0.9593 -0.9699
 5058TIP3    H236666   2.832   1.340  66.539 -1.8792  0.1579  0.0318
 5059TIP3   OH236667   2.815   0.084  54.044 -0.6404  0.1584 -0.0375
 5059TIP3    H136668   2.796   0.176  54.060  0.2463  0.5467 -1.0783
 5059TIP3    H236669   2.826   0.078  53.950  2.8336 -0.2641  0.2748
 5060TIP3   OH236670   0.440   3.272  63.207 -0.2388  0.3290 -0.2032
 5060TIP3    H136671   0.502   3.341  63.181  0.3800  0.0355  0.4657
 5060TIP3    H236672   0.479   3.191  63.173 -0.6884  0.2440 -0.5174
 5061TIP3   OH236673   2.644   0.066   6.193 -0.3220 -0.0574  0.0018
 5061TIP3    H136674   2.554   0.073   6.163 -0.3433 -1.1212 -0.2112
 5061TIP3    H236675   2.696   0.063   6.113 -0.2211 -0.9501  0.0941
 5062TIP3   OH236676   2.148   3.346  63.317  0.0723 -0.1470  0.2302
 5062TIP3    H136677   2.076   3.314  63.264 -0.4794  1.7340 -0.2142
 5062TIP3    H236678   2.106   3.382  63.395  0.7198 -0.9935  0.9962
 5063TIP3   OH236679   2.605   0.565  44.535  0.5394 -0.5512  0.1340
 5063TIP3    H136680   2.519   0.587  44.570  0.9329  0.8804  0.2640
 5063TIP3    H236681   2.636   0.495  44.593  1.1239  1.6623  2.7418
 5064TIP3   OH236682   0.727   1.540  54.289  0.0880  0.3260 -0.3327
 5064TIP3    H136683   0.755   1.631  54.289  0.8180  0.1131 -0.6989
 5064TIP3    H236684   0.809   1.490  54.291 -0.2535 -0.3528  2.5280
 5065TIP3   OH236685   0.490   1.550  42.754  0.9002  0.1118  0.6019
 5065TIP3    H136686   0.490   1.477  42.693 -0.6144  0.2420  0.4075
 5065TIP3    H236687   0.581   1.579  42.757  1.0262  0.0646 -1.5543
 5066TIP3   OH236688   0.885   3.427  19.582  0.4049  0.3918 -0.1226
 5066TIP3    H136689   0.951   3.368  19.617  0.4006  1.1343  1.1946
 5066TIP3    H236690   0.813   3.423  19.645 -0.2344  0.6450 -0.8179
 5067TIP3   OH236691   2.537   2.889   0.183 -0.4672  0.0693  0.3404
 5067TIP3    H136692   2.515   2.901   0.090  0.3587 -1.4122 -0.0888
 5067TIP3    H236693   2.622   2.846   0.181 -0.0397  0.7943  1.8289
 5068TIP3   OH236694   2.337   3.251  13.155 -0.4668  0.2253 -0.2329
 5068TIP3    H136695   2.298   3.226  13.071 -3.5347  2.6862  0.2472
 5068TIP3    H236696   2.399   3.320  13.133 -2.1649  1.7615 -0.5294
 5069TIP3   OH236697   0.120   1.745   5.550 -0.6330 -0.2048  0.4771
 5069TIP3    H136698   0.178   1.725   5.624 -0.2452 -1.2392 -0.0898
 5069TIP3    H236699   0.033   1.723   5.580 -0.8300  1.6835  1.4612
 5070TIP3   OH236700   2.649   0.234  48.932 -0.1568  0.5671  0.0807
 5070TIP3    H136701   2.615   0.147  48.911 -0.0158  0.7621 -1.0328
 5070TIP3    H236702   2.739   0.218  48.963 -0.3507  0.2724  0.5000
 5071TIP3   OH236703   3.361   1.514  51.113  0.3237 -0.5634 -0.0066
 5071TIP3    H136704   3.402   1.479  51.193 -0.1751  0.8154  0.9020
 5071TIP3    H236705   3.353   1.608  51.130  0.3777 -0.2064 -1.7837
 5072TIP3   OH236706   1.500   1.739  49.264  0.0431 -0.8664 -0.3526
 5072TIP3    H136707   1.589   1.768  49.286  0.5357 -1.6532 -1.2214
 5072TIP3    H236708   1.466   1.807  49.206 -0.1854 -0.2233  0.5243
 5073TIP3   OH236709   1.376   2.628  53.642 -0.2718 -0.1874  0.1964
 5073TIP3    H136710   1.380   2.723  53.632  0.5392 -0.3631 -1.7314
 5073TIP3    H236711   1.462   2.597  53.612 -0.6509 -1.5527  0.4347
 5074TIP3   OH236712   1.406   2.647   5.589 -0.4464  0.1168  0.4629
 5074TIP3    H136713   1.355   2.585   5.538 -0.1246 -0.2452  0.5787
 5074TIP3    H236714   1.390   2.732   5.547 -1.6038  0.1060  0.8578
 5075TIP3   OH236715   1.184   0.297  62.943  0.5547 -0.1640 -0.3958
 5075TIP3    H136716   1.163   0.296  63.036  0.4070  0.0098 -0.4267
 5075TIP3    H236717   1.278   0.316  62.939  0.3001  1.1927 -0.3247
 5076TIP3   OH236718   1.583   1.631  15.466  0.3824 -0.3738 -0.3654
 5076TIP3    H136719   1.491   1.605  15.461  0.2805  0.2047 -2.2268
 5076TIP3    H236720   1.588   1.687  15.544 -1.5424  2.0288 -1.8153
 5077TIP3   OH236721   0.434   1.925  52.506 -0.1577  0.4268  0.0546
 5077TIP3    H136722   0.458   2.011  52.471 -2.0721  0.7261 -0.6481
 5077TIP3    H236723   0.518   1.885  52.530  0.8811  1.9767 -0.7788
 5078TIP3   OH236724   3.094   1.442  61.150 -0.3053 -0.1487  0.6635
 5078TIP3    H136725   3.127   1.472  61.234 -1.6415 -0.6849  1.4041
 5078TIP3    H236726   3.031   1.373  61.171 -0.9162 -0.0730 -0.7482
 5079TIP3   OH236727   1.143   2.950  43.835  0.2519  0.2258  0.0454
 5079TIP3    H136728   1.235   2.975  43.825  0.7804 -2.2338 -2.4782
 5079TIP3    H236729   1.140   2.899  43.915  1.5366 -1.2410 -0.7929
 5080TIP3   OH236730   1.698   0.714   3.269  0.0580  0.0527 -0.7921
 5080TIP3    H136731   1.613   0.691   3.308 -0.3899  0.8088 -1.3084
 5080TIP3    H236732   1.677   0.737   3.179  0.6903  1.1307 -0.6697
 5081TIP3   OH236733   0.481   0.177  19.064 -0.0101 -0.1723  0.1863
 5081TIP3    H136734   0.484   0.093  19.108 -2.5902  0.3868  1.6081
 5081TIP3    H236735   0.531   0.236  19.120  1.1390 -0.5556 -0.4092
 5082TIP3   OH236736   2.471   0.559   0.467 -0.4892  0.3640 -0.3233
 5082TIP3    H136737   2.558   0.566   0.506  0.1820 -0.6016 -1.5856
 5082TIP3    H236738   2.486   0.559   0.373 -1.7344 -1.1328 -0.5668
 5083TIP3   OH236739   3.383   2.044   8.905 -0.6261  0.1856  0.1235
 5083TIP3    H136740   3.298   2.005   8.884 -0.9779  0.1147  1.5900
 5083TIP3    H236741   3.445   1.971   8.902 -1.2465 -0.5474  2.6397
 5084TIP3   OH236742   2.596   1.660  64.409  0.2702 -0.1218  0.3202
 5084TIP3    H136743   2.544   1.684  64.333  3.1878  0.2977 -1.7313
 5084TIP3    H236744   2.608   1.565  64.402 -0.1644 -0.2179  0.7868
 5085TIP3   OH236745   0.769   2.576  45.592  0.1994 -0.4531 -0.3577
 5085TIP3    H136746   0.726   2.660  45.600 -2.3913 -1.7362  0.2390
 5085TIP3    H236747   0.806   2.575  45.504  0.7508  1.4579 -0.1776
 5086TIP3   OH236748   0.049   1.704   7.309  0.0610 -0.3563  0.3090
 5086TIP3    H136749   0.026   1.650   7.234 -1.6879  0.4167  0.2220
 5086TIP3    H236750   0.031   1.794   7.281 -0.6185 -0.0478  1.6045
 5087TIP3   OH236751   3.274   0.033  21.044 -0.2821 -0.6428  0.8065
 5087TIP3    H136752   3.301   0.125  21.045 -0.3207 -0.6289  0.6480
 5087TIP3    H236753   3.355  -0.016  21.035 -0.2017 -0.6522  1.5437
 5088TIP3   OH236754   2.777   1.119   0.129 -0.1228  0.4281  0.0640
 5088TIP3    H136755   2.839   1.045   0.132 -0.4203  0.1289 -0.8331
 5088TIP3    H236756   2.693   1.080   0.151 -0.4159  0.3292 -1.1637
 5089TIP3   OH236757   1.406   3.142  50.877 -0.2541  0.1102  0.1367
 5089TIP3    H136758   1.441   3.195  50.948 -2.1118  0.7877  0.6123
 5089TIP3    H236759   1.382   3.059  50.919 -1.8065  0.6860  0.4635
 5090TIP3   OH236760   3.016   2.355  48.933 -0.2505 -0.2145 -0.0380
 5090TIP3    H136761   3.092   2.371  48.989 -2.2959  2.0577  2.3277
 5090TIP3    H236762   2.963   2.291  48.982  0.0374 -1.8084 -1.6735
 5091TIP3   OH236763   0.620   0.430   8.925 -0.3002  0.1868  0.1670
 5091TIP3    H136764   0.629   0.395   8.836 -0.5417  1.4182 -0.3668
 5091TIP3    H236765   0.629   0.525   8.914  1.1339  0.2633  1.6658
 5092TIP3   OH236766   0.321   2.692  55.908  0.4941 -0.5384 -0.0866
 5092TIP3    H136767   0.371   2.769  55.881 -2.5456  1.9241  0.7142
 5092TIP3    H236768   0.230   2.719  55.900 -0.7172 -3.7861  1.2034
 5093TIP3   OH236769   2.633   3.166  20.047  0.7655 -0.2337 -0.4150
 5093TIP3    H136770   2.636   3.081  20.091  0.6329  0.6747  1.4484
 5093TIP3    H236771   2.540   3.187  20.043  0.8871  1.1281  1.9287
 5094TIP3   OH236772   0.105   1.665   9.238 -0.1440  0.3572 -1.1551
 5094TIP3    H136773   0.101   1.743   9.183  2.8819  0.3604 -1.5313
 5094TIP3    H236774   0.049   1.601   9.193  0.2526  1.1565 -2.8699
 5095TIP3   OH236775   0.234   2.087  63.265 -0.3947 -0.1658  0.3194
 5095TIP3    H136776   0.238   2.106  63.359  0.9973 -0.4964  0.3404
 5095TIP3    H236777   0.229   2.173  63.223 -0.7707 -0.0107  0.6661
 5096TIP3   OH236778   1.864   1.582  18.982  0.1406  0.5805  0.5108
 5096TIP3    H136779   1.865   1.557  18.890  2.0403 -1.3566  0.9583
 5096TIP3    H236780   1.947   1.629  18.995 -0.2082  1.0273  1.1939
 5097TIP3   OH236781   3.088   2.704  57.065 -0.0062  0.1324 -0.1886
 5097TIP3    H136782   3.026   2.713  57.137 -0.2001 -1.4228 -0.1287
 5097TIP3    H236783   3.116   2.794  57.046 -1.8664  0.8102  0.1198
 5098TIP3   OH236784   1.284   3.388  64.522 -0.3367  0.2499  0.7729
 5098TIP3    H136785   1.374   3.408  64.496 -0.2969 -0.9369 -0.0909
 5098TIP3    H236786   1.230   3.440  64.461 -0.2339 -1.9735 -1.3603
 5099TIP3   OH236787   0.997   0.857  51.122  0.0212  0.4136 -0.3737
 5099TIP3    H136788   0.910   0.888  51.097 -1.1000 -1.7559  0.4690
 5099TIP3    H236789   1.023   0.798  51.051 -0.1503 -0.5034  0.2940
 5100TIP3   OH236790   1.245   1.902  39.370  0.3083  0.1197  0.5047
 5100TIP3    H136791   1.213   1.921  39.282 -1.8593  0.4103  1.2937
 5100TIP3    H236792   1.326   1.853  39.356 -0.4507 -0.6402 -1.6715
 5101TIP3   OH236793   2.358   3.188  42.386 -0.3397  0.3447  0.4826
 5101TIP3    H136794   2.359   3.270  42.336 -0.3642 -0.5020 -0.9808
 5101TIP3    H236795   2.423   3.132  42.342  1.9581  0.5623  3.2912
 5102TIP3   OH236796   3.163   0.497  67.322 -0.1049 -0.4834  0.6499
 5102TIP3    H136797   3.098   0.435  67.353  1.2415 -1.7222  1.0771
 5102TIP3    H236798   3.149   0.501  67.227 -0.8228 -0.6942  0.7414
 5103TIP3   OH236799   0.011   0.745   5.053  0.3044 -0.1252 -0.4465
 5103TIP3    H136800   0.006   0.836   5.024  0.6700  0.9575  2.5546
 5103TIP3    H236801  -0.071   0.731   5.101  1.3569 -0.4701  1.3344
 5104TIP3   OH236802   1.830   1.305  52.738 -0.5075 -0.2982 -0.0561
 5104TIP3    H136803   1.898   1.369  52.758 -0.0223 -0.7879 -0.1264
 5104TIP3    H236804   1.837   1.291  52.644 -0.2950 -0.8142  0.0379
 5105TIP3   OH236805   0.410   1.921  46.843  0.0260 -0.2548 -0.7013
 5105TIP3    H136806   0.373   1.993  46.895 -1.1628 -0.5036 -1.1864
 5105TIP3    H236807   0.442   1.963  46.763  1.3379  0.0414 -0.0515
 5106TIP3   OH236808   1.988   2.374  16.609 -0.5477 -0.9099 -0.1896
 5106TIP3    H136809   2.038   2.423  16.674  0.3182 -0.0793 -1.4405
 5106TIP3    H236810   1.897   2.395  16.628 -0.2246  0.7678 -0.3486
 5107TIP3   OH236811   2.638   1.415  65.642 -0.2116  0.1822  0.3316
 5107TIP3    H136812   2.590   1.436  65.722  0.2923  0.2936  0.6059
 5107TIP3    H236813   2.573   1.372  65.586 -0.4363 -0.3976  1.0130
 5108TIP3   OH236814   2.065   1.107  43.063  0.3055  0.1527  0.1216
 5108TIP3    H136815   1.973   1.116  43.038  0.5444 -0.9825 -1.3176
 5108TIP3    H236816   2.113   1.125  42.982  1.4186  1.7063  1.0875
 5109TIP3   OH236817   2.308   0.017  13.416  0.1742 -0.3590 -0.4413
 5109TIP3    H136818   2.366   0.040  13.490 -1.1249 -0.6216  0.6930
 5109TIP3    H236819   2.367  -0.022  13.351  1.4280  0.3194  0.2434
 5110TIP3   OH236820   0.115   2.076  14.649 -0.1496 -0.5960  0.3064
 5110TIP3    H136821   0.052   2.040  14.710  1.5451 -1.8929  1.3688
 5110TIP3    H236822   0.064   2.138  14.596 -1.4718  1.6108  3.7973
 5111TIP3   OH236823   2.224   2.702  46.970  0.3691  0.2445 -0.1307
 5111TIP3    H136824   2.303   2.727  46.921  0.7201 -0.5224  0.0176
 5111TIP3    H236825   2.239   2.735  47.058  1.2652 -1.2619  0.3205
 5112TIP3   OH236826   1.729   0.861  14.220  0.0565  0.3387  0.2731
 5112TIP3    H136827   1.755   0.879  14.130 -1.2669  1.4379  0.0791
 5112TIP3    H236828   1.718   0.948  14.260 -2.1452 -0.0405  0.6425
 5113TIP3   OH236829   1.225   2.878   0.716 -0.2245 -0.0397 -0.4929
 5113TIP3    H136830   1.166   2.822   0.665 -1.5077  1.4556 -0.7636
 5113TIP3    H236831   1.240   2.830   0.797 -1.4038 -0.7304 -0.6536
 5114TIP3   OH236832   0.062   1.163  59.339 -0.0049  0.3960 -0.3725
 5114TIP3    H136833   0.007   1.169  59.261  1.0170  1.1668 -1.0580
 5114TIP3    H236834   0.149   1.189  59.310  0.1828  1.7634  1.2346
 5115TIP3   OH236835   3.286   1.074  10.078 -0.6948  0.3519  0.3074
 5115TIP3    H136836   3.380   1.093  10.076 -1.2881  4.4119  1.2366
 5115TIP3    H236837   3.278   0.999  10.137  1.9006  0.4743  0.9328
 5116TIP3   OH236838   1.652   0.972   1.924  0.0470 -0.3007 -0.5324
 5116TIP3    H136839   1.740   0.959   1.959  0.2360 -0.1211 -0.9266
 5116TIP3    H236840   1.649   0.915   1.847 -0.3631 -0.6980 -0.2219
 5117TIP3   OH236841   0.722   0.075  46.532 -0.2792  0.0782 -0.8559
 5117TIP3    H136842   0.760   0.121  46.607  0.7746  1.6442 -2.2570
 5117TIP3    H236843   0.645   0.127  46.509 -1.0060 -0.8007 -0.4521
 5118TIP3   OH236844   0.190   2.877   0.600 -0.1380  0.4012 -0.4269
 5118TIP3    H136845   0.136   2.800   0.582 -0.3319  0.5965 -0.6808
 5118TIP3    H236846   0.235   2.895   0.517  1.6912 -0.8189  0.2177
 5119TIP3   OH236847   1.123   1.835  13.850  0.6220  0.0771 -0.0527
 5119TIP3    H136848   1.169   1.805  13.772  1.3683  1.2854 -0.1009
 5119TIP3    H236849   1.033   1.849  13.820 -0.0038 -2.8812  0.1932
 5120TIP3   OH236850   2.790   0.130  29.626 -0.3319  0.0128  0.0303
 5120TIP3    H136851   2.715   0.173  29.668  0.0957  2.1596 -1.2777
 5120TIP3    H236852   2.785   0.040  29.656 -1.7401  0.7603  2.3229
 5121TIP3   OH236853   1.174   2.463  54.874 -0.2414 -0.3806  0.0811
 5121TIP3    H136854   1.238   2.419  54.817 -1.7682  0.0911 -2.1448
 5121TIP3    H236855   1.149   2.397  54.938  1.6023 -0.9230  0.3035
 5122TIP3   OH236856   1.634   0.962  58.495 -0.6620  0.2085  0.3114
 5122TIP3    H136857   1.726   0.983  58.508 -0.4187  0.6515 -1.8787
 5122TIP3    H236858   1.633   0.877  58.451 -1.3514 -0.1533  0.9850
 5123TIP3   OH236859   1.408   2.321  65.476 -0.2650  0.0620 -0.0463
 5123TIP3    H136860   1.458   2.375  65.537 -0.0341 -0.3885  0.1657
 5123TIP3    H236861   1.475   2.275  65.426 -0.4615  0.1193 -0.3643
 5124TIP3   OH236862   1.225   0.496  19.734  0.4129 -0.1729 -0.4866
 5124TIP3    H136863   1.291   0.428  19.744  0.3010 -0.2658 -0.3641
 5124TIP3    H236864   1.254   0.549  19.660  0.0923 -0.8250 -1.0835
 5125TIP3   OH236865   0.886   2.619  44.406 -0.6282 -0.3631  0.0240
 5125TIP3    H136866   0.833   2.608  44.327 -0.2046  0.5163 -0.3898
 5125TIP3    H236867   0.845   2.691  44.453  0.1193  0.2472 -0.2410
 5126TIP3   OH236868   3.026   2.729  20.256 -0.1792 -0.1013 -0.0532
 5126TIP3    H136869   3.027   2.794  20.326  0.6611  1.5696 -1.5189
 5126TIP3    H236870   3.006   2.779  20.177 -1.1640 -1.9257 -1.0308
 5127TIP3   OH236871   0.233   2.380  66.922  0.3892 -0.2179  0.1792
 5127TIP3    H136872   0.233   2.340  67.009  1.3868 -1.5501 -0.4006
 5127TIP3    H236873   0.321   2.363  66.888 -0.2179 -0.3713 -1.3732
 5128TIP3   OH236874   0.635   2.809   6.559  0.7027  0.0643  0.2548
 5128TIP3    H136875   0.625   2.715   6.573  0.0654  0.1867  0.6882
 5128TIP3    H236876   0.629   2.821   6.464  2.4487 -0.5049  0.0501
 5129TIP3   OH236877   2.687   0.889  57.668 -0.0219  0.4507 -0.1052
 5129TIP3    H136878   2.778   0.871  57.692 -0.1280  1.6929  1.4149
 5129TIP3    H236879   2.693   0.958  57.603  0.1268  0.8924  0.3658
 5130TIP3   OH236880   2.200   0.310  53.205  0.0204 -0.1081 -0.4372
 5130TIP3    H136881   2.130   0.364  53.244  1.1139  0.7719  0.3786
 5130TIP3    H236882   2.254   0.373  53.157  0.0814 -0.8264 -1.3135
 5131TIP3   OH236883   2.799   1.000  54.994  0.6461 -0.4269  0.4640
 5131TIP3    H136884   2.842   0.926  54.951  1.7473  0.7109 -0.4569
 5131TIP3    H236885   2.862   1.031  55.059  0.4266  0.0424  0.4598
 5132TIP3   OH236886   1.142   1.793  15.415  0.3643 -0.4660 -0.2160
 5132TIP3    H136887   1.228   1.781  15.373  0.1271 -2.1251 -0.2807
 5132TIP3    H236888   1.144   1.735  15.490 -0.3995  0.1507  0.2939
 5133TIP3   OH236889   1.460   3.064  56.089 -0.1742 -0.1771 -0.1382
 5133TIP3    H136890   1.531   3.116  56.125  1.4257 -2.1462 -0.2649
 5133TIP3    H236891   1.413   3.124  56.031  1.6320  1.0729 -0.3869
 5134TIP3   OH236892   0.496   2.480  45.077 -0.0512  0.4155  0.6367
 5134TIP3    H136893   0.424   2.424  45.047 -0.0823  0.2991  0.9223
 5134TIP3    H236894   0.472   2.502  45.167  0.1022  0.6559  0.6165
 5135TIP3   OH236895   3.124   1.355   4.616 -0.2391 -0.2116 -0.4219
 5135TIP3    H136896   3.179   1.278   4.628  3.0960  1.8300 -1.2882
 5135TIP3    H236897   3.073   1.361   4.697 -1.0309 -3.4951 -0.5435
 5136TIP3   OH236898   2.073   0.506   5.387  0.1100 -0.2047  0.0018
 5136TIP3    H136899   1.982   0.509   5.416  0.0832  0.9891 -0.1446
 5136TIP3    H236900   2.114   0.582   5.428  1.4290 -1.5378  1.2803
 5137TIP3   OH236901   3.184   1.524  61.397 -0.0791  0.4486  0.3363
 5137TIP3    H136902   3.226   1.609  61.410 -0.8406  0.8691  0.0920
 5137TIP3    H236903   3.133   1.511  61.477 -1.3329  1.0372 -0.3358
 5138TIP3   OH236904   2.359   0.437  64.762 -0.0692  0.7007  0.4231
 5138TIP3    H136905   2.321   0.395  64.839 -2.3948  0.5835 -0.7113
 5138TIP3    H236906   2.313   0.520  64.754 -1.0137  0.0312 -1.6954
 5139TIP3   OH236907   2.878   1.944  59.873 -0.2576  0.0730 -0.0039
 5139TIP3    H136908   2.803   2.003  59.865  1.1670  2.0512  0.3741
 5139TIP3    H236909   2.954   2.000  59.854  1.3345 -1.1121  2.4213
 5140TIP3   OH236910   0.557   3.096  61.927  0.1970 -0.4494  0.2415
 5140TIP3    H136911   0.488   3.127  61.869  2.2335  1.3235 -1.4229
 5140TIP3    H236912   0.601   3.027  61.878  1.5418  0.6275 -0.1133
 5141TIP3   OH236913   1.524   1.350  50.376 -0.0884  0.6178 -0.1565
 5141TIP3    H136914   1.593   1.286  50.392 -0.5029  0.5750  1.7333
 5141TIP3    H236915   1.443   1.302  50.392 -0.4018  1.5711  1.3157
 5142TIP3   OH236916   1.298   0.262  49.124 -0.1200 -0.6019  0.0624
 5142TIP3    H136917   1.365   0.219  49.071 -0.8223 -1.8497  0.1390
 5142TIP3    H236918   1.335   0.348  49.146  0.6410 -0.5017 -1.5047
 5143TIP3   OH236919   1.372   0.995  16.702 -0.6731  0.3920  0.8818
 5143TIP3    H136920   1.351   0.930  16.634 -0.1776  0.3596  0.7539
 5143TIP3    H236921   1.300   1.058  16.697 -1.5626 -0.5514  1.5364
 5144TIP3   OH236922   1.615   2.756  37.726  0.0428  0.4239  0.1724
 5144TIP3    H136923   1.535   2.765  37.673  0.1919  0.1681 -0.1008
 5144TIP3    H236924   1.683   2.735  37.662  0.5047  1.5237  0.2828
 5145TIP3   OH236925   3.149   3.318  57.068 -0.1492  0.0494 -0.3344
 5145TIP3    H136926   3.081   3.339  57.133  0.4301  0.9257  0.0255
 5145TIP3    H236927   3.134   3.381  56.997 -0.8202 -0.9520 -1.0929
 5146TIP3   OH236928   1.623   3.318  16.516  0.3126  0.1703  0.0177
 5146TIP3    H136929   1.712   3.352  16.523  0.2203  1.4308 -3.1905
 5146TIP3    H236930   1.570   3.396  16.495 -0.8244 -1.0785 -2.1087
 5147TIP3   OH236931   2.326   0.704  67.071  0.0599 -0.0455 -0.3535
 5147TIP3    H136932   2.240   0.745  67.071  0.1075  0.0659  0.5726
 5147TIP3    H236933   2.313   0.622  67.024 -0.3786  0.3111 -0.8785
 5148TIP3   OH236934   0.019   2.654  11.622 -0.2639  0.5264 -0.4963
 5148TIP3    H136935   0.098   2.604  11.644  0.4346  1.7611 -0.1025
 5148TIP3    H236936   0.026   2.671  11.529 -0.2126  0.3973 -0.5172
 5149TIP3   OH236937   1.021   1.256  37.610  0.0167 -0.0233  0.4665
 5149TIP3    H136938   1.036   1.278  37.702  0.2148 -1.4904  0.8098
 5149TIP3    H236939   0.949   1.192  37.612  0.1778 -0.2473 -0.3678
 5150TIP3   OH236940   0.946   2.665  35.376 -0.4180 -0.1005 -0.2120
 5150TIP3    H136941   0.931   2.599  35.308  1.3105  0.1339 -0.8988
 5150TIP3    H236942   0.881   2.647  35.443 -0.6088 -1.8932 -0.8301
 5151TIP3   OH236943   2.560   3.391  14.243 -0.3375 -0.3527  0.0116
 5151TIP3    H136944   2.477   3.405  14.198 -0.4396  0.6433  0.4749
 5151TIP3    H236945   2.583   3.300  14.223 -3.0778 -1.7655  2.3234
 5152TIP3   OH236946   2.481   1.469  42.272 -0.0584  0.2025 -0.0977
 5152TIP3    H136947   2.507   1.461  42.364  0.0609  1.6417  0.0090
 5152TIP3    H236948   2.564   1.483  42.226  0.1113 -2.2179 -0.7060
 5153TIP3   OH236949   0.391   1.099  53.063  0.5919 -0.0048 -0.2009
 5153TIP3    H136950   0.479   1.111  53.027 -0.2219  1.4901 -1.8334
 5153TIP3    H236951   0.358   1.020  53.022  0.4790  0.5114 -1.1367
 5154TIP3   OH236952   1.660   2.665  13.494 -0.4253  0.0425 -0.3342
 5154TIP3    H136953   1.715   2.735  13.528  0.0294 -0.4369 -0.0698
 5154TIP3    H236954   1.572   2.687  13.524 -0.3334  0.6546 -0.5074
 5155TIP3   OH236955   2.563   0.604  19.435 -0.3341 -0.0530 -0.1540
 5155TIP3    H136956   2.506   0.624  19.360  0.0813 -0.3879 -0.5669
 5155TIP3    H236957   2.596   0.516  19.417  0.3570  0.1582  0.0500
 5156TIP3   OH236958   0.675   1.588  17.545 -0.2053 -0.6447  0.7314
 5156TIP3    H136959   0.710   1.674  17.567 -1.4804 -0.5360  2.6013
 5156TIP3    H236960   0.752   1.531  17.536  0.5873  0.4143  0.7282
 5157TIP3   OH236961   1.233   2.009   6.811 -0.2451  0.3182  0.2645
 5157TIP3    H136962   1.229   2.025   6.905 -0.9130 -0.2697  0.3514
 5157TIP3    H236963   1.207   2.092   6.772 -0.8213  0.3170  0.6271
 5158TIP3   OH236964   1.053   3.448  49.025 -0.6810 -0.6241  0.1335
 5158TIP3    H136965   1.002   3.379  48.983 -1.7509 -0.7665  1.6244
 5158TIP3    H236966   0.991   3.493  49.082  0.2615  0.8694  0.0379
 5159TIP3   OH236967   2.134   1.810  22.745 -0.2900 -0.4067  0.2893
 5159TIP3    H136968   2.192   1.871  22.791 -1.1642  0.5772  0.1244
 5159TIP3    H236969   2.107   1.747  22.812 -0.0497 -0.1152  0.6623
 5160TIP3   OH236970   2.202   3.231   3.077 -0.3314 -0.5002  0.1354
 5160TIP3    H136971   2.164   3.318   3.078  0.8599  0.0472  1.3655
 5160TIP3    H236972   2.130   3.172   3.098 -1.2580  0.1104 -1.2271
 5161TIP3   OH236973   1.428   0.439  57.286 -0.3851  0.1698 -0.4417
 5161TIP3    H136974   1.486   0.479  57.350  0.1077 -1.2337  0.0111
 5161TIP3    H236975   1.447   0.485  57.204  1.7800 -0.6245 -0.4338
 5162TIP3   OH236976   1.529   2.132  14.893  0.0295  0.0699  0.5827
 5162TIP3    H136977   1.437   2.104  14.896 -0.9820  2.5287 -2.3130
 5162TIP3    H236978   1.530   2.211  14.947 -0.5186  2.0115 -2.0556
 5163TIP3   OH236979   1.311   1.172  48.224 -0.2918 -0.1044  0.0902
 5163TIP3    H136980   1.339   1.115  48.295  2.1336  0.2116 -0.5230
 5163TIP3    H236981   1.266   1.114  48.163  0.5845 -1.0475  0.3129
 5164TIP3   OH236982   2.567   2.739  48.099 -0.0097  0.0103 -0.4219
 5164TIP3    H136983   2.590   2.789  48.177 -0.1869 -1.2097  0.4529
 5164TIP3    H236984   2.525   2.660  48.133 -0.4753 -0.3557 -1.7787
 5165TIP3   OH236985   1.838   1.317   9.358 -0.1557  0.5110  0.1219
 5165TIP3    H136986   1.768   1.278   9.304  0.2335  0.9400 -0.7147
 5165TIP3    H236987   1.827   1.276   9.444 -2.0571  1.2943  0.3002
 5166TIP3   OH236988   3.167   0.306  12.477 -0.2262  0.4153 -0.1680
 5166TIP3    H136989   3.085   0.277  12.517 -0.2545 -0.0589 -0.5591
 5166TIP3    H236990   3.197   0.231  12.426  0.1981  0.7523 -0.4256
 5167TIP3   OH236991   0.472   2.602  34.523  0.7234 -0.5833  0.3154
 5167TIP3    H136992   0.458   2.696  34.510 -0.4112 -0.6781  0.7587
 5167TIP3    H236993   0.508   2.571  34.439 -0.4169 -0.0354 -0.4018
 5168TIP3   OH236994   1.015   3.084   4.338  0.0920 -0.3735 -0.2848
 5168TIP3    H136995   0.989   3.139   4.264  0.0550 -0.6094 -0.4463
 5168TIP3    H236996   1.089   3.033   4.306 -0.2633 -0.8643 -0.3300
 5169TIP3   OH236997   3.237   1.943  11.416  0.6024  0.2477 -0.1013
 5169TIP3    H136998   3.317   1.903  11.451  1.0196  0.9259 -0.2552
 5169TIP3    H236999   3.170   1.923  11.481  1.1086  0.4900  0.5087
 5170TIP3   OH237000   2.164   2.748  14.428  0.6235  0.0128  0.0537
 5170TIP3    H137001   2.199   2.828  14.467  0.9535 -0.3470  0.5145
 5170TIP3    H237002   2.179   2.681  14.495 -2.1728  0.0605  0.8723
 5171TIP3   OH237003   0.155   2.306  67.216 -0.0643 -0.4484 -0.0315
 5171TIP3    H137004   0.125   2.397  67.210  2.6642  0.6993  1.9432
 5171TIP3    H237005   0.074   2.255  67.226 -1.6741  1.7091 -1.0955
 5172TIP3   OH237006   2.063   3.016  21.188 -0.4987  0.1456  0.7994
 5172TIP3    H137007   2.076   3.107  21.214  2.2348  0.0592  0.0897
 5172TIP3    H237008   2.031   3.021  21.098 -3.0392  0.3489  1.6266
 5173TIP3   OH237009   2.488   3.396  49.243  0.0750 -0.4476 -0.5059
 5173TIP3    H137010   2.430   3.446  49.301  3.6116  1.7983  1.4533
 5173TIP3    H237011   2.443   3.313  49.231 -3.2034  0.8430  1.3275
 5174TIP3   OH237012   0.871   0.954  44.982 -0.1427  0.9953 -0.2804
 5174TIP3    H137013   0.784   0.920  45.005 -0.6160  0.6121 -2.4561
 5174TIP3    H237014   0.857   1.048  44.971  0.4462  1.4759  2.4172
 5175TIP3   OH237015   2.792   3.335  53.214  0.1490 -0.0428 -0.2802
 5175TIP3    H137016   2.743   3.270  53.265  1.0814 -0.4260  0.1317
 5175TIP3    H237017   2.748   3.335  53.129  1.4502 -2.9047 -1.0861
 5176TIP3   OH237018   2.586   3.361  15.568  0.3621  0.0102  0.1180
 5176TIP3    H137019   2.520   3.431  15.564 -0.3078 -0.6697 -1.6876
 5176TIP3    H237020   2.660   3.395  15.518 -0.1155 -0.6703 -1.1030
 5177TIP3   OH237021   1.889   0.042  10.032 -0.5399 -0.3805 -0.1695
 5177TIP3    H137022   1.839   0.106   9.983 -0.2622 -0.1586 -0.1669
 5177TIP3    H237023   1.833   0.019  10.107 -0.1001  0.8531  0.5574
 5178TIP3   OH237024   1.380   0.703  66.426 -0.5319  0.0261  0.2717
 5178TIP3    H137025   1.313   0.771  66.431 -0.0285  0.4935  0.7948
 5178TIP3    H237026   1.392   0.675  66.517  0.9890  0.9410  0.3737
 5179TIP3   OH237027   0.924   2.144  59.888 -0.5744  0.3595  0.4829
 5179TIP3    H137028   0.837   2.159  59.925 -0.6222 -1.6892  1.2797
 5179TIP3    H237029   0.958   2.067  59.934  1.2896  0.5484 -0.4685
 5180TIP3   OH237030   1.192   0.345  53.431  0.2759  0.2959  0.2102
 5180TIP3    H137031   1.159   0.300  53.353 -0.3302  1.9090 -0.5091
 5180TIP3    H237032   1.243   0.278  53.477 -1.1441 -1.3080 -0.4244
 5181TIP3   OH237033   1.305   2.127  67.123 -0.2580  0.0475  0.3879
 5181TIP3    H137034   1.270   2.169  67.201  1.2558 -0.1623  1.2104
 5181TIP3    H237035   1.329   2.039  67.151  1.0795  0.2348 -0.0677
 5182TIP3   OH237036   2.843   2.199  62.217 -0.4122 -0.2637  0.3517
 5182TIP3    H137037   2.919   2.198  62.159  1.3589  0.9745  2.5000
 5182TIP3    H237038   2.770   2.168  62.162  1.4037 -0.5188 -2.0725
 5183TIP3   OH237039   2.081   0.764  54.944  0.5948  0.4179  0.8392
 5183TIP3    H137040   2.085   0.678  54.986  0.5899  0.8942  1.8443
 5183TIP3    H237041   1.994   0.797  54.964  0.7150  0.7939  0.7495
 5184TIP3   OH237042   2.887   1.779  64.532  0.1188 -0.3523  0.6616
 5184TIP3    H137043   2.866   1.798  64.440  1.0456  0.1439  0.5498
 5184TIP3    H237044   2.813   1.814  64.581 -0.0269  0.0640  0.1592
 5185TIP3   OH237045   2.227   1.743  64.847 -0.2403 -0.0925  0.6085
 5185TIP3    H137046   2.322   1.752  64.858 -0.2595  0.8100  0.0909
 5185TIP3    H237047   2.197   1.830  64.821 -1.2056 -0.3901  0.6910
 5186TIP3   OH237048   2.823   1.662  63.429  0.0851 -0.1734  0.3236
 5186TIP3    H137049   2.761   1.674  63.500  1.1293 -1.5149  1.5112
 5186TIP3    H237050   2.768   1.640  63.353 -0.9973  0.6444  0.8481
 5187TIP3   OH237051   0.464   1.658  52.797  0.0859  0.1256 -0.0161
 5187TIP3    H137052   0.520   1.735  52.803  0.1507  0.0676  0.1158
 5187TIP3    H237053   0.451   1.646  52.703  2.8209 -1.6805 -0.2773
 5188TIP3   OH237054   2.250   0.733  62.511  0.3306 -0.2018 -0.0124
 5188TIP3    H137055   2.159   0.755  62.533  0.3138 -0.5918  0.3279
 5188TIP3    H237056   2.243   0.655  62.456  0.4515 -0.1105 -0.1591
 5189TIP3   OH237057   1.261   0.157   3.484  0.3001  0.3551  0.5852
 5189TIP3    H137058   1.315   0.089   3.443  0.1526  1.3657 -1.4189
 5189TIP3    H237059   1.306   0.177   3.566  1.8905 -0.2112 -0.1057
 5190TIP3   OH237060   0.358   0.411   6.249 -0.1423  0.4734  0.2803
 5190TIP3    H137061   0.301   0.338   6.226 -2.0278  1.6265  1.0684
 5190TIP3    H237062   0.355   0.468   6.172 -1.2557  1.2158  0.8433
 5191TIP3   OH237063   1.354   2.919  64.526  0.1862  0.0964  0.7162
 5191TIP3    H137064   1.433   2.957  64.565  1.6222  0.1695 -1.9825
 5191TIP3    H237065   1.387   2.847  64.472 -1.5131  0.4715 -0.9298
 5192TIP3   OH237066   0.574   2.584  66.872 -0.0439 -0.0474  0.4785
 5192TIP3    H137067   0.634   2.643  66.826 -0.4820  0.5640  0.6807
 5192TIP3    H237068   0.514   2.554  66.805  0.5366 -0.7270  0.2569
 5193TIP3   OH237069   2.512   1.325  18.951  0.0756 -0.1356 -0.0569
 5193TIP3    H137070   2.575   1.297  19.017  0.5692  0.8740 -0.0825
 5193TIP3    H237071   2.438   1.265  18.961 -0.5516  0.9512  2.4776
 5194TIP3   OH237072   2.189   1.200  22.269 -0.7358 -0.3261  0.0431
 5194TIP3    H137073   2.101   1.217  22.234 -1.1732  0.1341  1.3126
 5194TIP3    H237074   2.174   1.150  22.348 -0.1472  2.6850  2.2435
 5195TIP3   OH237075   0.662   2.097  55.818  0.3060 -0.5625  0.4372
 5195TIP3    H137076   0.627   2.140  55.740 -1.3680 -0.8548  1.0007
 5195TIP3    H237077   0.693   2.169  55.873  0.4483 -0.2891  0.0046
 5196TIP3   OH237078   3.406   1.855  60.452 -0.3368  0.8712 -0.1468
 5196TIP3    H137079   3.465   1.786  60.421  2.5379  2.8134  0.5404
 5196TIP3    H237080   3.355   1.880  60.375 -0.3381 -0.9310 -0.7735
 5197TIP3   OH237081   1.623   2.954  61.908  0.3276 -0.8534 -0.3285
 5197TIP3    H137082   1.613   2.859  61.904 -0.5668 -0.7969  0.2719
 5197TIP3    H237083   1.622   2.982  61.816 -0.4151 -1.3373 -0.4766
 5198TIP3   OH237084   1.135   0.482  21.331  0.8335 -0.3375 -0.3407
 5198TIP3    H137085   1.112   0.516  21.245  0.3732 -1.9614 -0.8994
 5198TIP3    H237086   1.226   0.455  21.324  0.9418 -0.0247 -0.1644
 5199TIP3   OH237087   2.704   1.459   3.463  0.4245 -0.0301  0.1457
 5199TIP3    H137088   2.677   1.538   3.510 -0.3792  0.6559 -1.3752
 5199TIP3    H237089   2.791   1.480   3.428 -0.3635  0.8011 -1.4560
 5200TIP3   OH237090   1.177   2.276  13.807 -0.2113 -0.5435 -0.6145
 5200TIP3    H137091   1.223   2.339  13.751 -2.5539  1.0161 -0.9310
 5200TIP3    H237092   1.152   2.205  13.748  0.8505 -0.9158 -0.6413
 5201TIP3   OH237093   1.659   2.433   2.126  0.0005 -0.4121 -0.1577
 5201TIP3    H137094   1.577   2.406   2.167  0.1364 -2.0707 -0.8895
 5201TIP3    H237095   1.667   2.377   2.049  1.6051  0.0208 -0.3448
 5202TIP3   OH237096   3.344   2.203  51.374 -0.2492 -0.0759  0.0070
 5202TIP3    H137097   3.307   2.261  51.441 -2.2538 -0.2703 -0.8662
 5202TIP3    H237098   3.438   2.216  51.381 -0.5449  1.8720  1.1053
 5203TIP3   OH237099   3.200   0.418  62.342  0.7339 -0.0216 -0.4947
 5203TIP3    H137100   3.282   0.443  62.299  0.1189  1.9961 -0.5893
 5203TIP3    H237101   3.222   0.415  62.435  0.7596  1.2748 -0.4473
 5204TIP3   OH237102   1.627   2.767  55.417  0.0444  0.1316 -0.0542
 5204TIP3    H137103   1.574   2.689  55.400  1.2428 -0.8953  0.8026
 5204TIP3    H237104   1.698   2.762  55.353  0.1734  0.4885  0.0592
 5205TIP3   OH237105   0.295   0.271  57.257 -0.2534  0.1319 -0.0780
 5205TIP3    H137106   0.216   0.217  57.254 -1.3543  1.6943 -0.4998
 5205TIP3    H237107   0.331   0.266  57.168 -0.0724 -0.2796  0.0124
 5206TIP3   OH237108   0.070   2.110  54.906 -0.7729 -0.2081 -0.1561
 5206TIP3    H137109  -0.020   2.107  54.937 -0.7093 -0.8854 -0.0351
 5206TIP3    H237110   0.062   2.109  54.810 -1.0190  2.9748 -0.2968
 5207TIP3   OH237111   1.226   0.872  62.468 -0.4366  0.0416 -0.1473
 5207TIP3    H137112   1.143   0.827  62.455 -0.7830  0.1290  1.5614
 5207TIP3    H237113   1.256   0.844  62.554  0.8414  0.7522 -0.3294
 5208TIP3   OH237114   2.022   0.605  66.504  0.0571 -0.4201  0.4613
 5208TIP3    H137115   1.999   0.692  66.537  0.2890 -0.2469  0.1743
 5208TIP3    H237116   2.084   0.623  66.433 -1.0733 -0.7480 -0.6299
 5209TIP3   OH237117   2.618   0.391  19.280  0.6262 -0.3434  0.1282
 5209TIP3    H137118   2.633   0.459  19.215 -0.0153  0.5793  0.9161
 5209TIP3    H237119   2.600   0.312  19.229  0.7609  0.2205 -0.8050
 5210TIP3   OH237120   2.325   0.688   2.948 -0.3115 -0.4897 -0.5522
 5210TIP3    H137121   2.415   0.708   2.922  0.2996 -1.3702  0.7601
 5210TIP3    H237122   2.296   0.621   2.887 -0.4981  0.5779 -1.6754
 5211TIP3   OH237123   3.237   3.419  55.437  0.3832  0.2187 -0.6899
 5211TIP3    H137124   3.262   3.358  55.367  1.0994 -0.8946  0.4803
 5211TIP3    H237125   3.317   3.430  55.488  0.2488  2.1408 -0.8209
 5212TIP3   OH237126   0.917   0.242  36.999 -0.1543  0.9292 -0.0531
 5212TIP3    H137127   0.970   0.321  37.006 -0.0316  0.8283  0.1584
 5212TIP3    H237128   0.828   0.274  36.989 -0.3091  1.0936  1.6391
 5213TIP3   OH237129   0.196   2.252  15.351  0.4001 -0.4423  0.2533
 5213TIP3    H137130   0.188   2.169  15.398  0.0208 -0.6022 -0.0866
 5213TIP3    H237131   0.274   2.241  15.296  0.0134 -0.8013 -0.2355
 5214TIP3   OH237132   0.648   2.563   4.104  0.7867  0.5089  0.2665
 5214TIP3    H137133   0.638   2.504   4.029  1.8529  0.9643 -0.2595
 5214TIP3    H237134   0.566   2.612   4.107  0.2316 -0.3978  0.1819
 5215TIP3   OH237135   1.337   2.206   3.154 -0.0942  0.4649 -0.2822
 5215TIP3    H137136   1.361   2.187   3.245  0.1464  0.1558 -0.4099
 5215TIP3    H237137   1.241   2.203   3.154 -0.1750  1.9492  0.2837
 5216TIP3   OH237138   1.595   0.476  66.237  0.4407  0.1439 -0.3544
 5216TIP3    H137139   1.639   0.427  66.307  0.5896  0.8598  0.0638
 5216TIP3    H237140   1.604   0.568  66.264 -0.1776  0.3745 -0.9276
 5217TIP3   OH237141   1.499   2.314   3.758  0.0455  0.4138 -0.0186
 5217TIP3    H137142   1.477   2.326   3.666 -1.6284  0.1338  0.3071
 5217TIP3    H237143   1.417   2.334   3.805  0.6634 -0.1380  1.3541
 5218TIP3   OH237144   2.448   3.098  10.613 -0.2891  0.3063  0.2708
 5218TIP3    H137145   2.373   3.138  10.658  0.4336  1.6969  0.3145
 5218TIP3    H237146   2.469   3.021  10.666 -0.8742  0.6296  1.0065
 5219TIP3   OH237147   2.426   1.581  22.025 -0.1993  0.2944  0.7298
 5219TIP3    H137148   2.486   1.607  22.095 -2.8171 -1.0581  3.7621
 5219TIP3    H237149   2.420   1.485  22.034 -2.0118  0.2915 -0.0702
 5220TIP3   OH237150   1.431   3.131   6.326  0.2260  0.5635 -0.7617
 5220TIP3    H137151   1.506   3.103   6.272 -1.3018 -1.5632 -1.9344
 5220TIP3    H237152   1.362   3.151   6.262 -0.6655  1.0955  0.3465
 5221TIP3   OH237153   2.218   0.809  50.084 -0.1548  0.5504 -0.4073
 5221TIP3    H137154   2.234   0.825  49.991 -1.2149  2.2011 -0.3470
 5221TIP3    H237155   2.132   0.846  50.100  0.5079  1.3834  1.4948
 5222TIP3   OH237156   2.754   3.241  21.578 -0.4059  0.0973  1.0660
 5222TIP3    H137157   2.734   3.311  21.641  0.7693  1.4096  0.0458
 5222TIP3    H237158   2.847   3.222  21.592  0.4223  1.7963 -1.4953
 5223TIP3   OH237159   1.865   3.180  63.531 -0.1075 -0.1240  0.2322
 5223TIP3    H137160   1.774   3.180  63.561 -0.8120  1.3369 -1.7099
 5223TIP3    H237161   1.894   3.270  63.542 -0.1284  0.3027 -2.4474
 5224TIP3   OH237162   1.748   1.350  49.798  0.0188  0.2318  0.0045
 5224TIP3    H137163   1.656   1.373  49.813  0.2002  2.2500 -1.5376
 5224TIP3    H237164   1.758   1.351  49.703  1.7860  0.8095  0.1651
 5225TIP3   OH237165   3.240   3.315  46.820  0.4462  0.2200 -0.0045
 5225TIP3    H137166   3.264   3.403  46.789  0.3441 -0.4379 -2.1366
 5225TIP3    H237167   3.191   3.277  46.747  0.5682 -1.6431  0.8371
 5226TIP3   OH237168   2.718   2.426   8.056 -0.1707 -0.1566 -0.3651
 5226TIP3    H137169   2.632   2.387   8.068 -0.7508  1.6189  2.1594
 5226TIP3    H237170   2.700   2.517   8.034  0.9818  0.4692  1.0912
 5227TIP3   OH237171   0.713   2.162  58.934 -0.1702  0.0914 -0.4343
 5227TIP3    H137172   0.618   2.175  58.938 -0.1589 -0.0138  0.4521
 5227TIP3    H237173   0.731   2.144  58.842 -1.1756 -1.0799 -0.4321
 5228TIP3   OH237174   3.179   0.236  11.019 -0.0946 -0.1610 -0.1841
 5228TIP3    H137175   3.144   0.322  11.044  1.4190  0.8075 -1.2506
 5228TIP3    H237176   3.128   0.174  11.071 -0.9237  1.3999  0.9608
 5229TIP3   OH237177   1.590   2.379   1.083 -0.3070  0.3089  0.6281
 5229TIP3    H137178   1.516   2.418   1.129 -0.1980  1.8505 -0.4384
 5229TIP3    H237179   1.553   2.343   1.003  0.1628  1.7904 -0.2962
 5230TIP3   OH237180   2.982   3.147  11.174 -0.1787 -0.7141 -0.0542
 5230TIP3    H137181   2.906   3.195  11.141 -0.7804 -0.0632  2.1175
 5230TIP3    H237182   3.032   3.212  11.224  0.3690 -1.7588  0.7963
 5231TIP3   OH237183   0.712   0.340  65.317  0.0522 -0.3136 -0.1689
 5231TIP3    H137184   0.803   0.324  65.341  0.3536 -0.7458 -1.4920
 5231TIP3    H237185   0.696   0.430  65.342  0.5536 -0.5107  0.9150
 5232TIP3   OH237186   1.068   2.020  64.588  0.2538 -0.0622  0.0030
 5232TIP3    H137187   1.088   1.987  64.501  0.5521 -2.2290  0.8250
 5232TIP3    H237188   1.140   2.079  64.609  0.2793  0.3213 -1.1281
 5233TIP3   OH237189   3.157   3.124  45.317  0.5501  0.1184 -0.6471
 5233TIP3    H137190   3.236   3.178  45.319  0.0528  0.8828  1.4473
 5233TIP3    H237191   3.171   3.060  45.388 -0.4252 -0.1643 -0.6982
 5234TIP3   OH237192   0.572   0.822  47.796 -0.5252 -0.6938 -0.1799
 5234TIP3    H137193   0.611   0.873  47.725  0.7642 -0.5152  0.6167
 5234TIP3    H237194   0.647   0.782  47.841 -1.4526 -2.6898 -0.3164
 5235TIP3   OH237195   2.014   0.879  17.589  0.2594 -0.4206 -0.0546
 5235TIP3    H137196   1.979   0.796  17.557  0.4168 -0.9712  1.1571
 5235TIP3    H237197   1.939   0.926  17.625  0.2845 -0.3375 -0.1100
 5236TIP3   OH237198   0.284   2.117  21.292 -0.5465  1.0292 -0.4356
 5236TIP3    H137199   0.204   2.163  21.317 -1.0270  0.9333 -1.7493
 5236TIP3    H237200   0.254   2.038  21.248  0.2588  1.0791 -1.0994
 5237TIP3   OH237201   2.592   0.153  57.582 -0.2471  0.0267 -0.2755
 5237TIP3    H137202   2.628   0.154  57.670 -0.7507  0.3610 -0.0653
 5237TIP3    H237203   2.621   0.236  57.543 -0.4093  0.0949 -0.2564
 5238TIP3   OH237204   1.027   0.903  43.113 -0.8387  0.5403 -0.0056
 5238TIP3    H137205   1.090   0.854  43.167 -0.5497 -0.6082 -1.3305
 5238TIP3    H237206   1.055   0.887  43.023 -1.4255  2.2592 -0.5218
 5239TIP3   OH237207   2.348   0.623  63.025  0.2006 -0.1528 -0.8175
 5239TIP3    H137208   2.380   0.637  62.936  2.4596  2.3979  0.2637
 5239TIP3    H237209   2.336   0.711  63.061  0.5844 -1.0760  1.8071
 5240TIP3   OH237210   0.494   1.033   7.601  0.2331 -0.7144 -0.5700
 5240TIP3    H137211   0.505   0.945   7.637  2.0745  0.0232  0.7794
 5240TIP3    H237212   0.449   1.082   7.670  0.9226 -0.1060 -0.5487
 5241TIP3   OH237213   1.146   1.842  49.397  0.2302 -0.0634  0.2004
 5241TIP3    H137214   1.068   1.891  49.423  1.0319  1.2532  0.1737
 5241TIP3    H237215   1.219   1.899  49.419  1.3002 -1.8380  1.5123
 5242TIP3   OH237216   1.491   0.423   7.564 -0.4092  0.1555  0.5282
 5242TIP3    H137217   1.518   0.428   7.655  1.2065  0.7950  0.0434
 5242TIP3    H237218   1.406   0.379   7.566 -1.2236  1.6756  2.4762
 5243TIP3   OH237219   2.260   1.427   3.589  0.0523 -0.0228  0.2380
 5243TIP3    H137220   2.347   1.467   3.587  0.1336 -0.1488  1.1587
 5243TIP3    H237221   2.254   1.377   3.507  0.9162 -0.1649  0.2611
 5244TIP3   OH237222   2.471   0.087  16.394 -0.0727 -0.3631 -0.4918
 5244TIP3    H137223   2.434   0.174  16.409 -2.6497 -0.8597 -3.0090
 5244TIP3    H237224   2.446   0.037  16.472 -2.2919  0.1276 -0.8147
 5245TIP3   OH237225   3.120   1.112  65.885  0.0407 -0.3138 -0.3040
 5245TIP3    H137226   3.173   1.100  65.964 -1.0511  0.7201  0.6183
 5245TIP3    H237227   3.169   1.066  65.817 -0.2414 -3.5306  1.4391
 5246TIP3   OH237228   2.278   0.629  27.064 -0.7135  0.6530  0.2336
 5246TIP3    H137229   2.318   0.552  27.106 -1.4948  0.5526  0.7980
 5246TIP3    H237230   2.316   0.629  26.976 -0.6724 -0.3638  0.2334
 5247TIP3   OH237231   1.085   2.006   2.761 -0.3382  0.1264  0.3606
 5247TIP3    H137232   1.014   1.995   2.698 -0.5917  1.8693  0.2963
 5247TIP3    H237233   1.095   2.101   2.771  1.1457 -0.0821  1.3190
 5248TIP3   OH237234   0.509   0.533  63.606  0.1196 -0.1366  0.1800
 5248TIP3    H137235   0.429   0.500  63.647  0.1842 -0.5667 -0.0424
 5248TIP3    H237236   0.497   0.628  63.604 -1.4008 -0.2901 -1.8768
 5249TIP3   OH237237   2.134   1.792  50.288 -0.2146  0.3940  0.1252
 5249TIP3    H137238   2.115   1.791  50.382  1.5666  3.1873  0.6496
 5249TIP3    H237239   2.215   1.742  50.280 -0.0490  0.6543  0.1711
 5250TIP3   OH237240   0.667   0.288  37.688  0.6400 -0.3217  0.1493
 5250TIP3    H137241   0.700   0.301  37.777 -2.0426  0.0615  1.1858
 5250TIP3    H237242   0.644   0.195  37.684 -1.3842  0.1067  0.7314
 5251TIP3   OH237243   2.801   3.137  45.605 -0.1439  0.0482 -0.2056
 5251TIP3    H137244   2.894   3.134  45.584 -0.1467  0.3780 -0.2689
 5251TIP3    H237245   2.788   3.067  45.669  0.3649  0.6656  0.6040
 5252TIP3   OH237246   2.510   0.666  55.446 -0.0813  0.1453 -0.3165
 5252TIP3    H137247   2.460   0.623  55.378 -1.1960  0.4651  0.2738
 5252TIP3    H237248   2.489   0.617  55.526 -1.0330  1.4767  0.2846
 5253TIP3   OH237249   3.320   2.892   7.580 -0.2200  0.0762 -0.4433
 5253TIP3    H137250   3.232   2.917   7.549  0.3041  0.5514 -1.6155
 5253TIP3    H237251   3.328   2.936   7.665 -1.3741 -0.5527  0.0214
 5254TIP3   OH237252   2.346   0.979   8.348 -0.4919 -0.2181  0.0306
 5254TIP3    H137253   2.327   1.020   8.433 -1.9780  0.4317 -0.5694
 5254TIP3    H237254   2.356   1.053   8.288 -3.1145 -0.6099 -1.0596
 5255TIP3   OH237255   2.375   3.197   8.488  0.0358 -0.3181  0.1573
 5255TIP3    H137256   2.441   3.191   8.556  1.3448 -1.4309 -1.1328
 5255TIP3    H237257   2.378   3.112   8.444 -1.7715 -0.1390 -0.3952
 5256TIP3   OH237258   0.831   2.259  65.597 -0.1716 -0.3888  0.0141
 5256TIP3    H137259   0.921   2.227  65.608  0.7072  1.3251 -1.5779
 5256TIP3    H237260   0.827   2.338  65.651 -0.5964 -0.2336 -0.2417
 5257TIP3   OH237261   2.565   0.104  54.562 -0.1480 -0.1444  0.1089
 5257TIP3    H137262   2.558   0.198  54.546 -1.2749 -0.2843 -0.3447
 5257TIP3    H237263   2.626   0.095  54.634 -0.3406  0.9677  0.4155
 5258TIP3   OH237264   2.212   1.177  58.327 -0.2273 -0.0832  0.3508
 5258TIP3    H137265   2.202   1.117  58.401 -0.6558 -0.0039  0.3584
 5258TIP3    H237266   2.140   1.239  58.336 -0.7510 -0.5338 -0.5581
 5259TIP3   OH237267   2.572   2.160  62.079  0.6098 -0.3427  0.5454
 5259TIP3    H137268   2.584   2.105  62.001 -0.3956 -0.1491  0.2330
 5259TIP3    H237269   2.530   2.102  62.142  0.9943 -0.3651  0.7853
 5260TIP3   OH237270   0.371   1.143  20.771  0.2820  0.7081  0.0746
 5260TIP3    H137271   0.439   1.086  20.733 -0.0282 -0.2381  0.9183
 5260TIP3    H237272   0.416   1.226  20.786  0.8202  0.6071 -0.8950
 5261TIP3   OH237273   1.813   0.285  60.147 -0.0979  0.3175  0.3135
 5261TIP3    H137274   1.767   0.292  60.063 -0.3584 -2.8880  0.0652
 5261TIP3    H237275   1.905   0.296  60.124 -0.1956 -0.1704 -0.3368
 5262TIP3   OH237276   1.851   2.876  16.306 -0.2019  0.1353 -0.0121
 5262TIP3    H137277   1.915   2.851  16.239 -0.4179  2.5814 -1.2467
 5262TIP3    H237278   1.782   2.810  16.300  0.1127 -0.0848 -1.7504
 5263TIP3   OH237279   0.156   1.513  66.292  0.1226  0.0024 -0.5131
 5263TIP3    H137280   0.210   1.494  66.216  1.9413  0.9626  0.4797
 5263TIP3    H237281   0.127   1.427  66.323  0.0887 -0.4520 -1.7407
 5264TIP3   OH237282   1.661   0.917  52.366  0.3875 -0.5534 -0.4355
 5264TIP3    H137283   1.577   0.894  52.327 -0.2370  0.4108  0.2928
 5264TIP3    H237284   1.708   0.834  52.371  0.7185 -0.6681 -3.6052
 5265TIP3   OH237285   0.261   2.993   6.448 -0.3234  0.0402 -0.2230
 5265TIP3    H137286   0.229   2.926   6.387  1.0004 -0.6151 -0.2415
 5265TIP3    H237287   0.326   3.042   6.397 -1.5845  1.6476 -0.3423
 5266TIP3   OH237288   1.087   2.883   0.253 -0.4131  0.1110 -0.7837
 5266TIP3    H137289   1.180   2.878   0.277 -0.3236  0.3707 -1.0628
 5266TIP3    H237290   1.058   2.966   0.291 -1.2430 -1.2243  1.6790
 5267TIP3   OH237291   2.694   0.639   7.828  0.6078  0.2616  0.2611
 5267TIP3    H137292   2.718   0.628   7.920  1.0892  0.4077  0.1589
 5267TIP3    H237293   2.607   0.601   7.821  1.3591 -1.5933  0.3667
 5268TIP3   OH237294   0.037   0.121  16.300 -0.1678  0.1150 -0.0905
 5268TIP3    H137295  -0.037   0.158  16.348 -1.1075 -0.1843 -1.2539
 5268TIP3    H237296   0.003   0.040  16.261  1.2721 -0.9317  0.7434
 5269TIP3   OH237297   0.226   3.027  11.585  0.3257 -0.4081 -0.6351
 5269TIP3    H137298   0.138   2.995  11.608 -1.0394  3.5220  0.3249
 5269TIP3    H237299   0.210   3.099  11.524  2.8234  0.8254  0.0412
 5270TIP3   OH237300   1.314   2.586   6.802 -0.3653  0.0438 -0.0114
 5270TIP3    H137301   1.222   2.585   6.829 -0.1389  0.1150  0.8157
 5270TIP3    H237302   1.353   2.656   6.855  0.4524 -0.9191  0.6881
 5271TIP3   OH237303   0.321   1.735  53.071  0.0525 -0.0926 -0.3672
 5271TIP3    H137304   0.408   1.739  53.110 -0.4696 -1.4062  1.0311
 5271TIP3    H237305   0.332   1.682  52.991  0.6787  0.5007 -0.6794
 5272TIP3   OH237306   2.164   0.125  64.667 -0.1266  0.2453 -0.0969
 5272TIP3    H137307   2.196   0.046  64.710  1.2779  1.5974  1.4566
 5272TIP3    H237308   2.233   0.148  64.605 -1.0335 -0.3112 -1.3706
 5273TIP3   OH237309   1.566   3.388   3.604  0.0400 -0.0762 -0.2295
 5273TIP3    H137310   1.512   3.442   3.661  0.1001 -2.0854  1.8689
 5273TIP3    H237311   1.505   3.326   3.565  0.4246 -0.5658 -0.0592
 5274TIP3   OH237312   1.044   1.280  13.428 -0.7122  0.4617 -0.1761
 5274TIP3    H137313   1.068   1.262  13.338  0.7925  2.0163 -0.1382
 5274TIP3    H237314   0.989   1.206  13.454  0.5210 -1.0535 -1.6923
 5275TIP3   OH237315   0.520   2.627  49.010  0.0343 -0.5302  0.0911
 5275TIP3    H137316   0.609   2.637  48.976  0.1275 -1.5032  0.0184
 5275TIP3    H237317   0.469   2.599  48.934 -0.5803  1.0379 -0.1206
 5276TIP3   OH237318   0.392   0.941   1.744  0.0434  0.1984  0.1001
 5276TIP3    H137319   0.354   0.874   1.687  1.0278 -0.1921 -0.0981
 5276TIP3    H237320   0.459   0.896   1.795  0.9739  1.0902 -0.2977
 5277TIP3   OH237321   2.504   0.774  26.421  0.0992  0.7373  0.2254
 5277TIP3    H137322   2.438   0.843  26.410  0.3075  0.8526 -0.3031
 5277TIP3    H237323   2.545   0.766  26.336  0.4441  0.3264  0.4285
 5278TIP3   OH237324   0.391   1.634  63.208 -0.0912 -0.2194 -0.0533
 5278TIP3    H137325   0.327   1.662  63.142  1.6616  2.6784 -0.6884
 5278TIP3    H237326   0.359   1.549  63.238 -3.5450  0.5425 -1.1815
 5279TIP3   OH237327   3.383   0.123  11.874 -1.0229  0.0806 -0.0671
 5279TIP3    H137328   3.344   0.124  11.961 -0.7663 -0.6830  0.0663
 5279TIP3    H237329   3.395   0.215  11.852 -2.2705  0.3232  0.1617
 5280TIP3   OH237330   1.049   1.427   8.994  0.5858  0.1957 -0.5504
 5280TIP3    H137331   1.072   1.468   9.078 -0.4363  1.0937 -0.6837
 5280TIP3    H237332   0.955   1.414   8.998  0.5964 -0.2431 -1.3611
 5281TIP3   OH237333   1.240   3.365  58.730 -0.1670  0.3503 -0.0692
 5281TIP3    H137334   1.211   3.367  58.821 -0.3848 -1.1872 -0.0749
 5281TIP3    H237335   1.159   3.363  58.679 -0.0467  1.3170 -0.3122
 5282TIP3   OH237336   0.074   1.669   3.041 -0.0594  0.1124  0.2571
 5282TIP3    H137337   0.102   1.625   3.121  0.2242  1.8004  1.1358
 5282TIP3    H237338   0.016   1.606   2.999  0.0197 -0.9464  1.6328
 5283TIP3   OH237339   1.766   2.952  21.981  0.1260  0.1102 -0.1087
 5283TIP3    H137340   1.855   2.918  21.978  0.1978  0.3246 -1.3074
 5283TIP3    H237341   1.713   2.885  21.938 -0.4362 -0.3727  1.3000
 5284TIP3   OH237342   0.892   2.828  36.891  0.3938 -0.1030  0.5789
 5284TIP3    H137343   0.984   2.802  36.891  0.4526 -0.0704 -1.7666
 5284TIP3    H237344   0.853   2.782  36.817 -1.8439 -1.1534  2.2870
 5285TIP3   OH237345   1.270   2.645  56.257  0.2278  0.0868  0.0589
 5285TIP3    H137346   1.258   2.738  56.239 -1.3215  0.0282  0.6441
 5285TIP3    H237347   1.181   2.610  56.262  0.7323 -1.0450  1.8440
 5286TIP3   OH237348   1.958   3.273  18.466 -0.0358 -0.7412 -0.0960
 5286TIP3    H137349   1.979   3.292  18.375 -1.1188  0.2723 -0.1437
 5286TIP3    H237350   1.870   3.236  18.464 -0.4197  0.1103  0.6180
 5287TIP3   OH237351   0.458   1.403  44.634 -0.1573 -0.7712 -0.1382
 5287TIP3    H137352   0.371   1.378  44.601 -1.0229  1.1417  0.5718
 5287TIP3    H237353   0.519   1.368  44.570 -1.4075 -2.5256 -0.4408
 5288TIP3   OH237354   1.451   0.158   2.231 -0.5973 -0.1704 -0.0977
 5288TIP3    H137355   1.426   0.075   2.190  0.6653 -0.5103 -0.2291
 5288TIP3    H237356   1.536   0.179   2.192 -0.3132  0.5394  0.8746
 5289TIP3   OH237357   3.152   2.124  46.370  0.9815  0.0862 -0.1137
 5289TIP3    H137358   3.143   2.218  46.356 -0.9336 -0.2284 -1.4103
 5289TIP3    H237359   3.188   2.116  46.458 -0.2229  2.0222  0.6170
 5290TIP3   OH237360   0.398   0.857  54.177 -0.2990 -0.1387  0.5903
 5290TIP3    H137361   0.456   0.924  54.141 -0.5864 -0.0896  0.2073
 5290TIP3    H237362   0.314   0.873  54.134  0.1103 -1.9815 -1.0658
 5291TIP3   OH237363   0.955   2.545  19.038  0.6352  0.0091  0.0904
 5291TIP3    H137364   1.011   2.479  18.998 -0.9441 -0.5217 -1.3791
 5291TIP3    H237365   0.991   2.628  19.009  3.2558 -0.0380  2.7724
 5292TIP3   OH237366   2.309   1.062  66.666  0.1561 -0.3582  0.3428
 5292TIP3    H137367   2.263   1.145  66.651  1.0545  0.0640 -0.1312
 5292TIP3    H237368   2.244   0.995  66.644 -0.7119  0.1951  1.1118
 5293TIP3   OH237369   0.323   1.040  66.077  0.1525 -0.3942 -0.2886
 5293TIP3    H137370   0.315   1.035  65.982  0.3907  0.8792 -0.3930
 5293TIP3    H237371   0.365   1.124  66.093  0.2347 -0.6546  0.9386
 5294TIP3   OH237372   3.436   0.316  16.057 -0.0758 -0.7089 -0.2300
 5294TIP3    H137373   3.442   0.223  16.036  0.4304 -0.4659 -1.2625
 5294TIP3    H237374   3.526   0.348  16.050 -0.3430 -0.0112 -0.5741
 5295TIP3   OH237375   0.679   1.087  65.408  0.1245  0.1304  0.2057
 5295TIP3    H137376   0.727   1.158  65.365  1.0557  0.1528  1.2574
 5295TIP3    H237377   0.594   1.126  65.429 -0.5770 -0.0160 -2.0096
 5296TIP3   OH237378   2.948   1.689  12.031  0.1349 -0.6149 -0.4221
 5296TIP3    H137379   2.954   1.779  12.061 -0.0682 -1.0921  1.1693
 5296TIP3    H237380   2.854   1.673  12.020 -0.0074 -1.1547  1.1830
 5297TIP3   OH237381   0.622   0.335  11.296 -0.2803  0.4747  0.1675
 5297TIP3    H137382   0.599   0.426  11.281 -0.3872  0.6691  1.4173
 5297TIP3    H237383   0.574   0.287  11.228  0.8682  1.4393 -1.3747
 5298TIP3   OH237384   2.059   1.965  49.586  0.0172 -0.0852 -0.8161
 5298TIP3    H137385   2.103   1.880  49.585  1.9010  0.8426 -1.5987
 5298TIP3    H237386   2.058   1.989  49.679 -2.2818 -1.7469 -0.3152
 5299TIP3   OH237387   1.798   1.252  18.282 -0.5393  0.3752  0.2683
 5299TIP3    H137388   1.868   1.312  18.255 -1.9552  0.6156 -3.4563
 5299TIP3    H237389   1.759   1.293  18.359  1.2826  1.9366  0.4309
 5300TIP3   OH237390   0.140   0.823  18.836  0.3491 -0.1776  0.0176
 5300TIP3    H137391   0.118   0.915  18.824 -0.2434 -0.3554 -0.3186
 5300TIP3    H237392   0.115   0.804  18.926 -0.8936 -0.3683 -0.3509
 5301TIP3   OH237393   1.743   0.732  67.273 -0.2073  0.7106 -0.0292
 5301TIP3    H137394   1.819   0.790  67.268  0.1439  0.3187  0.5459
 5301TIP3    H237395   1.724   0.727  67.367 -0.8399  0.6664 -0.1625
 5302TIP3   OH237396   3.007   3.108  46.700  0.0191  0.5417 -0.4176
 5302TIP3    H137397   3.011   3.061  46.784  0.9032 -0.7936 -1.1811
 5302TIP3    H237398   2.990   3.040  46.635 -2.0281  1.7273 -1.2111
 5303TIP3   OH237399   0.294   0.894  49.088  0.2735 -0.1065  0.1025
 5303TIP3    H137400   0.377   0.855  49.114  0.3166  0.8752  1.5550
 5303TIP3    H237401   0.235   0.820  49.075  0.8234 -0.7358  1.0622
 5304TIP3   OH237402   1.737   0.933  19.312  0.3349 -0.3749  0.2720
 5304TIP3    H137403   1.765   0.891  19.393 -2.2026  0.3112  1.5903
 5304TIP3    H237404   1.747   0.865  19.245  2.9261 -0.8079  0.9869
 5305TIP3   OH237405   0.422   0.731  36.144  0.1804  0.4975  0.4355
 5305TIP3    H137406   0.377   0.658  36.187 -1.1897  2.0503  1.7682
 5305TIP3    H237407   0.423   0.800  36.210  1.9637  1.5180 -0.5977
 5306TIP3   OH237408   2.593   1.005  61.728 -0.0341  0.3735 -0.3228
 5306TIP3    H137409   2.519   1.036  61.676 -0.7391  0.0197  0.4588
 5306TIP3    H237410   2.554   0.946  61.793  0.8757  0.5347  0.3796
 5307TIP3   OH237411   2.137   0.863  49.441 -0.4399  0.3049  0.1195
 5307TIP3    H137412   2.227   0.882  49.412 -0.7621  1.3221 -0.2868
 5307TIP3    H237413   2.118   0.777  49.404  0.0485  0.4843 -0.5970
 5308TIP3   OH237414   1.991   2.414  42.491  0.1794  0.0138  0.2242
 5308TIP3    H137415   1.902   2.379  42.481 -0.6178  2.1590 -0.9125
 5308TIP3    H237416   2.038   2.381  42.414 -0.1432  0.2563 -0.0815
 5309TIP3   OH237417   1.008   1.948   8.953 -0.6401  0.2514  0.3148
 5309TIP3    H137418   0.933   1.937   8.896  0.3031  0.5045 -1.0183
 5309TIP3    H237419   1.017   2.043   8.963 -1.7210  0.2222  2.2152
 5310TIP3   OH237420   0.166   1.480  19.199 -0.1294 -0.2155  0.2009
 5310TIP3    H137421   0.188   1.537  19.272 -1.4391 -0.1041  0.5459
 5310TIP3    H237422   0.085   1.517  19.164  1.0916  0.4835 -2.1110
 5311TIP3   OH237423   2.414   1.606  11.036  0.1408  0.0390 -0.5224
 5311TIP3    H137424   2.346   1.550  11.072  0.2727 -0.7972 -1.5099
 5311TIP3    H237425   2.494   1.554  11.042  0.4868  0.5745 -0.4048
 5312TIP3   OH237426   0.929   2.336  63.459 -0.4921  0.0554  0.6058
 5312TIP3    H137427   0.916   2.430  63.445  0.0257  0.0880  0.3185
 5312TIP3    H237428   0.847   2.296  63.429 -0.3318  0.3342 -0.2368
 5313TIP3   OH237429   2.258   0.378  47.393 -0.2004 -0.2767 -0.1949
 5313TIP3    H137430   2.342   0.339  47.368 -0.7339  0.1531 -2.9460
 5313TIP3    H237431   2.240   0.443  47.325 -2.0971  0.6812  1.1148
 5314TIP3   OH237432   0.601   2.276  55.144 -0.1803 -0.0878  0.2050
 5314TIP3    H137433   0.548   2.337  55.195 -1.2790 -0.6444 -0.2207
 5314TIP3    H237434   0.543   2.248  55.073  0.5107 -1.1332  0.0324
 5315TIP3   OH237435   2.672   1.342  15.072 -0.3817 -0.0692  0.3484
 5315TIP3    H137436   2.662   1.437  15.083 -2.4486 -0.2737  0.6895
 5315TIP3    H237437   2.610   1.320  15.002  0.1111 -1.1601  0.2483
 5316TIP3   OH237438   1.301   0.986  50.260 -0.4493 -0.2120 -0.4032
 5316TIP3    H137439   1.266   0.898  50.273  1.4029 -1.1362 -1.2248
 5316TIP3    H237440   1.334   0.985  50.171 -0.0944  1.2204 -0.3069
 5317TIP3   OH237441   1.673   1.025   1.376 -0.4483  0.2681 -0.0037
 5317TIP3    H137442   1.736   0.971   1.329  0.1490  0.7330  0.2482
 5317TIP3    H237443   1.599   1.033   1.316 -0.2630 -0.2659 -0.3125
 5318TIP3   OH237444   0.113   2.043  29.605 -0.0170 -0.5753  0.2942
 5318TIP3    H137445   0.194   1.992  29.611 -0.2540 -0.8393  1.5754
 5318TIP3    H237446   0.085   2.055  29.696  0.0142  1.8489  0.0571
 5319TIP3   OH237447   2.630   2.288  13.212  0.4294 -0.2576 -0.5184
 5319TIP3    H137448   2.629   2.382  13.191 -0.3230 -0.1775 -0.1471
 5319TIP3    H237449   2.723   2.269  13.226  0.4191  1.1220  2.2567
 5320TIP3   OH237450   0.040   1.259  17.095  0.6852 -0.2893  0.3953
 5320TIP3    H137451   0.034   1.270  17.190 -0.7360 -0.9929  0.4208
 5320TIP3    H237452  -0.045   1.288  17.062  2.1259  2.6994 -1.0055
 5321TIP3   OH237453   3.096   1.142  63.955 -0.1519  0.2357 -0.2530
 5321TIP3    H137454   3.033   1.209  63.927 -0.3068 -0.1664 -0.8894
 5321TIP3    H237455   3.170   1.192  63.990 -1.1352  0.7018  1.2152
 5322TIP3   OH237456   2.091   3.069  66.792  0.3713 -0.4274  0.2817
 5322TIP3    H137457   2.024   3.138  66.793  1.4462  0.6410  0.3349
 5322TIP3    H237458   2.052   2.999  66.740 -0.5058  0.4663 -0.3114
 5323TIP3   OH237459   1.401   1.606  16.692 -0.0875  0.2476  0.0896
 5323TIP3    H137460   1.428   1.673  16.629  2.8928 -0.2092  0.7198
 5323TIP3    H237461   1.415   1.646  16.778  1.8705 -1.1223  0.4812
 5324TIP3   OH237462   2.253   0.300  66.524  0.0431 -0.4189 -0.5371
 5324TIP3    H137463   2.322   0.362  66.501  0.8264 -1.1660 -0.2710
 5324TIP3    H237464   2.196   0.298  66.447 -0.7111  1.5490 -0.0719
 5325TIP3   OH237465   1.405   0.811  62.271 -0.6337 -0.1577  0.2275
 5325TIP3    H137466   1.318   0.820  62.311 -2.1308  3.2743 -3.1874
 5325TIP3    H237467   1.388   0.779  62.183  1.5550  0.6129 -0.5430
 5326TIP3   OH237468   3.370   1.380   3.910  0.1242  0.3189  0.2588
 5326TIP3    H137469   3.445   1.327   3.937 -0.0898 -0.3461 -0.4059
 5326TIP3    H237470   3.402   1.429   3.834 -0.4334 -0.8347 -0.7462
 5327TIP3   OH237471   0.895   2.940   6.508 -0.0815  0.1551 -0.3396
 5327TIP3    H137472   0.911   2.968   6.418 -0.5205 -0.4177 -0.6049
 5327TIP3    H237473   0.803   2.914   6.509  0.0673 -0.3680  0.1252
 5328TIP3   OH237474   2.513   0.130  21.831  0.1903 -0.0317 -0.2053
 5328TIP3    H137475   2.438   0.189  21.819  0.1372 -0.1076 -0.2418
 5328TIP3    H237476   2.512   0.074  21.754  0.2223 -0.1027 -0.1541
 5329TIP3   OH237477   2.264   0.824  16.894  0.7804  0.4828  0.0582
 5329TIP3    H137478   2.330   0.756  16.908 -0.7856 -0.6898  2.4503
 5329TIP3    H237479   2.192   0.779  16.850  0.4400  1.0424  0.0301
 5330TIP3   OH237480   0.104   0.578  42.279 -0.1160 -0.0317  0.0816
 5330TIP3    H137481   0.150   0.505  42.237 -0.9236 -0.9003  0.6688
 5330TIP3    H237482   0.019   0.582  42.234 -0.8776 -0.7790  1.3982
 5331TIP3   OH237483   1.758   2.940  52.099  0.0794  0.0927 -0.3740
 5331TIP3    H137484   1.773   3.028  52.065  0.9331 -0.3131 -1.1057
 5331TIP3    H237485   1.846   2.902  52.104 -0.2628 -0.6517  0.1340
 5332TIP3   OH237486   0.492   0.390  55.175  0.3494 -0.0361 -0.3612
 5332TIP3    H137487   0.560   0.417  55.113 -1.0505  0.9239 -1.5275
 5332TIP3    H237488   0.429   0.341  55.122 -0.1185 -0.5354  0.6186
 5333TIP3   OH237489   1.258   1.911   3.703  0.7561 -0.7390 -0.2151
 5333TIP3    H137490   1.219   1.987   3.745 -1.2625 -1.5187 -0.6015
 5333TIP3    H237491   1.336   1.892   3.756  0.3342  0.5471  0.9074
 5334TIP3   OH237492   0.909   1.847  53.166  0.0368  0.1061  0.1970
 5334TIP3    H137493   0.854   1.769  53.166  0.4595 -0.2232  1.3436
 5334TIP3    H237494   0.999   1.813  53.167  0.2437  0.6181 -0.4312
 5335TIP3   OH237495   3.290   1.026  62.208 -0.0361 -0.0299  0.1065
 5335TIP3    H137496   3.347   1.056  62.137  0.7896  1.3495  1.2939
 5335TIP3    H237497   3.317   1.078  62.284 -1.5713 -0.7471  1.1927
 5336TIP3   OH237498   2.450   3.082  63.719 -0.5152  0.3092  0.5239
 5336TIP3    H137499   2.421   3.011  63.775 -0.6309 -0.7116 -0.7895
 5336TIP3    H237500   2.429   3.053  63.630  0.2814  1.5710 -0.1074
 5337TIP3   OH237501   0.262   1.284   7.186 -0.0868 -0.0875  0.1279
 5337TIP3    H137502   0.318   1.208   7.201 -2.2571 -1.9081 -0.4708
 5337TIP3    H237503   0.179   1.247   7.155 -1.6947  2.4382  1.1040
 5338TIP3   OH237504   1.029   2.951  58.951  0.0039 -0.1972  0.5506
 5338TIP3    H137505   1.002   2.984  58.865 -0.3914  0.6770  1.0021
 5338TIP3    H237506   0.956   2.896  58.979 -0.3824  0.4489  0.8274
 5339TIP3   OH237507   1.424   0.453  13.277 -0.5564  0.4251 -0.5636
 5339TIP3    H137508   1.440   0.523  13.212 -1.2859 -0.4977 -1.7873
 5339TIP3    H237509   1.499   0.394  13.267  0.0412  0.9859  0.4449
 5340TIP3   OH237510   2.774   2.707  52.424 -0.2689 -0.0946 -0.1451
 5340TIP3    H137511   2.762   2.620  52.462  1.8321 -0.9174 -1.1779
 5340TIP3    H237512   2.734   2.701  52.338  0.2144 -0.1847 -0.3686
 5341TIP3   OH237513   0.445   1.497   2.366 -0.3570 -0.0128  0.5715
 5341TIP3    H137514   0.540   1.504   2.366 -0.0824 -2.6680  1.1763
 5341TIP3    H237515   0.417   1.547   2.443  0.6334 -0.0710  0.9813
 5342TIP3   OH237516   0.511   3.168  12.217 -0.7591 -0.3083 -0.2414
 5342TIP3    H137517   0.528   3.098  12.154  0.0456 -0.6498  0.3390
 5342TIP3    H237518   0.526   3.127  12.302  0.6172  0.7824  0.0865
 5343TIP3   OH237519   1.529   1.335   2.732 -0.3981  0.2670 -0.1614
 5343TIP3    H137520   1.588   1.324   2.806  1.0618 -0.5469 -1.3730
 5343TIP3    H237521   1.510   1.428   2.729  1.6386  0.7252 -0.2862
 5344TIP3   OH237522   2.698   2.464  49.730 -0.3202 -0.0763  0.0890
 5344TIP3    H137523   2.726   2.473  49.638  0.4514 -1.0677  0.2088
 5344TIP3    H237524   2.604   2.483  49.728 -0.1491  0.8048 -0.7563
 5345TIP3   OH237525   3.218   3.334  53.521 -0.0893  0.0527  0.3927
 5345TIP3    H137526   3.256   3.314  53.607  1.6339 -0.1426 -0.3797
 5345TIP3    H237527   3.129   3.299  53.526 -0.8827  2.0769  2.8859
 5346TIP3   OH237528   1.307   1.556  36.688 -0.0847 -0.2412  0.1191
 5346TIP3    H137529   1.278   1.466  36.700 -0.0965 -0.2938 -0.3105
 5346TIP3    H237530   1.334   1.561  36.597  1.3144 -0.2025  0.5209
 5347TIP3   OH237531   1.317   2.368  19.691  0.4835  0.3391 -0.3980
 5347TIP3    H137532   1.227   2.387  19.664 -0.0714  0.0475  1.1159
 5347TIP3    H237533   1.363   2.351  19.609 -1.1411 -0.7508 -1.1509
 5348TIP3   OH237534   0.168   1.638  44.111 -0.6064 -0.1500  0.2085
 5348TIP3    H137535   0.151   1.572  44.178  0.0047  0.4910  1.0159
 5348TIP3    H237536   0.127   1.603  44.032 -0.2658 -1.5205  0.6061
 5349TIP3   OH237537   0.408   2.815  61.283  0.3716 -0.0915  0.2955
 5349TIP3    H137538   0.471   2.887  61.289 -0.7200  1.0716 -1.4634
 5349TIP3    H237539   0.365   2.814  61.369 -0.5575  2.3101 -0.0680
 5350TIP3   OH237540   2.224   2.930  20.902  0.7552 -0.1674 -0.1696
 5350TIP3    H137541   2.205   3.018  20.935  0.3866 -0.6037  0.8406
 5350TIP3    H237542   2.319   2.929  20.891  0.6815  0.6013 -0.9434
 5351TIP3   OH237543   2.595   0.852  42.101 -0.0484  0.0245  0.2475
 5351TIP3    H137544   2.614   0.876  42.192  2.1058 -0.3907 -0.0453
 5351TIP3    H237545   2.666   0.794  42.075  0.0257  1.0122 -2.0613
 5352TIP3   OH237546   1.441   2.149  56.461 -0.1650  0.4027  0.2785
 5352TIP3    H137547   1.487   2.231  56.443 -0.7996  0.6471 -0.2524
 5352TIP3    H237548   1.501   2.080  56.431 -0.4400  0.7396 -1.0576
 5353TIP3   OH237549   2.677   3.174  17.986 -0.2895  0.2081  0.1710
 5353TIP3    H137550   2.713   3.217  18.063 -1.3565  0.4015  0.5878
 5353TIP3    H237551   2.583   3.192  17.991 -0.4570 -0.3315 -0.8255
 5354TIP3   OH237552   1.977   2.509  19.242 -0.3674 -0.0769 -0.1421
 5354TIP3    H137553   1.955   2.533  19.332 -0.9231 -2.4515  0.4250
 5354TIP3    H237554   1.895   2.516  19.194 -0.2890  0.2127 -0.2358
 5355TIP3   OH237555   1.956   1.003  18.328 -0.3805 -0.2725 -0.0635
 5355TIP3    H137556   1.886   1.053  18.286  1.0763  0.5183 -1.6697
 5355TIP3    H237557   2.035   1.057  18.316  0.9081 -2.1117 -0.2137
 5356TIP3   OH237558   0.443   0.578  11.332  0.3454 -0.3607 -0.3159
 5356TIP3    H137559   0.364   0.592  11.385  0.3704 -0.8495 -0.1418
 5356TIP3    H237560   0.512   0.623  11.380  0.3949 -0.9166  0.1470
 5357TIP3   OH237561   2.271   1.649   0.845 -0.1521 -0.5333 -0.2021
 5357TIP3    H137562   2.189   1.694   0.867  0.3138 -0.1766  0.8759
 5357TIP3    H237563   2.281   1.662   0.751 -0.6430  0.6115 -0.1157
 5358TIP3   OH237564   0.050   2.930  64.046  0.1073  0.4304 -0.3913
 5358TIP3    H137565  -0.040   2.899  64.056  0.3100 -0.4659 -1.1887
 5358TIP3    H237566   0.050   2.978  63.963  0.1697  1.1750  0.0359
 5359TIP3   OH237567   0.159   1.833   1.329  0.2168 -0.0914 -0.0113
 5359TIP3    H137568   0.064   1.822   1.342  0.1204 -1.0794 -1.3583
 5359TIP3    H237569   0.180   1.913   1.377 -0.9589 -0.8238  1.8402
 5360TIP3   OH237570   3.324   1.542  44.487 -0.7368  0.1394 -0.7542
 5360TIP3    H137571   3.280   1.508  44.565 -2.6492  3.2434 -0.3037
 5360TIP3    H237572   3.255   1.587  44.439  1.5576  3.8950 -0.8981
 5361TIP3   OH237573   2.713   1.115  51.966  1.3220  0.0369  0.1934
 5361TIP3    H137574   2.808   1.108  51.962  1.3230 -0.2884  0.8037
 5361TIP3    H237575   2.684   1.087  51.879  1.7967  0.5473 -0.1429
 5362TIP3   OH237576   2.498   3.104  62.900  0.3398 -0.6053  0.4648
 5362TIP3    H137577   2.571   3.164  62.886 -0.0592 -0.2974 -0.3480
 5362TIP3    H237578   2.515   3.065  62.986  2.8497 -2.4671 -0.7171
 5363TIP3   OH237579   2.754   1.285  60.441 -0.5920  0.0528 -0.0199
 5363TIP3    H137580   2.824   1.349  60.428 -1.1666  0.4618 -1.2505
 5363TIP3    H237581   2.780   1.210  60.388 -1.3028  0.4094 -0.9167
 5364TIP3   OH237582   2.582   0.798  48.969  0.1168  0.4068  1.0979
 5364TIP3    H137583   2.529   0.878  48.974 -3.2438 -1.4374 -1.2394
 5364TIP3    H237584   2.629   0.806  48.886 -1.1231 -0.4634  0.2844
 5365TIP3   OH237585   3.225   2.549  14.553 -0.0510  0.5304 -0.8123
 5365TIP3    H137586   3.190   2.477  14.501  0.8443  0.4070 -1.2497
 5365TIP3    H237587   3.308   2.572  14.511  1.1538 -0.1647  1.0673
 5366TIP3   OH237588   3.121   0.282   0.829  0.3138  0.3221 -0.4654
 5366TIP3    H137589   3.124   0.320   0.741 -1.9830 -1.2402 -1.3262
 5366TIP3    H237590   3.046   0.324   0.871  2.2755  2.1608  1.3965
 5367TIP3   OH237591   0.761   2.182  62.969 -0.2349 -0.2968 -0.0343
 5367TIP3    H137592   0.686   2.148  62.920 -0.8887  1.9750 -0.7605
 5367TIP3    H237593   0.723   2.248  63.028  0.9528 -0.6159  1.1280
 5368TIP3   OH237594   2.577   0.273   3.187 -0.0221 -0.2365  0.1840
 5368TIP3    H137595   2.634   0.314   3.252  2.9926 -0.9953 -1.7849
 5368TIP3    H237596   2.585   0.179   3.204  0.2999 -0.4088 -0.9002
 5369TIP3   OH237597   2.318   0.399   1.158  0.5857 -0.0027 -0.4582
 5369TIP3    H137598   2.403   0.364   1.183  1.1973  1.7884  0.1004
 5369TIP3    H237599   2.330   0.429   1.068  0.4500 -0.0427 -0.4896
 5370TIP3   OH237600   3.156   0.329   3.324 -0.2929  0.1930  0.1920
 5370TIP3    H137601   3.198   0.252   3.362  0.9384  0.5455 -0.3985
 5370TIP3    H237602   3.068   0.330   3.362  0.0569 -0.8634  1.0723
 5371TIP3   OH237603   1.005   3.060  65.644 -0.2119 -0.3992  0.0310
 5371TIP3    H137604   1.039   3.019  65.565  1.4104 -0.9056  0.9469
 5371TIP3    H237605   0.966   3.142  65.613  0.4451 -0.5553 -1.2823
 5372TIP3   OH237606   0.568   2.946   2.522  0.4821 -0.0336 -0.4004
 5372TIP3    H137607   0.475   2.953   2.502  0.4490 -0.1604 -0.2936
 5372TIP3    H237608   0.572   2.941   2.618  0.5380 -0.8328 -0.4302
 5373TIP3   OH237609   0.003   2.984   3.477 -0.6239 -0.4228  0.2198
 5373TIP3    H137610   0.057   2.951   3.405  0.0399 -0.2255  0.6254
 5373TIP3    H237611  -0.072   2.925   3.480 -2.0034  1.0085 -2.3045
 5374TIP3   OH237612   1.085   1.880  57.655  0.6243  0.3052  0.0853
 5374TIP3    H137613   1.169   1.915  57.625 -0.0658  2.2365  0.2709
 5374TIP3    H237614   1.019   1.939  57.618 -0.5730 -0.4376  0.9506
 5375TIP3   OH237615   0.802   2.172  56.964 -0.1347 -0.7220 -0.6780
 5375TIP3    H137616   0.845   2.153  56.881 -0.3455  0.4683 -1.0769
 5375TIP3    H237617   0.713   2.197  56.940 -0.8586 -2.4353  0.0848
 5376TIP3   OH237618   3.221   3.245  51.648 -0.7241  0.5972  0.0566
 5376TIP3    H137619   3.316   3.252  51.642 -0.8680  1.9436 -1.1562
 5376TIP3    H237620   3.196   3.184  51.579 -0.7862  0.5228  0.1431
 5377TIP3   OH237621   1.953   0.490  62.607  0.0354  0.5739 -0.0451
 5377TIP3    H137622   2.021   0.480  62.540  1.0186 -0.6535  1.0672
 5377TIP3    H237623   1.871   0.473  62.561  0.8024 -1.8445 -0.6976
 5378TIP3   OH237624   0.963   0.024  51.970 -0.2120 -0.5486  0.1621
 5378TIP3    H137625   0.976   0.106  51.923 -0.1921 -0.8503 -0.3703
 5378TIP3    H237626   1.049  -0.019  51.967 -0.7826 -1.6687 -1.6587
 5379TIP3   OH237627   1.307   0.579  45.164  0.7102 -0.6999  0.1673
 5379TIP3    H137628   1.357   0.634  45.224 -1.6423  1.4276  0.3789
 5379TIP3    H237629   1.235   0.545  45.218  0.3195 -1.3432 -0.7318
 5380TIP3   OH237630   2.546   1.000  45.170  0.4905  0.4156 -0.6484
 5380TIP3    H137631   2.521   1.073  45.114 -0.1492  0.0085 -0.9051
 5380TIP3    H237632   2.600   0.944  45.115 -0.7005 -0.3329 -1.0931
 5381TIP3   OH237633   3.437   1.833   6.463  0.0896 -0.0139 -0.1988
 5381TIP3    H137634   3.420   1.924   6.439 -2.9483 -0.7477 -1.2413
 5381TIP3    H237635   3.438   1.833   6.559 -1.2871  0.9572 -0.1508
 5382TIP3   OH237636   0.977   0.767  16.993 -0.0652 -0.2707  0.3536
 5382TIP3    H137637   1.056   0.815  16.967 -0.0408 -1.0457 -1.0848
 5382TIP3    H237638   0.999   0.729  17.078  0.6773  0.5015  0.5142
 5383TIP3   OH237639   1.084   0.527  12.296 -0.2709  0.3018 -0.1911
 5383TIP3    H137640   0.998   0.498  12.327 -0.1566  0.4663  0.2892
 5383TIP3    H237641   1.064   0.585  12.223 -0.5118 -0.8184 -1.0579
 5384TIP3   OH237642   0.865   1.580  67.030 -0.2070  0.3775  0.7432
 5384TIP3    H137643   0.875   1.494  67.070 -2.9521 -0.3543  0.0709
 5384TIP3    H237644   0.772   1.601  67.040  0.3834  3.3774  1.0200
 5385TIP3   OH237645   0.335   0.760  10.712 -0.9501 -0.0298  0.2053
 5385TIP3    H137646   0.352   0.688  10.772  0.2844 -0.3870 -0.5237
 5385TIP3    H237647   0.351   0.722  10.625  0.8465  1.3629 -0.1365
 5386TIP3   OH237648   2.135   1.252  61.557 -0.0143  0.0863  0.2074
 5386TIP3    H137649   2.118   1.287  61.645 -0.2048 -0.8467  0.5588
 5386TIP3    H237650   2.132   1.157  61.569 -1.3255 -0.0684 -1.0513
 5387TIP3   OH237651   2.306   0.673  66.319  0.6092  0.0345 -0.2228
 5387TIP3    H137652   2.342   0.604  66.374 -0.0580 -0.0839  0.0748
 5387TIP3    H237653   2.383   0.719  66.286  1.1780 -2.0688 -2.0665
 5388TIP3   OH237654   3.347   1.940  50.781 -0.2243  0.0157 -0.3341
 5388TIP3    H137655   3.404   1.864  50.793 -1.1347 -0.6080  0.1687
 5388TIP3    H237656   3.388   2.010  50.831  1.6058  0.4253 -2.2392
 5389TIP3   OH237657   2.375   1.139  56.229 -0.7553 -0.3547 -0.6784
 5389TIP3    H137658   2.362   1.055  56.274 -1.6245  0.1245 -0.0012
 5389TIP3    H237659   2.446   1.122  56.167 -1.2109 -1.7116 -0.8668
 5390TIP3   OH237660   2.478   0.577   5.546 -0.1170 -0.4302  0.0946
 5390TIP3    H137661   2.407   0.552   5.487 -0.3564  0.0372  0.1851
 5390TIP3    H237662   2.550   0.517   5.523 -0.0956 -0.0433 -0.9039
 5391TIP3   OH237663   2.459   3.262  20.693  0.1117 -0.2666  0.1464
 5391TIP3    H137664   2.441   3.352  20.666 -1.3867  0.2032  2.4857
 5391TIP3    H237665   2.538   3.267  20.747 -0.1832 -0.2882  0.5836
 5392TIP3   OH237666   1.709   1.062   0.978  0.3298  0.5671 -0.1910
 5392TIP3    H137667   1.778   1.121   0.948  0.8479 -0.9024 -2.0707
 5392TIP3    H237668   1.755   0.983   1.006 -0.4671  0.3890  0.6884
 5393TIP3   OH237669   3.235   1.768  63.740 -0.6540 -0.1743 -0.1922
 5393TIP3    H137670   3.288   1.848  63.744 -1.2728  0.2053  1.6227
 5393TIP3    H237671   3.289   1.701  63.782  0.7374 -1.3502 -3.5388
 5394TIP3   OH237672   2.551   3.209   7.281  1.0614  0.1704 -0.2807
 5394TIP3    H137673   2.483   3.206   7.214  0.7382  0.1309  0.0467
 5394TIP3    H237674   2.551   3.300   7.310  1.4777  0.2803 -0.6140
 5395TIP3   OH237675   2.103   2.700  60.092  0.5161  0.0498  0.2783
 5395TIP3    H137676   2.033   2.673  60.033 -0.4479  2.0502  0.4254
 5395TIP3    H237677   2.152   2.766  60.043  1.4548 -0.2991  0.7113
 5396TIP3   OH237678   1.022   0.482  58.096  0.4675  0.1568 -0.3712
 5396TIP3    H137679   1.010   0.573  58.123  3.0791  0.7466 -0.9200
 5396TIP3    H237680   0.998   0.431  58.173 -2.6251  1.1422 -0.5563
 5397TIP3   OH237681   2.996   1.862  27.421 -0.4402  0.1517 -0.2462
 5397TIP3    H137682   3.023   1.903  27.503 -0.7271 -0.0564 -0.0479
 5397TIP3    H237683   2.985   1.770  27.442 -0.8310  0.1520 -0.4423
 5398TIP3   OH237684   0.536   3.397  47.537 -0.4074  0.0818 -0.6678
 5398TIP3    H137685   0.609   3.423  47.481  0.0465  1.5504  0.5271
 5398TIP3    H237686   0.574   3.338  47.601 -0.0991  1.3229  0.3265
 5399TIP3   OH237687   1.859   2.098  47.769  0.1377  0.0514 -0.3319
 5399TIP3    H137688   1.865   2.122  47.861 -0.5477  0.1005 -0.2986
 5399TIP3    H237689   1.783   2.146  47.736 -0.3290 -0.8742 -0.6359
 5400TIP3   OH237690   2.153   1.369   3.846  0.2013  0.1257  0.5243
 5400TIP3    H137691   2.190   1.410   3.767 -0.2268  0.3785  0.4527
 5400TIP3    H237692   2.085   1.429   3.875  0.4130  0.0730  1.1399
 5401TIP3   OH237693   3.170   0.657  65.308  0.3859  0.5542  0.6245
 5401TIP3    H137694   3.220   0.592  65.258  1.1075  1.2543  0.4160
 5401TIP3    H237695   3.090   0.670  65.257  1.3461  1.6623 -0.6859
 5402TIP3   OH237696   2.078   3.366   8.064 -0.0406 -0.7284 -0.1208
 5402TIP3    H137697   2.137   3.337   8.134 -1.9955 -1.7285  1.1957
 5402TIP3    H237698   2.057   3.286   8.016 -0.5357 -0.4421 -0.3891
 5403TIP3   OH237699   0.695   2.444  46.181  0.1654 -0.2917  0.2626
 5403TIP3    H137700   0.752   2.494  46.239  1.2748  0.0172 -1.0473
 5403TIP3    H237701   0.705   2.353  46.209  2.8506 -0.5087 -1.1310
 5404TIP3   OH237702   1.802   2.782  48.885 -0.1052 -0.0530 -0.4152
 5404TIP3    H137703   1.808   2.860  48.829 -0.2103  0.7586  0.6788
 5404TIP3    H237704   1.737   2.726  48.841 -1.7150  1.4692 -0.0581
 5405TIP3   OH237705   1.697   0.256  43.816  0.1047 -0.3386  0.3402
 5405TIP3    H137706   1.649   0.326  43.772  0.2952  0.1531  0.9072
 5405TIP3    H237707   1.630   0.189  43.833  0.1346 -0.7802 -1.1728
 5406TIP3   OH237708   1.775   0.615  15.885  0.2887 -0.1458 -0.1179
 5406TIP3    H137709   1.840   0.681  15.861  1.2727 -0.7558  0.7682
 5406TIP3    H237710   1.707   0.623  15.819  1.3495  0.3959 -1.1810
 5407TIP3   OH237711   2.887   3.149   2.114 -0.1386 -0.0731  0.7044
 5407TIP3    H137712   2.928   3.063   2.107 -0.8880 -0.3574 -0.5676
 5407TIP3    H237713   2.818   3.138   2.180 -0.8888 -0.7462 -0.1667
 5408TIP3   OH237714   0.844   1.371  46.977  0.0309 -0.0006  0.3151
 5408TIP3    H137715   0.787   1.412  47.042  0.7846  1.3148  0.1732
 5408TIP3    H237716   0.886   1.445  46.933 -0.2395 -0.8677 -1.4695
 5409TIP3   OH237717   1.067   2.026  67.038  0.3144  0.1241  0.2697
 5409TIP3    H137718   1.156   2.060  67.034  1.3658 -2.2763  1.2791
 5409TIP3    H237719   1.037   2.046  67.127  0.4001 -0.3453  0.4036
 5410TIP3   OH237720   0.986   0.174  47.880 -0.3102 -0.1662 -0.2772
 5410TIP3    H137721   1.058   0.207  47.827 -1.2858  1.0825 -0.8787
 5410TIP3    H237722   0.965   0.246  47.939 -0.7095 -0.7158  0.2599
 5411TIP3   OH237723   3.300   2.093  62.647  0.1999  0.0846 -0.1150
 5411TIP3    H137724   3.243   2.019  62.669 -1.5196  0.4419 -2.8578
 5411TIP3    H237725   3.336   2.071  62.561  0.7649  1.7871 -0.3528
 5412TIP3   OH237726   1.935   0.283  57.816  0.1731  0.1462  0.5287
 5412TIP3    H137727   1.968   0.314  57.732 -0.2840  1.3727  0.7853
 5412TIP3    H237728   1.982   0.201  57.831 -1.2295 -1.2387 -1.9210
 5413TIP3   OH237729   2.389   1.051  53.965 -0.5727  0.3099 -0.4132
 5413TIP3    H137730   2.389   0.957  53.950 -2.2838  0.2079 -0.0116
 5413TIP3    H237731   2.418   1.061  54.055 -0.4971  0.1634 -0.4215
 5414TIP3   OH237732   2.293   1.954  52.092 -0.0896  0.0098 -0.4015
 5414TIP3    H137733   2.345   1.958  52.172  0.2622  2.0593 -0.6668
 5414TIP3    H237734   2.358   1.951  52.022 -0.3923 -1.2317 -0.6397
 5415TIP3   OH237735   0.548   2.731  36.722  0.0303  0.4236 -0.3453
 5415TIP3    H137736   0.475   2.670  36.716  0.6202 -0.4204  0.7153
 5415TIP3    H237737   0.621   2.684  36.682  0.5610  0.2886  0.7533
 5416TIP3   OH237738   1.280   0.587   1.019 -0.6428  0.4603 -0.2424
 5416TIP3    H137739   1.241   0.560   0.936  0.7021  0.6136 -0.9325
 5416TIP3    H237740   1.205   0.592   1.079 -1.7087  0.8457 -1.5520
 5417TIP3   OH237741   0.971   0.773   6.265 -0.4868 -0.4109 -0.0022
 5417TIP3    H137742   0.950   0.707   6.332  0.1326 -0.4621  0.1413
 5417TIP3    H237743   1.044   0.736   6.217  0.3298  0.4766  0.5217
 5418TIP3   OH237744   2.423   0.217   3.913  0.1254 -0.0788 -0.3696
 5418TIP3    H137745   2.389   0.305   3.897  1.3546  0.0887 -2.4960
 5418TIP3    H237746   2.346   0.164   3.933 -0.5726  1.5597  1.5640
 5419TIP3   OH237747   2.777   3.296  28.845  0.5019 -0.0277  0.2364
 5419TIP3    H137748   2.706   3.270  28.904  0.9872  0.9062  1.2563
 5419TIP3    H237749   2.857   3.267  28.889  0.7820 -1.4236 -1.0869
 5420TIP3   OH237750   2.012   0.140  50.104 -0.3543 -0.3739  0.4190
 5420TIP3    H137751   1.966   0.111  50.183  0.2548 -0.7548  0.6392
 5420TIP3    H237752   1.979   0.228  50.088 -0.6292 -0.3707  0.9849
 5421TIP3   OH237753   0.845   1.359  46.625  0.2289  0.0925  0.3847
 5421TIP3    H137754   0.785   1.369  46.699 -0.5943  0.6990 -0.3365
 5421TIP3    H237755   0.790   1.375  46.548  0.7001 -1.9791 -0.4576
 5422TIP3   OH237756   1.614   0.053  44.879  0.4724 -0.0864 -0.2726
 5422TIP3    H137757   1.532   0.103  44.878 -0.7235 -1.9754 -0.7056
 5422TIP3    H237758   1.678   0.113  44.919 -0.9313  1.6769 -0.5596
 5423TIP3   OH237759   0.994   3.335  52.241  0.4985 -0.1832 -0.0248
 5423TIP3    H137760   0.902   3.314  52.257  0.3141  0.5077 -0.1744
 5423TIP3    H237761   0.999   3.430  52.251  0.6786  0.1089 -2.4218
 5424TIP3   OH237762   3.081   1.442  47.629  0.2816  0.3208  0.6655
 5424TIP3    H137763   3.045   1.443  47.541  0.4424  0.7100  0.6013
 5424TIP3    H237764   3.110   1.532  47.644 -1.1570  0.6450  1.7043
 5425TIP3   OH237765   2.964   0.176  59.344 -0.1589  0.0916 -0.0909
 5425TIP3    H137766   2.975   0.249  59.283  1.9303 -1.6917 -2.0279
 5425TIP3    H237767   3.040   0.179  59.401 -2.0078  1.6360  2.5191
 5426TIP3   OH237768   0.022   2.537  49.159  0.0113  0.0089 -0.5588
 5426TIP3    H137769   0.076   2.595  49.106  0.0845 -1.0898 -1.7291
 5426TIP3    H237770  -0.060   2.529  49.110 -0.8952  0.9499  0.7540
 5427TIP3   OH237771   1.380   2.914  13.659 -0.9533 -0.7475 -0.3160
 5427TIP3    H137772   1.290   2.945  13.648 -0.4693  0.3253 -1.5051
 5427TIP3    H237773   1.413   2.902  13.570  0.3894 -0.1860  0.0768
 5428TIP3   OH237774   3.378   2.738  20.016  0.8663  0.0059 -0.5210
 5428TIP3    H137775   3.364   2.669  20.081  0.3204 -0.9641 -1.6252
 5428TIP3    H237776   3.382   2.819  20.067  0.3190 -0.7137  0.7007
 5429TIP3   OH237777   2.385   1.737  52.630 -0.1279 -0.0454  0.5666
 5429TIP3    H137778   2.400   1.664  52.569  0.8291  0.6205 -0.0172
 5429TIP3    H237779   2.457   1.798  52.613 -0.2605  0.5079  1.8542
 5430TIP3   OH237780   3.156   2.402  44.125  0.3331  0.2845  0.1946
 5430TIP3    H137781   3.188   2.477  44.074  1.1710  0.8230  1.4539
 5430TIP3    H237782   3.200   2.327  44.087  0.8893  0.6653  0.0700
 5431TIP3   OH237783   1.941   2.759   8.085  0.0901 -0.3705 -0.5446
 5431TIP3    H137784   1.872   2.818   8.115  0.3334 -0.9094  1.1876
 5431TIP3    H237785   2.008   2.816   8.048 -0.3159  0.3246 -0.2155
 5432TIP3   OH237786   2.597   2.311  58.895 -0.1543  0.0557  0.3343
 5432TIP3    H137787   2.648   2.248  58.947  0.1926  0.8383  0.9572
 5432TIP3    H237788   2.520   2.261  58.867  0.7125 -1.0183 -0.2404
 5433TIP3   OH237789   3.285   1.967  44.759 -1.0212  0.5975  1.0209
 5433TIP3    H137790   3.215   1.917  44.801 -1.1785  0.8390  1.0462
 5433TIP3    H237791   3.352   1.975  44.827 -1.0888  0.6146  1.0850
 5434TIP3   OH237792   1.318   1.074  35.304  0.3140  0.7437 -0.1319
 5434TIP3    H137793   1.262   1.007  35.342  0.1866  0.3711 -0.9422
 5434TIP3    H237794   1.390   1.025  35.264  1.3713  1.2281  1.0959
 5435TIP3   OH237795   3.213   0.335  51.585 -0.5157  0.4273  1.0403
 5435TIP3    H137796   3.205   0.263  51.522  0.5340  0.6166  0.6774
 5435TIP3    H237797   3.141   0.320  51.646 -1.0572 -0.2327  0.2739
 5436TIP3   OH237798   0.326   2.152  65.577 -0.0796  0.0323 -0.2877
 5436TIP3    H137799   0.384   2.115  65.511  1.5644 -1.0228  1.6058
 5436TIP3    H237800   0.252   2.091  65.581 -2.6056  2.4421 -4.1354
 5437TIP3   OH237801   1.222   1.147  44.429 -0.4995  0.1988 -0.1757
 5437TIP3    H137802   1.199   1.073  44.372 -0.4534  0.1203 -0.0950
 5437TIP3    H237803   1.315   1.135  44.446 -0.5800  0.0513  0.1612
 5438TIP3   OH237804   0.331   2.846  47.399 -0.2952 -0.3816 -0.7075
 5438TIP3    H137805   0.332   2.803  47.313 -0.6492 -0.4800 -0.6675
 5438TIP3    H237806   0.367   2.933  47.384 -0.7776 -0.2356 -1.0498
 5439TIP3   OH237807   1.564   3.345  21.349 -0.2855 -0.7069  0.5187
 5439TIP3    H137808   1.496   3.326  21.284 -0.4353 -1.0951  0.7860
 5439TIP3    H237809   1.630   3.396  21.301 -0.8116 -0.2381  0.2780
 5440TIP3   OH237810   0.507   1.299  13.253  0.6786 -0.0783 -0.0798
 5440TIP3    H137811   0.582   1.319  13.309 -0.7570 -2.2482  2.8760
 5440TIP3    H237812   0.519   1.208  13.227 -0.3371 -0.0972 -0.5380
 5441TIP3   OH237813   2.276   2.770  58.675  0.0667 -0.2309  0.4941
 5441TIP3    H137814   2.306   2.732  58.758 -0.3486 -0.2675  0.6312
 5441TIP3    H237815   2.356   2.803  58.633  0.3984 -0.9959  0.5076
 5442TIP3   OH237816   3.409   0.670  43.402  0.1714 -0.4462  0.3186
 5442TIP3    H137817   3.462   0.722  43.342 -1.2222  0.3533 -0.2792
 5442TIP3    H237818   3.347   0.623  43.345 -0.1991 -0.8417  1.0311
 5443TIP3   OH237819   0.775   3.358  51.667 -0.3464  0.0222 -0.0843
 5443TIP3    H137820   0.870   3.371  51.658 -0.5731  2.2700  0.0928
 5443TIP3    H237821   0.746   3.332  51.580  0.4334 -0.7057 -0.1401
 5444TIP3   OH237822   2.151   2.643   5.678 -0.2676 -0.6507 -0.2064
 5444TIP3    H137823   2.131   2.631   5.585 -0.3083 -0.2342 -0.2539
 5444TIP3    H237824   2.230   2.698   5.678 -0.9522  0.3639  0.0074
 5445TIP3   OH237825   1.098   3.372  57.974 -0.4866  0.2960  0.2259
 5445TIP3    H137826   1.086   3.312  57.900 -1.2420  1.6268 -0.7868
 5445TIP3    H237827   1.045   3.335  58.044 -1.3307  0.0131 -0.5344
 5446TIP3   OH237828   0.863   0.860  65.084  0.5196  0.5789 -0.3704
 5446TIP3    H137829   0.792   0.915  65.051 -0.3984  0.8353  1.8490
 5446TIP3    H237830   0.916   0.840  65.007 -1.2908  1.3664 -1.8897
 5447TIP3   OH237831   1.023   1.251   1.114 -0.1315  0.1773  0.4564
 5447TIP3    H137832   0.956   1.301   1.066 -0.0556  0.2046  0.3780
 5447TIP3    H237833   0.994   1.160   1.108  0.5570  0.0199 -0.7705
 5448TIP3   OH237834   1.322   1.817  47.621  0.1605 -0.5384 -0.5397
 5448TIP3    H137835   1.301   1.884  47.556 -0.4249 -1.8985 -1.8350
 5448TIP3    H237836   1.307   1.859  47.705  1.5176  1.4937 -1.2192
 5449TIP3   OH237837   1.546   1.807  15.675  0.5492 -0.3753 -0.2379
 5449TIP3    H137838   1.510   1.868  15.610  0.4850 -1.1843 -0.9783
 5449TIP3    H237839   1.470   1.772  15.720  0.6282  0.7458  0.8171
 5450TIP3   OH237840   1.154   0.228  47.699  0.4840  0.5239  0.8379
 5450TIP3    H137841   1.216   0.301  47.705  0.4685  0.5677  0.4920
 5450TIP3    H237842   1.129   0.226  47.606  0.3804  0.1662  0.8741
 5451TIP3   OH237843   0.007   2.554  44.309 -0.2935 -0.0769  0.0141
 5451TIP3    H137844  -0.004   2.459  44.307  0.6137 -0.1870 -0.4573
 5451TIP3    H237845  -0.053   2.584  44.377 -0.9957 -0.9251 -0.2229
 5452TIP3   OH237846   1.929   0.386  53.979 -0.5418 -0.0732  0.4304
 5452TIP3    H137847   1.851   0.440  53.963 -0.6646 -0.2955  0.2814
 5452TIP3    H237848   2.001   0.440  53.948 -0.5164  0.5929  1.5511
 5453TIP3   OH237849   2.213   2.924  28.561 -0.1111  0.0383  0.3584
 5453TIP3    H137850   2.308   2.922  28.569  0.1327  2.3755 -1.0035
 5453TIP3    H237851   2.192   2.850  28.504  1.0086  0.0584 -0.1015
 5454TIP3   OH237852   0.036   0.356  59.608 -0.4055 -0.4602 -0.4555
 5454TIP3    H137853  -0.033   0.302  59.569 -1.2312  0.9414 -0.9974
 5454TIP3    H237854   0.018   0.354  59.702 -0.4093 -1.1464 -0.4690
 5455TIP3   OH237855   1.685   0.842   7.306 -0.1231 -0.1417  0.4531
 5455TIP3    H137856   1.710   0.765   7.358 -0.3970  0.0788  0.9174
 5455TIP3    H237857   1.737   0.834   7.226  0.6846 -0.2316  0.9697
 5456TIP3   OH237858   2.247   2.802  11.726 -0.3163  0.0960  0.3524
 5456TIP3    H137859   2.317   2.741  11.750  0.6282  1.1837  0.4867
 5456TIP3    H237860   2.266   2.825  11.635 -1.3717 -0.7201 -0.0844
 5457TIP3   OH237861   1.318   1.259   2.098 -0.3024 -0.3878  0.4068
 5457TIP3    H137862   1.277   1.240   2.014  1.9389  0.2360 -0.9047
 5457TIP3    H237863   1.319   1.355   2.103 -1.3226 -0.4084  1.6656
 5458TIP3   OH237864   1.279   0.583   8.984 -0.0171  0.1500 -0.5464
 5458TIP3    H137865   1.264   0.677   8.973  0.8281  0.1588 -1.9528
 5458TIP3    H237866   1.242   0.544   8.906  1.1234 -0.4956 -0.7910
 5459TIP3   OH237867   1.859   0.677  50.077 -0.0760  0.5562  0.1568
 5459TIP3    H137868   1.845   0.752  50.018 -0.5950 -0.8030 -1.5337
 5459TIP3    H237869   1.928   0.626  50.034  0.2696  0.0569  1.2798
 5460TIP3   OH237870   2.372   2.619   2.063 -0.0330 -0.3204  0.3074
 5460TIP3    H137871   2.316   2.582   1.995 -1.2386  2.3742 -0.2937
 5460TIP3    H237872   2.420   2.689   2.019  1.1581 -0.2255  1.6755
 5461TIP3   OH237873   3.146   1.847  65.479 -0.5966  0.2249 -1.0383
 5461TIP3    H137874   3.207   1.898  65.426  0.8586  1.2198  1.4320
 5461TIP3    H237875   3.133   1.900  65.558 -3.4175 -0.7294 -0.7353
 5462TIP3   OH237876   1.927   1.816  16.965 -0.2085  0.1355  0.2384
 5462TIP3    H137877   1.996   1.872  17.000 -0.8518  0.1593  1.5413
 5462TIP3    H237878   1.974   1.743  16.924  0.6183 -0.4526  2.1192
 5463TIP3   OH237879   0.138   0.255   3.111  0.1848 -0.1959  0.2819
 5463TIP3    H137880   0.137   0.260   3.206 -0.9813 -0.2204  0.2873
 5463TIP3    H237881   0.128   0.345   3.081  1.0401 -0.1313  0.1699
 5464TIP3   OH237882   2.726   3.356   0.143  0.4492  0.8135 -0.1546
 5464TIP3    H137883   2.746   3.288   0.208  1.5297 -0.7832 -2.0603
 5464TIP3    H237884   2.659   3.316   0.087  2.3876  0.4890 -2.3949
 5465TIP3   OH237885   3.015   1.251  56.274 -0.2348 -0.2686  0.1023
 5465TIP3    H137886   3.110   1.241  56.278 -0.4220 -2.1462  1.0116
 5465TIP3    H237887   2.990   1.209  56.192 -0.1177  2.4095 -1.4141
 5466TIP3   OH237888   0.173   1.856  60.697 -0.6710  0.6737  0.0770
 5466TIP3    H137889   0.116   1.781  60.680 -0.8578  1.2221 -2.0287
 5466TIP3    H237890   0.135   1.897  60.775 -2.0353 -0.0241 -0.1789
 5467TIP3   OH237891   0.451   0.243  15.915 -0.1287  0.5424  0.0001
 5467TIP3    H137892   0.445   0.160  15.963 -0.1298  1.1240  1.0348
 5467TIP3    H237893   0.411   0.225  15.830  1.6303 -1.0711 -0.5477
 5468TIP3   OH237894   0.335   0.309   2.667 -0.1833  0.1733 -0.3060
 5468TIP3    H137895   0.322   0.214   2.660  0.2453  0.1792 -1.3909
 5468TIP3    H237896   0.247   0.345   2.664 -0.4231 -0.2259  1.1083
 5469TIP3   OH237897   2.195   0.291  10.689 -0.9502  0.7418  0.7926
 5469TIP3    H137898   2.156   0.362  10.637  1.2669 -0.3528 -2.6365
 5469TIP3    H237899   2.218   0.224  10.626  0.8569 -1.2957  3.3939
 5470TIP3   OH237900   2.445   3.400  55.007 -0.4519  0.0270  0.1682
 5470TIP3    H137901   2.447   3.372  54.916 -2.6286  2.3625 -0.7155
 5470TIP3    H237902   2.505   3.474  55.011 -1.6181  1.0083  0.1554
 5471TIP3   OH237903   3.222   0.633  48.198 -0.2708  0.8460  0.1683
 5471TIP3    H137904   3.290   0.699  48.211  1.4427 -0.7287 -0.3571
 5471TIP3    H237905   3.158   0.676  48.141  0.4255  2.2667  0.4041
 5472TIP3   OH237906   2.893   2.326  58.819 -0.3574  0.3054 -0.2174
 5472TIP3    H137907   2.802   2.301  58.799 -0.6328  0.8506  0.3308
 5472TIP3    H237908   2.945   2.283  58.750 -0.7533 -2.0674  0.8750
 5473TIP3   OH237909   1.845   2.393  12.300 -0.1507  0.4232 -0.1695
 5473TIP3    H137910   1.934   2.422  12.321 -0.1540 -0.0836  0.6170
 5473TIP3    H237911   1.807   2.371  12.386 -0.0184 -2.2351 -0.6926
 5474TIP3   OH237912   1.445   1.336  12.284  0.2175 -0.2332 -0.0984
 5474TIP3    H137913   1.362   1.353  12.240 -0.7296  0.1384  1.7191
 5474TIP3    H237914   1.489   1.421  12.287 -0.3941  0.0576  0.9563
 5475TIP3   OH237915   3.133   3.026   4.547 -0.2395  1.0469  0.7390
 5475TIP3    H137916   3.174   2.959   4.602  0.3917  2.2006  1.7347
 5475TIP3    H237917   3.052   2.986   4.517  0.8625 -0.7375 -0.0085
 5476TIP3   OH237918   0.667   2.602  54.280 -0.2718  0.0146  0.1676
 5476TIP3    H137919   0.750   2.571  54.315  0.6750  1.3388 -0.7917
 5476TIP3    H237920   0.673   2.585  54.186 -1.6516 -1.0754  0.2490
 5477TIP3   OH237921   1.482   0.095  26.559  0.4881  0.4977 -0.5465
 5477TIP3    H137922   1.490   0.145  26.477  2.5408  0.0225 -0.6894
 5477TIP3    H237923   1.465   0.162  26.625  0.2776  1.0573 -1.1453
 5478TIP3   OH237924   0.158   3.049  12.197 -0.4037 -0.1289 -0.3397
 5478TIP3    H137925   0.247   3.046  12.161  0.9050 -0.9668  2.6213
 5478TIP3    H237926   0.134   3.142  12.193  1.7731  0.5784  1.2334
 5479TIP3   OH237927   0.505   2.012   9.847 -0.1667 -0.2607  0.5094
 5479TIP3    H137928   0.593   1.990   9.815 -0.4246 -1.3453  0.5076
 5479TIP3    H237929   0.467   1.928   9.872 -1.5347  0.0879 -0.2962
 5480TIP3   OH237930   0.113   1.250  46.464  0.2594  0.0500 -0.3757
 5480TIP3    H137931   0.061   1.171  46.477  0.4261  0.0387  0.2338
 5480TIP3    H237932   0.089   1.308  46.536 -0.0017  0.6412 -0.9217
 5481TIP3   OH237933   0.384   2.640  14.149  0.9053 -0.3030 -0.0995
 5481TIP3    H137934   0.309   2.700  14.145 -0.0510 -1.2804  1.7327
 5481TIP3    H237935   0.372   2.582  14.073 -1.1087 -1.3991  0.9836
 5482TIP3   OH237936   0.095   2.518   8.864 -0.4563 -0.1049 -0.3314
 5482TIP3    H137937   0.131   2.526   8.952 -0.6722 -1.1714 -0.1328
 5482TIP3    H237938   0.078   2.608   8.837 -1.1519  0.2090  1.0440
 5483TIP3   OH237939   0.658   2.551   5.152  0.3433 -0.1072 -0.0314
 5483TIP3    H137940   0.684   2.459   5.145 -3.1229 -1.1578 -1.4072
 5483TIP3    H237941   0.674   2.587   5.065  0.5764  0.2636  0.1620
 5484TIP3   OH237942   1.069   0.928  20.796 -0.2594  0.2120 -0.0862
 5484TIP3    H137943   0.983   0.951  20.831 -0.0597 -0.2504  0.7356
 5484TIP3    H237944   1.072   0.832  20.801  1.0823  0.2859  1.9084
 5485TIP3   OH237945   2.661   0.088   6.669  0.4333  0.2629  0.0353
 5485TIP3    H137946   2.732   0.146   6.698  0.1698 -0.2211  1.7588
 5485TIP3    H237947   2.613   0.068   6.749 -0.5461 -0.9157 -0.8196
 5486TIP3   OH237948   3.056   1.969   9.390 -0.3628  0.1820 -0.1518
 5486TIP3    H137949   3.049   2.019   9.309 -2.6912  0.5278  0.1783
 5486TIP3    H237950   3.028   1.881   9.367 -1.1061  0.2984  0.2529
 5487TIP3   OH237951   2.297   0.278   0.692 -0.1745 -0.2875  0.5284
 5487TIP3    H137952   2.354   0.298   0.767 -0.1043 -1.2067  0.7273
 5487TIP3    H237953   2.282   0.184   0.697  1.2222 -0.7081 -1.5835
 5488TIP3   OH237954   2.006   3.079  49.750 -0.2790 -0.0777 -0.0573
 5488TIP3    H137955   1.960   2.997  49.770 -1.4045  0.9175  1.7163
 5488TIP3    H237956   2.058   3.098  49.828 -0.0596  0.9077 -0.4249
 5489TIP3   OH237957   1.299   1.929  33.771 -0.2290  0.2964 -0.1374
 5489TIP3    H137958   1.219   1.962  33.732 -0.8486  0.7360  1.4226
 5489TIP3    H237959   1.355   2.006  33.780  0.5306 -0.0694 -1.5482
 5490TIP3   OH237960   1.201   3.200   2.544 -0.2766 -0.0096 -0.4788
 5490TIP3    H137961   1.255   3.270   2.580 -0.3572 -0.7412  1.1483
 5490TIP3    H237962   1.242   3.119   2.576 -2.6973 -0.5876  1.4856
 5491TIP3   OH237963   0.624   0.767  48.637 -0.1064 -0.4045 -0.0664
 5491TIP3    H137964   0.576   0.758  48.720 -0.0590 -0.7641 -0.0752
 5491TIP3    H237965   0.638   0.677  48.608  0.3524 -0.2946 -0.1956
 5492TIP3   OH237966   3.385   0.292  53.515 -0.1892  0.2683  0.5663
 5492TIP3    H137967   3.291   0.273  53.515  0.0531 -0.9965  0.6074
 5492TIP3    H237968   3.425   0.214  53.477  0.7584  1.3109 -0.6767
 5493TIP3   OH237969   2.299   1.050  20.196 -0.2167  0.1308 -0.0874
 5493TIP3    H137970   2.329   1.117  20.258  1.5198  1.5952 -2.3373
 5493TIP3    H237971   2.205   1.065  20.189  0.1403  2.6282 -0.7370
 5494TIP3   OH237972   2.215   0.760  12.605 -0.2253  0.5033 -0.5250
 5494TIP3    H137973   2.257   0.674  12.601 -1.3596 -0.0959 -0.0788
 5494TIP3    H237974   2.229   0.798  12.518  0.0373 -0.2557 -0.8196
 5495TIP3   OH237975   0.806   2.411  49.859 -0.0118 -0.3093 -0.1000
 5495TIP3    H137976   0.772   2.471  49.793 -0.1071  1.5317  1.5325
 5495TIP3    H237977   0.874   2.362  49.814 -0.8759  0.0203 -1.8675
 5496TIP3   OH237978   0.082   2.570  65.692  0.4648  0.3055  0.4750
 5496TIP3    H137979  -0.001   2.524  65.675  0.1802  0.7331  0.6860
 5496TIP3    H237980   0.140   2.541  65.622 -0.0314  0.4190  0.0106
 5497TIP3   OH237981   3.166   1.892   5.694 -0.0615 -0.0226  0.7356
 5497TIP3    H137982   3.164   1.913   5.787 -0.7031  2.1422  0.2790
 5497TIP3    H237983   3.138   1.972   5.650 -1.0201 -1.3657 -1.2787
 5498TIP3   OH237984   1.286   1.807  54.996 -0.2191  0.3313 -0.4021
 5498TIP3    H137985   1.344   1.731  54.983  0.0699 -0.0002  2.1864
 5498TIP3    H237986   1.331   1.879  54.952  1.1165 -0.3679 -0.2425
 5499TIP3   OH237987   2.019   3.343  56.496 -1.0574  0.5866  0.4189
 5499TIP3    H137988   2.052   3.263  56.538 -2.2367  0.6196  1.4624
 5499TIP3    H237989   2.034   3.329  56.403  0.8582  0.1393  0.7530
 5500TIP3   OH237990   2.796   2.777  59.211 -0.1242  0.2334  0.0304
 5500TIP3    H137991   2.771   2.687  59.234  1.6159 -0.1898  0.3960
 5500TIP3    H237992   2.779   2.828  59.290 -0.7772  0.1749 -0.0636
 5501TIP3   OH237993   0.590   0.643  61.224  0.3042  0.4224  0.2813
 5501TIP3    H137994   0.506   0.660  61.267 -0.3184  0.8115 -1.0333
 5501TIP3    H237995   0.570   0.649  61.130  1.5038 -0.8678 -0.0938
 5502TIP3   OH237996   0.825   2.196  14.817 -0.0862 -0.4316  0.2821
 5502TIP3    H137997   0.827   2.167  14.726  0.4216  0.0117  0.1500
 5502TIP3    H237998   0.799   2.118  14.867 -1.3440 -0.4336 -0.3353
 5503TIP3   OH237999   2.831   0.789   2.255 -0.7514 -0.1558  0.5367
 5503TIP3    H138000   2.875   0.704   2.260  0.6070  0.5820  1.6323
 5503TIP3    H238001   2.869   0.841   2.326 -0.1005  2.0391 -1.2902
 5504TIP3   OH238002   0.002   0.469  57.217  0.0878  0.3946  0.1212
 5504TIP3    H138003   0.007   0.396  57.279 -2.3111  0.0903  0.0143
 5504TIP3    H238004  -0.061   0.441  57.151  0.8809  1.6478 -1.2297
 5505TIP3   OH238005   1.930   1.607   3.649  0.3421 -0.2033  0.2582
 5505TIP3    H138006   1.867   1.537   3.659  0.4549 -0.6150 -1.5262
 5505TIP3    H238007   1.880   1.688   3.661  0.1169 -0.5499  1.8189
 5506TIP3   OH238008   0.448   1.514  62.021  0.1188 -0.2219  0.2665
 5506TIP3    H138009   0.429   1.477  62.107 -1.7349  0.2147  0.0955
 5506TIP3    H238010   0.393   1.463  61.961  0.2898  0.4265 -0.4530
 5507TIP3   OH238011   1.567   1.522  38.167 -0.7304 -0.3539  1.0393
 5507TIP3    H138012   1.509   1.584  38.211 -2.6850 -2.0836  1.0387
 5507TIP3    H238013   1.641   1.511  38.227 -1.6608 -0.0537  2.2761
 5508TIP3   OH238014   0.415   2.076  11.228  0.4246 -0.1910 -0.3937
 5508TIP3    H138015   0.508   2.078  11.251  0.3567  2.6973 -0.0004
 5508TIP3    H238016   0.392   1.983  11.230  3.1196 -0.9414  0.1683
 5509TIP3   OH238017   0.034   1.862  67.382 -0.2943 -0.5099  0.6468
 5509TIP3    H138018   0.095   1.924  67.341  0.2577 -1.1002  0.5450
 5509TIP3    H238019   0.090   1.788  67.409 -0.9738 -1.0888  0.5042
 5510TIP3   OH238020   1.176   2.221  21.154 -0.6973 -0.3975  0.3593
 5510TIP3    H138021   1.253   2.242  21.102 -0.1140 -2.7476  0.1658
 5510TIP3    H238022   1.105   2.214  21.090 -0.8930  0.8390  0.4233
 5511TIP3   OH238023   0.308   2.911   1.043 -0.2054  0.2075 -0.2109
 5511TIP3    H138024   0.212   2.916   1.046 -0.2011 -0.1606  1.2507
 5511TIP3    H238025   0.337   2.993   1.084  0.1317  0.5225 -1.0461
 5512TIP3   OH238026   3.340   2.553   1.091  0.0267  0.2524 -0.1629
 5512TIP3    H138027   3.246   2.549   1.077 -0.2130 -0.2028  1.3213
 5512TIP3    H238028   3.369   2.461   1.086  0.2731  0.3171  0.0422
 5513TIP3   OH238029   1.044   2.776  46.155  1.1383 -0.4307 -0.0587
 5513TIP3    H138030   1.020   2.772  46.063  0.3362  0.4637  0.0907
 5513TIP3    H238031   1.022   2.689  46.190 -2.8213  0.4820  0.2346
 5514TIP3   OH238032   2.029   1.223   5.503 -0.1530 -0.2563  0.1587
 5514TIP3    H138033   2.035   1.204   5.597 -0.8570  0.5247  0.3751
 5514TIP3    H238034   1.943   1.189   5.478  0.3784 -1.2310 -0.4057
 5515TIP3   OH238035   1.039   2.837  21.987  1.4588  0.2716  0.1976
 5515TIP3    H138036   1.003   2.785  22.059 -1.0108  1.7398  0.1246
 5515TIP3    H238037   1.004   2.797  21.908  0.1123  1.4977  0.1120
 5516TIP3   OH238038   1.636   1.422   9.060  0.0068  0.7472  0.2235
 5516TIP3    H138039   1.544   1.443   9.075  0.0630  0.2119  1.4746
 5516TIP3    H238040   1.658   1.466   8.978 -1.6737 -0.1410 -0.7367
 5517TIP3   OH238041   2.260   1.432  53.707 -0.1399 -0.1527  0.5986
 5517TIP3    H138042   2.329   1.495  53.686 -1.5727  1.8033  1.5058
 5517TIP3    H238043   2.249   1.382  53.626  3.8052 -2.1461  1.0172
 5518TIP3   OH238044   2.624   2.830   6.552  0.2172 -0.0760 -0.3394
 5518TIP3    H138045   2.674   2.750   6.532  0.3262  0.2572 -1.4860
 5518TIP3    H238046   2.642   2.846   6.644  0.5308 -1.1446 -0.1918
 5519TIP3   OH238047   1.364   0.092   8.667  0.0267 -0.0754 -0.3055
 5519TIP3    H138048   1.364   0.090   8.763  0.8868  0.4947 -0.2795
 5519TIP3    H238049   1.319   0.173   8.645 -1.1092 -0.7231 -0.4180
 5520TIP3   OH238050   1.912   2.952  46.145 -0.2553 -0.2249  0.0600
 5520TIP3    H138051   1.880   2.995  46.225  0.7649  1.7158 -0.5145
 5520TIP3    H238052   2.007   2.955  46.152 -0.1425  0.2450 -1.3672
 5521TIP3   OH238053   0.980   1.702  19.191  0.5052 -0.4991  0.4858
 5521TIP3    H138054   1.028   1.659  19.262 -0.0018 -2.2613 -0.1946
 5521TIP3    H238055   0.888   1.682  19.209  0.2725  0.1389  0.0302
 5522TIP3   OH238056   2.781   0.993  20.155 -0.0838  0.3141  0.1011
 5522TIP3    H138057   2.819   0.950  20.078  0.2800 -0.8034  0.8834
 5522TIP3    H238058   2.696   0.950  20.167 -1.0692  1.8857 -0.8423
 5523TIP3   OH238059   2.040   3.069  57.146 -0.0793  1.0585 -0.5941
 5523TIP3    H138060   2.027   3.006  57.216  1.7018 -1.8572 -2.6785
 5523TIP3    H238061   2.067   3.150  57.191 -3.4920  0.8313  2.2378
 5524TIP3   OH238062   2.937   1.384   8.532  0.3762 -0.1371  0.0009
 5524TIP3    H138063   2.919   1.293   8.553  0.0490  0.0839  0.6919
 5524TIP3    H238064   2.965   1.382   8.440 -0.8565 -0.7717 -0.3794
 5525TIP3   OH238065   2.161   0.522  55.071  0.7187  0.0203  0.1699
 5525TIP3    H138066   2.162   0.531  55.166  1.5687 -1.3739  0.3284
 5525TIP3    H238067   2.237   0.467  55.051 -1.1859 -2.4114 -0.9702
 5526TIP3   OH238068   0.269   2.421   2.131  0.1093 -0.1925  0.1178
 5526TIP3    H138069   0.316   2.491   2.087  0.9345 -0.9125 -0.1771
 5526TIP3    H238070   0.176   2.441   2.116  0.3420  0.5439 -0.3982
 5527TIP3   OH238071   2.953   2.105  15.898  0.1530 -0.0876  0.4282
 5527TIP3    H138072   3.004   2.069  15.825 -0.4146 -0.6515  0.3027
 5527TIP3    H238073   2.916   2.187  15.864  1.1004  0.4181  0.5760
 5528TIP3   OH238074   2.351   3.337   2.848  0.1894 -0.3940 -0.0225
 5528TIP3    H138075   2.325   3.317   2.937 -2.2372  3.2390  0.3000
 5528TIP3    H238076   2.291   3.287   2.793  1.8939 -2.8915  0.2140
 5529TIP3   OH238077   3.188   0.596  19.345  0.3358  0.5167  0.0977
 5529TIP3    H138078   3.273   0.592  19.388  0.1217  0.9747  0.5761
 5529TIP3    H238079   3.136   0.653  19.401 -0.3180  0.1612 -0.1344
 5530TIP3   OH238080   1.345   2.808  61.341 -0.2444  0.1027  0.1120
 5530TIP3    H138081   1.402   2.856  61.281 -0.9285 -0.1599 -0.7808
 5530TIP3    H238082   1.338   2.864  61.418  3.2232 -0.9625  1.3591
 5531TIP3   OH238083   0.465   2.154  60.620 -0.6281 -0.6168 -0.6464
 5531TIP3    H138084   0.469   2.074  60.672 -0.9399  1.4004  2.7505
 5531TIP3    H238085   0.543   2.204  60.647 -2.2542  1.6989  0.0607
 5532TIP3   OH238086   0.593   2.648  54.744  0.0644  0.7452 -0.5679
 5532TIP3    H138087   0.648   2.723  54.722  0.4269  0.4023 -0.8541
 5532TIP3    H238088   0.558   2.620  54.659 -0.8911  1.2170 -0.3389
 5533TIP3   OH238089   0.578   0.382  47.606 -0.7676  0.2532 -0.4158
 5533TIP3    H138090   0.523   0.442  47.657 -0.9124  0.4359 -0.7827
 5533TIP3    H238091   0.648   0.358  47.666 -1.1395  0.1754 -0.0023
 5534TIP3   OH238092   2.772   1.124  21.828  0.0559  0.3791 -0.0422
 5534TIP3    H138093   2.832   1.198  21.821 -0.4057  0.7374 -0.2623
 5534TIP3    H238094   2.693   1.152  21.781 -0.8161  0.4593  1.4142
 5535TIP3   OH238095   2.532   2.652  58.370 -0.1707 -0.0424  0.0095
 5535TIP3    H138096   2.526   2.565  58.410  0.9697  0.8979  2.4628
 5535TIP3    H238097   2.530   2.712  58.445  4.2033  1.8011 -1.0589
 5536TIP3   OH238098   2.519   1.692   3.194  0.1383  0.0771  0.3887
 5536TIP3    H138099   2.424   1.700   3.193  0.0768 -0.5674 -0.7464
 5536TIP3    H238100   2.548   1.758   3.257 -1.0040  0.9071  0.0865
 5537TIP3   OH238101   0.144   0.513  42.615 -0.4593 -0.3277 -0.1641
 5537TIP3    H138102   0.183   0.578  42.557  0.4323 -1.4453 -0.8753
 5537TIP3    H238103   0.168   0.543  42.703  2.2855 -1.0268 -0.5620
 5538TIP3   OH238104   2.478   0.808   3.275 -0.0691  0.3070  0.2898
 5538TIP3    H138105   2.475   0.784   3.368  1.2813  1.0625  0.5462
 5538TIP3    H238106   2.543   0.749   3.237  0.6616  1.1558  0.1970
 5539TIP3   OH238107   2.417   0.533  43.861  0.2114 -0.0090  0.4720
 5539TIP3    H138108   2.427   0.550  43.767 -0.8232  0.4805  0.4362
 5539TIP3    H238109   2.399   0.439  43.866 -0.0335  0.0161  0.1390
 5540TIP3   OH238110   1.839   1.012  10.992  0.2737 -0.3582 -0.8794
 5540TIP3    H138111   1.835   1.107  10.993 -0.3603 -0.3239  2.3300
 5540TIP3    H238112   1.751   0.984  10.966  0.1120 -0.0526 -0.6651
 5541TIP3   OH238113   1.147   2.201   5.057  1.0732 -0.4692  0.2754
 5541TIP3    H138114   1.159   2.277   5.114 -0.2005 -0.6667  0.8331
 5541TIP3    H238115   1.057   2.208   5.024  1.8146 -0.2708 -1.8797
 5542TIP3   OH238116   1.615   2.098  16.504 -0.7030  0.0240  0.6464
 5542TIP3    H138117   1.657   2.157  16.443 -2.0212 -0.3626 -0.6898
 5542TIP3    H238118   1.677   2.025  16.514 -0.4985  0.0661 -0.2768
 5543TIP3   OH238119   0.939   2.320  59.686  0.5454 -0.2181 -0.0234
 5543TIP3    H138120   0.995   2.275  59.623 -0.2916 -0.3175 -0.7299
 5543TIP3    H238121   0.937   2.261  59.763  2.0451  0.1935  0.3480
 5544TIP3   OH238122   2.373   2.133  65.471 -0.3455  0.9765 -0.0131
 5544TIP3    H138123   2.291   2.089  65.450 -0.9078  1.8965  0.2143
 5544TIP3    H238124   2.358   2.175  65.556  0.4549  0.9240  0.1695
 5545TIP3   OH238125   0.067   1.772  11.984  0.0684 -0.3469 -0.3511
 5545TIP3    H138126   0.045   1.865  11.989  0.8679 -0.2084  0.7912
 5545TIP3    H238127   0.161   1.771  11.965  0.0260 -0.9281 -0.5424
 5546TIP3   OH238128   1.452   0.388  64.776 -0.5317  0.1629  0.4135
 5546TIP3    H138129   1.383   0.390  64.842  0.0169  1.6152  0.9898
 5546TIP3    H238130   1.488   0.300  64.783 -0.4701  0.2738  2.1055
 5547TIP3   OH238131   1.464   0.573  17.172 -0.0237  0.6886 -0.5461
 5547TIP3    H138132   1.503   0.647  17.126 -0.4535  1.2461 -0.0201
 5547TIP3    H238133   1.514   0.497  17.141  0.8389  1.2665 -0.6124
 5548TIP3   OH238134   1.205   1.530  60.206  0.6882  0.4827 -0.0210
 5548TIP3    H138135   1.153   1.507  60.128  0.8495 -0.2645  0.0804
 5548TIP3    H238136   1.284   1.571  60.171  0.1655  1.3584 -0.1922
 5549TIP3   OH238137   0.054   0.034  20.602  0.1398  0.2761  0.2197
 5549TIP3    H138138   0.043   0.125  20.575  2.3657  0.6527  0.4478
 5549TIP3    H238139   0.143   0.030  20.637  0.0050 -1.9466  0.4069
 5550TIP3   OH238140   2.096   1.187  11.942  0.2589  0.4631  0.1407
 5550TIP3    H138141   2.026   1.208  12.003  0.7937 -0.0574  0.9589
 5550TIP3    H238142   2.084   1.248  11.869 -1.6409 -0.2967 -0.2193
 5551TIP3   OH238143   1.671   0.197  11.037 -0.3116 -0.3292 -0.1291
 5551TIP3    H138144   1.753   0.176  10.993 -0.1075  0.5788 -0.2016
 5551TIP3    H238145   1.679   0.157  11.124 -0.0484 -0.7508 -0.3478
 5552TIP3   OH238146   3.340   2.025  20.276 -0.5143 -0.2995 -0.2034
 5552TIP3    H138147   3.368   2.109  20.240 -1.2654  0.5392  1.1193
 5552TIP3    H238148   3.421   1.982  20.303  0.2507 -1.4548 -3.7096
 5553TIP3   OH238149   1.576   0.710  64.941  0.2298  0.0054  0.3803
 5553TIP3    H138150   1.533   0.671  65.017  0.3861  1.1203  1.0628
 5553TIP3    H238151   1.568   0.804  64.954 -1.1587  0.2683 -1.8108
 5554TIP3   OH238152   2.070   3.394  19.577 -0.0535  0.2854  0.1265
 5554TIP3    H138153   2.100   3.389  19.486 -1.3978  1.6940 -0.4315
 5554TIP3    H238154   2.011   3.469  19.579 -1.6197 -0.8969  1.7222
 5555TIP3   OH238155   2.742   0.510  21.164 -0.6833 -0.1384 -0.7975
 5555TIP3    H138156   2.699   0.592  21.142  1.3183  0.6020 -2.2421
 5555TIP3    H238157   2.830   0.535  21.192 -0.7454 -1.6634  0.9330
 5556TIP3   OH238158   2.697   2.008   3.667  0.1676  0.3402 -0.8884
 5556TIP3    H138159   2.730   2.064   3.597 -2.3277  1.1133 -1.5309
 5556TIP3    H238160   2.623   1.962   3.628  1.3034 -2.4789  0.0324
 5557TIP3   OH238161   1.968   1.205  67.274  0.9659 -0.0010 -0.6033
 5557TIP3    H138162   1.992   1.113  67.288 -0.7413 -0.2812  0.7653
 5557TIP3    H238163   1.890   1.218  67.327  1.8174  2.5804  0.1831
 5558TIP3   OH238164   3.352   1.763  10.953 -0.2654 -0.5992  0.3114
 5558TIP3    H138165   3.346   1.838  11.012 -0.6058  0.7245 -1.3247
 5558TIP3    H238166   3.444   1.758  10.929 -0.2324 -0.7393  0.4690
 5559TIP3   OH238167   1.908   2.116  48.031 -0.4582  0.3252 -0.0705
 5559TIP3    H138168   1.944   2.162  48.107 -0.8335  1.1624 -0.3775
 5559TIP3    H238169   1.965   2.040  48.019  0.4447  0.9423  0.2068
 5560TIP3   OH238170   2.387   1.943   6.632 -0.1894 -0.3771 -0.0055
 5560TIP3    H138171   2.444   1.953   6.709 -1.6744  1.5266  0.9287
 5560TIP3    H238172   2.440   1.894   6.569  0.8848 -2.5421  2.4124
 5561TIP3   OH238173   0.104   0.620  10.460 -0.5865  0.0148  0.3390
 5561TIP3    H138174   0.057   0.676  10.398  0.2231  0.2359 -0.0823
 5561TIP3    H238175   0.044   0.611  10.534 -0.7095  1.4823  0.4433
 5562TIP3   OH238176   2.524   0.219   7.104  0.5673 -0.0148 -0.7909
 5562TIP3    H138177   2.462   0.278   7.147  1.0905 -0.1110  0.1299
 5562TIP3    H238178   2.610   0.258   7.121  0.9476 -1.1858  0.1138
 5563TIP3   OH238179   2.001   3.418  43.455  0.6408  0.0489  0.5517
 5563TIP3    H138180   1.978   3.506  43.482  0.9759  0.0992  0.6805
 5563TIP3    H238181   1.922   3.366  43.470  0.0680  0.5561 -0.6078
 5564TIP3   OH238182   3.312   0.244  12.113  0.4098  0.2381 -0.2899
 5564TIP3    H138183   3.396   0.252  12.160 -0.5357  1.0740  1.3404
 5564TIP3    H238184   3.255   0.198  12.175 -0.4600  0.0300 -1.2338
 5565TIP3   OH238185   0.494   1.256  54.311 -0.0142  0.4918  0.2928
 5565TIP3    H138186   0.541   1.312  54.372 -0.9281  0.1299  1.3488
 5565TIP3    H238187   0.539   1.171  54.317  1.4186  1.0666 -1.3644
 5566TIP3   OH238188   1.407   0.174  54.194 -0.5156 -0.0882  0.3780
 5566TIP3    H138189   1.463   0.176  54.271  2.1628 -0.9519 -1.3828
 5566TIP3    H238190   1.424   0.257  54.149 -2.5139  0.6845  0.9333
 5567TIP3   OH238191   2.043   2.014  17.633 -0.1071 -0.4014 -0.2398
 5567TIP3    H138192   1.955   2.002  17.598 -1.4763  1.6475  2.1572
 5567TIP3    H238193   2.092   2.054  17.562 -1.4086 -0.6391 -1.3019
 5568TIP3   OH238194   2.366   2.470  59.184  0.1287  0.0951  0.2860
 5568TIP3    H138195   2.349   2.525  59.260 -1.6605 -0.2247  0.1623
 5568TIP3    H238196   2.284   2.468  59.136  1.0330 -0.2265 -1.3468
 5569TIP3   OH238197   1.719   0.672  49.036  0.4104 -1.0916  0.3005
 5569TIP3    H138198   1.805   0.666  49.078  0.8369 -1.2446 -0.5801
 5569TIP3    H238199   1.698   0.582  49.011  1.0503 -0.7738 -1.5368
 5570TIP3   OH238200   1.924   0.096   6.023 -0.5547 -0.1444 -0.5870
 5570TIP3    H138201   1.878   0.093   5.939  0.6913 -0.5367 -1.2863
 5570TIP3    H238202   1.949   0.005   6.039  1.6561  0.2942 -1.2174
 5571TIP3   OH238203   2.112   1.152  43.327 -0.3320 -0.5765 -0.2627
 5571TIP3    H138204   2.115   1.143  43.232 -0.6934 -0.4373 -0.2903
 5571TIP3    H238205   2.085   1.242  43.342 -1.2859 -0.8766 -0.0482
 5572TIP3   OH238206   0.245   0.217  48.072 -0.5210 -0.4065  0.0316
 5572TIP3    H138207   0.247   0.140  48.015 -2.3035  0.8095 -1.8108
 5572TIP3    H238208   0.314   0.273  48.038  0.4572 -0.9356  1.0720
 5573TIP3   OH238209   0.517   2.830  33.904 -0.3176  0.4689 -0.1072
 5573TIP3    H138210   0.535   2.819  33.998 -1.6710 -3.5263 -0.1369
 5573TIP3    H238211   0.427   2.862  33.900 -0.5757 -0.2260 -0.0083
 5574TIP3   OH238212   0.578   2.719  10.275  0.4330  0.4985 -0.0957
 5574TIP3    H138213   0.630   2.659  10.221 -1.5968 -0.1814 -1.4143
 5574TIP3    H238214   0.507   2.665  10.310 -0.7076  1.8182 -0.2646
 5575TIP3   OH238215   0.836   2.367  15.415 -0.4065 -0.4802 -0.3537
 5575TIP3    H138216   0.761   2.353  15.473 -0.7507  0.1528 -0.6357
 5575TIP3    H238217   0.906   2.314  15.454 -1.0400 -1.2250 -0.1858
 5576TIP3   OH238218   2.632   1.523  52.344  0.3476  0.2147  0.0644
 5576TIP3    H138219   2.628   1.444  52.290  3.5549 -0.0822  0.1055
 5576TIP3    H238220   2.657   1.592  52.283  1.6795  0.3386  0.7300
 5577TIP3   OH238221   2.116   0.638  57.012 -0.2244  0.1679 -0.1835
 5577TIP3    H138222   2.037   0.601  57.053 -0.4687  0.5792 -0.2798
 5577TIP3    H238223   2.099   0.732  57.008  0.0158  0.1893 -0.7568
 5578TIP3   OH238224   0.038   0.861  19.871 -0.3956 -0.6186  0.6103
 5578TIP3    H138225   0.032   0.878  19.777 -2.7626 -2.1821  0.4069
 5578TIP3    H238226   0.091   0.781  19.877  1.7334  0.7230  0.8469
 5579TIP3   OH238227   0.513   0.830  20.261 -0.5695 -0.0615  0.7626
 5579TIP3    H138228   0.435   0.873  20.296 -2.5754 -2.1086 -0.9014
 5579TIP3    H238229   0.499   0.827  20.167  2.4217  1.0739  0.1511
 5580TIP3   OH238230   0.910   1.255  53.923 -0.2560 -0.1989  0.3135
 5580TIP3    H138231   0.881   1.187  53.863 -0.8289 -0.7581  1.1995
 5580TIP3    H238232   0.864   1.236  54.005  0.7437  0.3508  1.0272
 5581TIP3   OH238233   2.890   0.436   6.138  0.0637  0.3060 -0.2745
 5581TIP3    H138234   2.926   0.387   6.065  1.2963  0.1672  0.4063
 5581TIP3    H238235   2.796   0.418   6.134  0.3277 -1.1083 -0.7939
 5582TIP3   OH238236   2.504   1.500  58.873  0.1205 -0.0175 -0.4459
 5582TIP3    H138237   2.594   1.514  58.903  0.1374  1.2067 -0.9904
 5582TIP3    H238238   2.450   1.539  58.942  0.0469  0.0549 -0.5434
 5583TIP3   OH238239   0.189   2.951  67.174 -0.0503  0.4974  0.1693
 5583TIP3    H138240   0.168   2.933  67.266  1.2883  1.4615  0.6929
 5583TIP3    H238241   0.175   2.868  67.129  0.6297 -0.3634  1.4990
 5584TIP3   OH238242   0.520   1.961  13.619 -0.1658 -0.5437 -0.0552
 5584TIP3    H138243   0.606   1.970  13.578  0.5342  1.2236  1.6199
 5584TIP3    H238244   0.497   2.050  13.645 -2.9888 -0.8247 -1.2798
 5585TIP3   OH238245   0.966   0.065  16.517 -0.6440 -0.3426  0.2133
 5585TIP3    H138246   1.049   0.051  16.562 -0.0622 -1.7622 -1.2333
 5585TIP3    H238247   0.900   0.061  16.587  0.2772 -1.7783  1.0473
 5586TIP3   OH238248   1.759   1.582  26.200  0.0147 -0.3810 -0.4626
 5586TIP3    H138249   1.670   1.609  26.220  0.3900  1.7621 -1.3551
 5586TIP3    H238250   1.814   1.649  26.242  1.0764 -0.3289 -1.8631
 5587TIP3   OH238251   3.013   1.560   9.611  0.1365 -0.6049 -0.6856
 5587TIP3    H138252   3.052   1.473   9.611  0.6259 -0.4015  0.1000
 5587TIP3    H238253   3.083   1.618   9.641 -1.3284 -0.5443  3.1859
 5588TIP3   OH238254   2.108   0.357  50.483 -0.2593  0.0937 -0.6424
 5588TIP3    H138255   2.117   0.271  50.524  2.5452  0.3873 -0.4783
 5588TIP3    H238256   2.129   0.419  50.553  0.9014  0.7514 -1.5429
 5589TIP3   OH238257   0.261   2.122  13.161  0.7144 -0.0292 -0.0186
 5589TIP3    H138258   0.352   2.094  13.152  0.6366  0.0545 -1.2829
 5589TIP3    H238259   0.209   2.044  13.139  0.3860 -0.9259  3.3573
 5590TIP3   OH238260   2.155   2.906  56.884 -0.0913 -0.3178 -0.0930
 5590TIP3    H138261   2.092   2.962  56.929 -0.4583 -0.2545 -0.6832
 5590TIP3    H238262   2.239   2.927  56.926 -0.5694 -0.9962  1.2639
 5591TIP3   OH238263   1.173   0.355  60.695 -0.6228  0.0387 -0.3241
 5591TIP3    H138264   1.086   0.392  60.702  0.6901  3.1169  2.0358
 5591TIP3    H238265   1.209   0.390  60.614 -0.1601  2.3953  0.8282
 5592TIP3   OH238266   2.591   1.194  50.698 -0.1300  0.2261  0.2466
 5592TIP3    H138267   2.536   1.237  50.634 -0.5766 -0.0291  0.4557
 5592TIP3    H238268   2.595   1.255  50.772  0.7855  0.7374 -0.2141
 5593TIP3   OH238269   0.031   3.287  13.198  0.1194 -0.4444  0.2637
 5593TIP3    H138270   0.083   3.355  13.242  0.0432 -1.1591  1.5182
 5593TIP3    H238271  -0.060   3.308  13.221 -0.1214  0.3862 -1.3280
 5594TIP3   OH238272   1.382   0.518  12.084  0.0898 -0.1302 -0.3012
 5594TIP3    H138273   1.386   0.614  12.081 -0.5487 -0.1073 -0.5710
 5594TIP3    H238274   1.301   0.496  12.038 -0.4577 -0.7260  0.8871
 5595TIP3   OH238275   0.724   2.903  54.227  0.1690 -0.2689 -0.3673
 5595TIP3    H138276   0.661   2.973  54.244 -0.1698 -0.7494  0.3668
 5595TIP3    H238277   0.808   2.939  54.257  0.2704  0.3731 -1.3563
 5596TIP3   OH238278   3.106   3.234  22.190 -0.6414  0.6921 -0.1632
 5596TIP3    H138279   3.088   3.304  22.253  3.1831  0.0957  1.9358
 5596TIP3    H238280   3.140   3.278  22.113 -0.1100  1.2412  0.3792
 5597TIP3   OH238281   1.895   1.351  19.134 -0.3351  0.7650  0.2511
 5597TIP3    H138282   1.910   1.444  19.117  0.1901  1.1085  2.3432
 5597TIP3    H238283   1.808   1.334  19.098  0.5343  1.4209 -2.3469
 5598TIP3   OH238284   1.575   2.772  21.533 -0.2458  0.2091 -0.1928
 5598TIP3    H138285   1.593   2.865  21.517  3.6134 -0.2428  0.5710
 5598TIP3    H238286   1.596   2.758  21.625 -0.7389 -1.4448 -0.2896
 5599TIP3   OH238287   3.302   2.495  56.497 -0.2563  0.0999  0.1645
 5599TIP3    H138288   3.386   2.484  56.451 -0.9852  0.4431 -1.3133
 5599TIP3    H238289   3.252   2.417  56.473  0.4794 -1.4244  3.1010
 5600TIP3   OH238290   3.325   0.542  52.772  0.2391 -0.4751 -0.0492
 5600TIP3    H138291   3.230   0.543  52.755  0.3679  1.6814 -1.0376
 5600TIP3    H238292   3.341   0.625  52.818  1.3518 -1.8475  2.1564
 5601TIP3   OH238293   2.477   3.039  28.709 -0.3037 -0.7254 -0.2370
 5601TIP3    H138294   2.513   3.017  28.795 -0.1240  1.1021  0.2148
 5601TIP3    H238295   2.497   2.964  28.654  0.9526 -1.2887  0.9310
 5602TIP3   OH238296   2.290   2.972   9.012  0.7092  0.2059  0.0928
 5602TIP3    H138297   2.290   3.023   9.093  1.6920  0.6814 -0.1977
 5602TIP3    H238298   2.287   3.037   8.942  1.2392 -0.1583 -0.2762
 5603TIP3   OH238299   3.250   0.908  61.027 -0.8041  0.4936 -0.3200
 5603TIP3    H138300   3.219   0.852  61.098 -1.1625 -0.2147 -1.0092
 5603TIP3    H238301   3.318   0.962  61.066  0.3790 -1.2264  0.1156
 5604TIP3   OH238302   3.305   1.865  52.363 -0.1522  0.2256 -0.6498
 5604TIP3    H138303   3.325   1.775  52.391  3.2060  0.6374 -1.4048
 5604TIP3    H238304   3.317   1.864  52.268 -1.5083  1.1859 -0.8598
 5605TIP3   OH238305   0.275   2.118  61.421  0.2420  0.2397 -0.0758
 5605TIP3    H138306   0.231   2.149  61.342  2.1622 -0.8512 -1.6530
 5605TIP3    H238307   0.269   2.192  61.482  0.3897  1.8870 -1.9380
 5606TIP3   OH238308   0.829   1.005  54.978  0.1745 -0.4211  0.2314
 5606TIP3    H138309   0.842   1.087  55.026 -0.4348 -0.0657 -0.1988
 5606TIP3    H238310   0.890   1.011  54.904 -1.1036  0.4677 -0.8103
 5607TIP3   OH238311   0.923   1.385  48.272  0.2318  0.0738 -0.2864
 5607TIP3    H138312   0.882   1.410  48.189 -0.1707  0.3797 -0.0026
 5607TIP3    H238313   1.000   1.441  48.279  0.1803  0.1560 -0.3811
 5608TIP3   OH238314   2.588   0.803  56.037  0.1662 -0.3161 -0.5066
 5608TIP3    H138315   2.594   0.875  56.099  1.1017 -1.3713  0.6961
 5608TIP3    H238316   2.585   0.844  55.951  0.6485  1.1403  0.1516
 5609TIP3   OH238317   0.403   2.366  20.971  0.2812  0.4744  0.0045
 5609TIP3    H138318   0.335   2.432  20.977 -0.7502 -0.2256 -2.5841
 5609TIP3    H238319   0.485   2.415  20.980 -0.4778  1.9567 -0.7761
 5610TIP3   OH238320   0.675   0.930  43.650  0.1116 -0.4698 -0.2964
 5610TIP3    H138321   0.719   0.845  43.647 -1.1128 -1.1275 -0.2255
 5610TIP3    H238322   0.641   0.936  43.740  0.3451  0.1825 -0.2478
 5611TIP3   OH238323   0.814   2.191  56.033 -0.1694 -0.4609  0.7461
 5611TIP3    H138324   0.840   2.282  56.048  1.2413 -0.8035  0.5458
 5611TIP3    H238325   0.748   2.174  56.101 -1.2430  1.0029  0.1323
 5612TIP3   OH238326   1.364   1.575  67.269  0.0393 -0.7224  0.4577
 5612TIP3    H138327   1.339   1.492  67.309 -0.6545 -0.7139  0.0542
 5612TIP3    H238328   1.281   1.613  67.239  0.5936 -1.0638 -1.6474
 5613TIP3   OH238329   0.847   2.580  17.371  0.7139 -0.2001 -0.0069
 5613TIP3    H138330   0.823   2.604  17.460  1.7682 -2.0780  0.8423
 5613TIP3    H238331   0.765   2.549  17.332  0.1957  0.8573  0.1911
 5614TIP3   OH238332   3.137   1.993  14.533  0.4443 -0.7234 -0.6046
 5614TIP3    H138333   3.113   1.949  14.452 -1.2498 -1.8693  0.4715
 5614TIP3    H238334   3.133   1.925  14.600 -0.2582  0.6151  0.7722
 5615TIP3   OH238335   0.139   2.461  14.513  0.4630 -0.6127 -0.0360
 5615TIP3    H138336   0.052   2.457  14.472  0.3855 -0.3520  0.1033
 5615TIP3    H238337   0.193   2.403  14.459 -0.3208 -2.5534  1.1551
 5616TIP3   OH238338   0.897   1.777  59.780 -0.1215 -0.3292  0.8483
 5616TIP3    H138339   0.976   1.775  59.834 -0.6539 -0.1043  1.6497
 5616TIP3    H238340   0.851   1.856  59.807 -0.9432 -0.7938  0.8517
 5617TIP3   OH238341   1.580   3.036  57.852  0.3618  0.6611  0.1702
 5617TIP3    H138342   1.537   3.050  57.936  2.5363 -1.0774  1.7204
 5617TIP3    H238343   1.626   3.118  57.835 -0.6036  1.2514  0.3252
 5618TIP3   OH238344   2.755   0.533  43.874  0.0245 -0.4519 -0.5680
 5618TIP3    H138345   2.712   0.566  43.953 -1.1556 -1.2958 -0.8282
 5618TIP3    H238346   2.742   0.438  43.877  3.2333 -0.9869  0.1118
 5619TIP3   OH238347   2.554   2.709  51.293  0.3113 -0.3122 -0.2160
 5619TIP3    H138348   2.589   2.722  51.205  2.2501 -1.3888  0.3367
 5619TIP3    H238349   2.570   2.793  51.338 -0.2273  0.0721 -0.7388
 5620TIP3   OH238350   0.089   2.956   7.160 -0.4261  0.4739  0.7141
 5620TIP3    H138351   0.120   3.044   7.183  1.4923  0.0877 -0.2240
 5620TIP3    H238352   0.065   2.962   7.068  1.4982 -0.3906  0.1088
 5621TIP3   OH238353   0.264   2.432  20.350  0.5737  0.2733  0.2871
 5621TIP3    H138354   0.298   2.378  20.422 -0.0640 -0.1630  0.2660
 5621TIP3    H238355   0.335   2.494  20.331  1.0282 -0.0811  0.8021
 5622TIP3   OH238356   2.227   2.694  64.369  0.0746 -0.1568 -0.0122
 5622TIP3    H138357   2.256   2.773  64.324 -0.7208 -0.3220 -0.8365
 5622TIP3    H238358   2.261   2.703  64.458 -0.8535  1.6070  0.2055
 5623TIP3   OH238359   2.690   1.848  44.096  0.0372  0.3548  0.0507
 5623TIP3    H138360   2.645   1.869  44.177  1.1268  0.6682  0.5955
 5623TIP3    H238361   2.757   1.916  44.087  1.0642 -0.6490 -0.1886
 5624TIP3   OH238362   0.936   1.361   2.556 -0.1682  0.5309  0.5286
 5624TIP3    H138363   0.990   1.406   2.490  0.0150 -0.1897  0.1824
 5624TIP3    H238364   0.952   1.268   2.540 -0.6174  0.3418  1.1855
 5625TIP3   OH238365   0.847   3.047  48.071  0.2124  0.1803 -0.4518
 5625TIP3    H138366   0.796   3.014  48.144 -0.2914  1.2318 -0.3066
 5625TIP3    H238367   0.918   3.097  48.112 -0.2252  0.9949 -0.6687
 5626TIP3   OH238368   0.782   1.716  46.983 -0.2425  0.5001  0.6026
 5626TIP3    H138369   0.697   1.709  47.025 -0.5117 -0.5087 -0.0975
 5626TIP3    H238370   0.763   1.731  46.891  0.3486  1.9776  0.6781
 5627TIP3   OH238371   1.318   2.676  49.403  0.1722  0.6265 -0.2161
 5627TIP3    H138372   1.406   2.648  49.377 -0.3169 -0.0126 -1.2786
 5627TIP3    H238373   1.291   2.736  49.333 -1.0902 -0.9498 -1.1622
 5628TIP3   OH238374   2.820   2.970   9.446  0.1342 -0.5614 -0.1409
 5628TIP3    H138375   2.803   2.919   9.525  0.5565  0.1928  0.4499
 5628TIP3    H238376   2.860   2.908   9.385 -2.1323 -1.6995 -0.5851
 5629TIP3   OH238377   2.091   0.113  20.537 -0.0157  0.2256  0.2531
 5629TIP3    H138378   1.995   0.113  20.536 -0.0352 -0.6284  1.2347
 5629TIP3    H238379   2.114   0.166  20.613  0.2789 -0.3710  0.5780
 5630TIP3   OH238380   1.806   2.693   4.124 -0.2704  0.6868 -0.1902
 5630TIP3    H138381   1.718   2.697   4.088 -0.3596  0.3172 -0.0215
 5630TIP3    H238382   1.846   2.617   4.081 -0.0709  0.7905 -0.1892
 5631TIP3   OH238383   1.482   2.899  10.314 -0.2973  0.1305 -0.1912
 5631TIP3    H138384   1.531   2.965  10.266  0.1453 -1.1510 -1.5706
 5631TIP3    H238385   1.422   2.950  10.370  0.6887  1.6811 -0.4811
 5632TIP3   OH238386   0.866   1.854  13.130  0.0268  0.2073  0.0204
 5632TIP3    H138387   0.857   1.783  13.066 -1.0421  0.2913  0.0599
 5632TIP3    H238388   0.807   1.922  13.097 -0.7436  0.1463  1.2314
 5633TIP3   OH238389   1.060   1.531  21.494  0.0507  0.1884 -0.6097
 5633TIP3    H138390   1.133   1.519  21.554 -0.3476 -1.2226 -0.3563
 5633TIP3    H238391   0.986   1.552  21.551  0.0871  0.8561 -0.7995
 5634TIP3   OH238392   1.705   2.156  59.986  0.4642 -0.3630 -0.5231
 5634TIP3    H138393   1.708   2.147  60.082 -1.4965 -2.6738 -0.5632
 5634TIP3    H238394   1.625   2.206  59.970  0.9587  0.2956 -0.9753
 5635TIP3   OH238395   0.052   1.232  46.926 -0.3559  0.2426 -0.0012
 5635TIP3    H138396   0.047   1.322  46.896 -0.9484  0.6311  1.2341
 5635TIP3    H238397   0.139   1.224  46.966  0.0889 -0.0292 -0.9947
 5636TIP3   OH238398   3.044   0.634   3.050  0.0614  0.0080 -0.2949
 5636TIP3    H138399   3.097   0.697   3.001  0.5377  0.2064  0.4617
 5636TIP3    H238400   3.101   0.558   3.061 -0.4546 -0.5101 -1.0599
 5637TIP3   OH238401   1.385   0.427   1.449  0.0076  0.2009 -0.1248
 5637TIP3    H138402   1.334   0.364   1.500  0.4249  0.7266  0.9833
 5637TIP3    H238403   1.322   0.495   1.426 -0.7795 -1.2085 -2.5089
 5638TIP3   OH238404   2.019   0.631  19.436 -0.1020  0.3501 -0.1695
 5638TIP3    H138405   2.114   0.633  19.426  0.0369  0.3452  0.9950
 5638TIP3    H238406   1.997   0.538  19.446  0.0044  0.4651  1.3787
 5639TIP3   OH238407   3.337   3.336  18.231 -0.4913 -0.4245 -0.1810
 5639TIP3    H138408   3.390   3.415  18.218 -0.3155 -0.5111 -0.0052
 5639TIP3    H238409   3.401   3.268  18.250 -0.7761  0.0813  3.1504
 5640TIP3   OH238410   0.155   1.949  18.313 -0.2745  0.2375  0.2039
 5640TIP3    H138411   0.227   1.959  18.251 -0.8464  0.8865 -0.3641
 5640TIP3    H238412   0.088   2.009  18.282 -0.5826  0.5607  1.4338
 5641TIP3   OH238413   0.850   2.291  18.477 -0.9058  0.2422 -0.1241
 5641TIP3    H138414   0.879   2.290  18.386 -0.9779 -1.3475 -0.1631
 5641TIP3    H238415   0.772   2.346  18.477  0.5434  2.4011 -0.5011
 5642TIP3   OH238416   2.269   0.598  58.687 -0.4112  0.0966  0.7961
 5642TIP3    H138417   2.179   0.611  58.656 -0.5300 -1.2885  0.4706
 5642TIP3    H238418   2.323   0.602  58.608 -0.2112  0.6700  0.9594
 5643TIP3   OH238419   1.227   3.429  45.017  0.0136 -0.3700 -0.5069
 5643TIP3    H138420   1.281   3.412  44.940 -0.4652 -1.1372 -0.6874
 5643TIP3    H238421   1.153   3.368  45.008 -0.0344 -0.4817  0.5669
 5644TIP3   OH238422   2.424   1.853  13.915  0.2883  0.0699 -0.4296
 5644TIP3    H138423   2.507   1.806  13.927  1.2562  1.7324 -0.4133
 5644TIP3    H238424   2.357   1.786  13.932  1.5994 -1.3528 -0.6061
 5645TIP3   OH238425   1.314   2.010  17.382 -0.2631  0.5133 -0.2314
 5645TIP3    H138426   1.237   2.025  17.326  0.3171  0.7660 -0.9792
 5645TIP3    H238427   1.387   2.047  17.332  0.4981 -0.6327 -0.0008
 5646TIP3   OH238428   2.395   1.465   4.010  0.7344  0.0639 -0.7461
 5646TIP3    H138429   2.465   1.448   3.947 -0.5630  0.5312 -2.3714
 5646TIP3    H238430   2.320   1.417   3.976 -0.1306  0.7124  0.1928
 5647TIP3   OH238431   2.730   2.708  17.995 -0.0811 -0.9363 -0.1540
 5647TIP3    H138432   2.697   2.661  18.071  0.8528  0.1778  0.9729
 5647TIP3    H238433   2.664   2.775  17.977  1.0244  0.6881  1.5221
 5648TIP3   OH238434   2.169   2.182  51.902 -0.7223  0.2934 -0.4464
 5648TIP3    H138435   2.236   2.243  51.932 -1.0352 -0.7647  2.8237
 5648TIP3    H238436   2.214   2.126  51.838  1.1280  0.4881  0.6156
 5649TIP3   OH238437   1.612   0.580   8.644 -0.5799 -0.1408  0.3219
 5649TIP3    H138438   1.683   0.633   8.608 -0.4463 -1.6123 -1.7640
 5649TIP3    H238439   1.536   0.639   8.644  0.2162  0.9208  0.9153
 5650TIP3   OH238440   2.326   1.846  62.709  0.2560  0.2094 -0.5421
 5650TIP3    H138441   2.231   1.836  62.706  0.2730  0.2639 -1.3218
 5650TIP3    H238442   2.340   1.936  62.740  0.0399  0.5585 -1.4325
 5651TIP3   OH238443   2.620   2.235  66.165  0.0482  0.1210 -0.3981
 5651TIP3    H138444   2.620   2.141  66.144 -1.5322 -0.1658  0.7789
 5651TIP3    H238445   2.647   2.240  66.256  0.3933  0.8514 -0.5277
 5652TIP3   OH238446   3.055   1.454  14.082 -0.1778  0.5940 -0.2810
 5652TIP3    H138447   2.989   1.385  14.077 -0.7256  0.8507  2.0421
 5652TIP3    H238448   3.063   1.472  14.176  1.9867  1.7544 -0.6370
 5653TIP3   OH238449   0.172   2.823  12.951  0.5663  0.1664  0.2962
 5653TIP3    H138450   0.157   2.797  12.860  0.7831 -2.1973  0.8880
 5653TIP3    H238451   0.240   2.763  12.983 -1.2901 -0.8224  2.7491
 5654TIP3   OH238452   2.278   2.281  59.934 -0.1098 -0.1121  0.0557
 5654TIP3    H138453   2.210   2.343  59.908  0.0775  0.6498  1.3136
 5654TIP3    H238454   2.252   2.252  60.022 -0.2232 -1.8795 -0.5231
 5655TIP3   OH238455   0.106   2.535  52.183 -0.5033  0.4688 -0.0655
 5655TIP3    H138456   0.023   2.530  52.230  0.5185 -1.2143  1.7070
 5655TIP3    H238457   0.137   2.624  52.199 -1.3690  0.7139  0.3145
 5656TIP3   OH238458   1.120   3.434   9.338 -0.2413  0.0828 -0.0525
 5656TIP3    H138459   1.048   3.464   9.282 -0.1151  2.2547  0.8510
 5656TIP3    H238460   1.192   3.495   9.318  0.1532  0.2060  1.6464
 5657TIP3   OH238461   3.359   1.687  17.098  0.0298  0.3558  0.0495
 5657TIP3    H138462   3.440   1.738  17.103 -0.4129  1.2380 -1.3245
 5657TIP3    H238463   3.346   1.671  17.005 -0.5939 -1.0813  0.3550
 5658TIP3   OH238464   0.068   0.181  13.045 -0.5895  0.4573  0.1028
 5658TIP3    H138465   0.060   0.240  12.970 -1.4555 -0.5289 -0.6186
 5658TIP3    H238466  -0.016   0.134  13.048 -0.2674 -0.0854  1.2077
 5659TIP3   OH238467   0.687   2.352  51.719 -0.5492 -0.0653 -0.4664
 5659TIP3    H138468   0.705   2.311  51.804 -1.5461  1.9885  0.8080
 5659TIP3    H238469   0.773   2.381  51.688 -0.4851  2.1005  1.4826
 5660TIP3   OH238470   1.656   1.939  63.188 -0.1397  0.1763  0.0140
 5660TIP3    H138471   1.709   2.009  63.227 -0.5625  0.5775 -0.1258
 5660TIP3    H238472   1.682   1.937  63.096 -0.4640  0.4628 -0.0838
 5661TIP3   OH238473   2.615   0.686  46.662  0.3544  0.0447 -0.0033
 5661TIP3    H138474   2.665   0.659  46.738 -2.1662 -0.3394  1.6373
 5661TIP3    H238475   2.582   0.604  46.625 -1.2570  0.3824  0.5984
 5662TIP3   OH238476   1.778   1.560  16.256 -0.0557  0.0847 -0.3288
 5662TIP3    H138477   1.768   1.501  16.181 -0.0996 -0.4211  0.0649
 5662TIP3    H238478   1.743   1.510  16.330 -2.0173  1.3641 -0.3090
 5663TIP3   OH238479   3.203   1.311  51.009  0.0816  0.2036 -0.0568
 5663TIP3    H138480   3.194   1.337  50.917  2.6214 -1.0692 -0.7527
 5663TIP3    H238481   3.248   1.385  51.050 -2.3570  1.4289  0.6172
 5664TIP3   OH238482   1.946   0.523  65.135  0.2700  0.3616 -0.2714
 5664TIP3    H138483   1.941   0.602  65.189 -1.1434  1.0102 -1.2798
 5664TIP3    H238484   2.017   0.472  65.173 -0.4098  0.9668  1.9586
 5665TIP3   OH238485   2.024   2.416  61.936 -0.1146 -0.2288 -0.1067
 5665TIP3    H138486   1.983   2.399  61.851  1.1350  1.6328 -1.1476
 5665TIP3    H238487   2.118   2.424  61.916  0.3625 -0.8819  1.6476
 5666TIP3   OH238488   0.887   3.439  16.168  0.0386  0.4962  0.1441
 5666TIP3    H138489   0.940   3.446  16.248 -0.5491  0.7192  0.5162
 5666TIP3    H238490   0.938   3.484  16.101  0.3403  0.6778  0.4926
 5667TIP3   OH238491   1.835   3.039  16.590  0.4564 -0.1226  0.2149
 5667TIP3    H138492   1.815   2.952  16.555  2.2836 -0.3533 -0.3378
 5667TIP3    H238493   1.851   3.093  16.513  0.6625  0.3656  0.5989
 5668TIP3   OH238494   2.731   2.299  50.036  0.0604  0.1174  0.0037
 5668TIP3    H138495   2.768   2.352  49.966  0.5768 -0.5559 -0.2431
 5668TIP3    H238496   2.793   2.227  50.047 -1.0090 -0.8665 -0.2103
 5669TIP3   OH238497   0.308   1.969  63.846 -0.0017  0.2749  0.1530
 5669TIP3    H138498   0.263   1.954  63.929  0.0382  0.4170  0.2013
 5669TIP3    H238499   0.359   2.049  63.860  0.6793 -0.1704  0.2706
 5670TIP3   OH238500   0.694   1.238  50.446 -0.5604  0.3335 -0.3055
 5670TIP3    H138501   0.779   1.277  50.425  0.3649 -1.1115  0.6190
 5670TIP3    H238502   0.645   1.241  50.363  2.1215 -3.1292 -2.2742
 5671TIP3   OH238503   3.276   1.387   8.103 -0.2052 -0.6740 -0.8747
 5671TIP3    H138504   3.347   1.324   8.113 -0.0113 -0.4769 -1.0361
 5671TIP3    H238505   3.319   1.471   8.090 -0.4414 -0.2694  0.6800
 5672TIP3   OH238506   1.636   0.588  51.056  0.3266 -0.1624 -0.0577
 5672TIP3    H138507   1.583   0.513  51.028  1.0879 -0.7153 -0.0617
 5672TIP3    H238508   1.594   0.664  51.015 -0.6160 -0.5489  0.1642
 5673TIP3   OH238509   0.068   0.423  18.169  0.3754  0.7105  0.2094
 5673TIP3    H138510  -0.022   0.455  18.172  0.7256  1.6724  0.6407
 5673TIP3    H238511   0.078   0.372  18.250 -0.2498 -0.7474 -0.5823
 5674TIP3   OH238512   2.403   3.215  50.267 -0.3116 -0.6541 -0.1246
 5674TIP3    H138513   2.344   3.148  50.233  0.1486 -0.3616 -1.5898
 5674TIP3    H238514   2.432   3.263  50.189 -1.9460  2.3905  0.9450
 5675TIP3   OH238515   2.232   2.574  11.164 -0.2416  0.1986 -0.3865
 5675TIP3    H138516   2.210   2.527  11.084 -2.4841  1.2281 -0.4495
 5675TIP3    H238517   2.251   2.663  11.135  0.3745  0.2314  0.0968
 5676TIP3   OH238518   0.213   0.451  56.369  0.3523 -0.2279  0.0197
 5676TIP3    H138519   0.271   0.485  56.437  1.2723 -1.3484 -0.1847
 5676TIP3    H238520   0.159   0.386  56.413  0.6128 -0.6067 -0.2207
 5677TIP3   OH238521   2.577   1.058   4.831  0.0582 -0.1980 -0.1111
 5677TIP3    H138522   2.604   1.092   4.917  0.3747  0.1622 -0.3500
 5677TIP3    H238523   2.594   1.130   4.770  0.6996 -0.7618 -0.6179
 5678TIP3   OH238524   1.461   2.635  55.061 -0.1048  0.0801 -0.6538
 5678TIP3    H138525   1.367   2.620  55.059 -0.3623  1.5933 -1.2017
 5678TIP3    H238526   1.493   2.583  55.135 -1.2666 -0.9216 -0.8307
 5679TIP3   OH238527   1.111   0.001   8.792  0.0455  0.2043 -0.8377
 5679TIP3    H138528   1.182   0.037   8.846 -0.7005  1.1686 -0.4889
 5679TIP3    H238529   1.153  -0.070   8.743  0.9395 -0.1785  0.4015
 5680TIP3   OH238530   2.338   1.131  17.322 -0.1549  0.3564  0.3598
 5680TIP3    H138531   2.251   1.139  17.362  0.0557  1.5481  0.6077
 5680TIP3    H238532   2.332   1.051  17.269 -2.2385  1.7103 -1.6496
 5681TIP3   OH238533   2.258   3.371  55.763 -0.4734  0.5599 -0.3258
 5681TIP3    H138534   2.280   3.320  55.685  0.1649  1.5281 -0.7894
 5681TIP3    H238535   2.342   3.403  55.795 -0.6940 -0.0818  0.9534
 5682TIP3   OH238536   0.269   0.768  51.467 -0.2461  0.3793 -0.2451
 5682TIP3    H138537   0.175   0.754  51.483  0.0339 -0.8920  0.4917
 5682TIP3    H238538   0.273   0.850  51.418 -1.6763  0.9668  0.5357
 5683TIP3   OH238539   1.542   3.372   4.533 -0.5813 -0.2373  0.1472
 5683TIP3    H138540   1.474   3.406   4.592 -0.4910 -1.1300  0.7848
 5683TIP3    H238541   1.503   3.295   4.493 -0.7430  0.5183 -1.2031
 5684TIP3   OH238542   1.694   1.471  13.453  0.1932  0.9494 -0.3275
 5684TIP3    H138543   1.735   1.510  13.376 -1.0570  3.3499  0.1507
 5684TIP3    H238544   1.711   1.533  13.524  0.2494 -0.6136  1.1060
 5685TIP3   OH238545   2.231   0.703   1.658 -0.2154  0.0708 -0.5851
 5685TIP3    H138546   2.223   0.782   1.605 -1.7323 -0.3240 -1.0120
 5685TIP3    H238547   2.212   0.732   1.747  0.3717  0.3837 -0.5597
 5686TIP3   OH238548   0.677   2.004  35.347  1.1257 -0.2107  0.3818
 5686TIP3    H138549   0.748   2.055  35.386  0.1645  0.5741  1.1650
 5686TIP3    H238550   0.686   1.917  35.386 -0.6264  0.8715  3.6416
 5687TIP3   OH238551   0.829   2.842   2.448  0.3558 -0.0878 -0.3743
 5687TIP3    H138552   0.848   2.765   2.502  2.9604  1.5622  1.3078
 5687TIP3    H238553   0.744   2.873   2.479  0.3515 -0.9896  0.5740
 5688TIP3   OH238554   2.386   2.129   7.518 -0.1406 -0.2180  0.1515
 5688TIP3    H138555   2.467   2.168   7.484  0.3007 -0.4013  0.9766
 5688TIP3    H238556   2.416   2.062   7.579 -0.9119  0.5676  1.4335
 5689TIP3   OH238557   0.472   2.297  66.781  0.1165  0.1096  0.0973
 5689TIP3    H138558   0.565   2.316  66.791 -0.1051  1.1401  0.3247
 5689TIP3    H238559   0.465   2.203  66.800  0.9022  0.3175  1.5972
 5690TIP3   OH238560   0.241   3.004  22.483  0.4626  0.1924  0.1831
 5690TIP3    H138561   0.151   2.975  22.470  0.5933 -0.2791  0.3376
 5690TIP3    H238562   0.288   2.974  22.406  0.6733 -0.3184  0.5095
 5691TIP3   OH238563   2.664   2.874   9.157 -0.7944 -0.4056  0.2911
 5691TIP3    H138564   2.667   2.960   9.199 -1.6112 -0.4782  0.5070
 5691TIP3    H238565   2.707   2.887   9.073  0.1836 -0.0742  0.8179
 5692TIP3   OH238566   2.767   1.399   6.693  0.1441  0.6450 -0.7035
 5692TIP3    H138567   2.816   1.428   6.770 -0.1228 -1.4177  0.3230
 5692TIP3    H238568   2.815   1.434   6.619  1.6123  0.9571  0.3575
 5693TIP3   OH238569   2.718   0.588   1.003 -0.0846 -0.7745 -0.3059
 5693TIP3    H138570   2.685   0.563   1.089 -1.8350  0.4340 -0.5840
 5693TIP3    H238571   2.799   0.636   1.021 -0.1887 -0.9367  0.6164
 5694TIP3   OH238572   2.428   1.734   8.814  0.9759 -0.1121 -0.4978
 5694TIP3    H138573   2.491   1.746   8.743  0.3703 -2.4143 -1.5257
 5694TIP3    H238574   2.471   1.770   8.891  3.3329 -1.0376 -1.2852
 5695TIP3   OH238575   1.292   0.677  65.009  0.0310 -0.0152  0.3742
 5695TIP3    H138576   1.281   0.731  64.931 -0.2959  1.9365  1.6979
 5695TIP3    H238577   1.320   0.738  65.077  0.6340 -1.7105  1.7138
 5696TIP3   OH238578   1.253   0.191  63.680  0.2122 -0.7290 -0.7299
 5696TIP3    H138579   1.187   0.130  63.713 -0.1228 -0.5217 -1.0110
 5696TIP3    H238580   1.203   0.262  63.640  0.6074 -0.7303 -1.2366
 5697TIP3   OH238581   0.597   3.109  20.235  0.5188  0.2693  0.3961
 5697TIP3    H138582   0.590   3.180  20.171  1.3410  0.0884  0.0938
 5697TIP3    H238583   0.568   3.031  20.188 -0.0601  0.3427  0.6241
 5698TIP3   OH238584   1.524   0.410  37.573  0.2265 -0.2818  0.2988
 5698TIP3    H138585   1.608   0.363  37.570 -0.7325 -2.0363 -1.3726
 5698TIP3    H238586   1.534   0.471  37.646  2.2693 -1.7565  1.3864
 5699TIP3   OH238587   1.627   0.813  56.426 -0.1825  0.6157  0.4727
 5699TIP3    H138588   1.698   0.868  56.457  0.4342  0.3006 -0.3252
 5699TIP3    H238589   1.572   0.871  56.373 -0.1180  0.6982  0.4980
 5700TIP3   OH238590   1.766   1.639  63.626  0.0670  0.3610 -0.8644
 5700TIP3    H138591   1.690   1.611  63.677  0.2942  2.6383  0.9000
 5700TIP3    H238592   1.729   1.666  63.542 -0.9584  0.4810 -0.3990
 5701TIP3   OH238593   0.916   0.815  63.854 -0.0826 -0.1051 -0.1222
 5701TIP3    H138594   0.874   0.901  63.845 -0.7256 -0.3892  0.1307
 5701TIP3    H238595   0.854   0.763  63.905 -0.1195 -1.0074 -1.0602
 5702TIP3   OH238596   1.605   0.681  21.709 -0.1512 -0.5247  0.1201
 5702TIP3    H138597   1.528   0.724  21.672  0.9413 -0.1454 -1.8516
 5702TIP3    H238598   1.582   0.588  21.713 -1.2154 -0.2353  0.9561
 5703TIP3   OH238599   0.687   3.308  16.609 -0.3885  0.0599  0.5074
 5703TIP3    H138600   0.760   3.265  16.565 -0.5873 -1.1946  1.3531
 5703TIP3    H238601   0.627   3.332  16.538  1.2849  2.1398 -0.3324
 5704TIP3   OH238602   1.520   1.143  51.442 -0.4425  0.1319 -0.3449
 5704TIP3    H138603   1.612   1.151  51.468 -0.2284  1.5945 -1.4162
 5704TIP3    H238604   1.471   1.160  51.523  0.1679 -2.0122  0.5643
 5705TIP3   OH238605   3.084   0.853  16.787  0.4983 -0.8058 -0.0997
 5705TIP3    H138606   3.008   0.827  16.839  0.8091  0.0038  0.8017
 5705TIP3    H238607   3.061   0.940  16.754  0.0305 -1.5792 -1.9132
 5706TIP3   OH238608   0.273   0.187  58.191  0.3382 -0.1890  0.0330
 5706TIP3    H138609   0.220   0.266  58.183 -1.1631 -0.9847  1.5220
 5706TIP3    H238610   0.332   0.205  58.264 -0.8253 -0.8194  1.1799
 5707TIP3   OH238611   2.287   0.665  52.917  0.3637 -0.5647  0.1831
 5707TIP3    H138612   2.299   0.758  52.935  0.4472 -0.8804  1.9148
 5707TIP3    H238613   2.194   0.650  52.930 -0.5431  0.0174 -4.1320
 5708TIP3   OH238614   3.346   3.298   9.012  0.2845  0.2131  0.6580
 5708TIP3    H138615   3.339   3.262   9.100 -0.6819 -1.2474  0.0235
 5708TIP3    H238616   3.298   3.236   8.957  2.5552 -0.0064 -1.2063
 5709TIP3   OH238617   3.190   3.095   2.921 -0.4389  0.1753 -0.7777
 5709TIP3    H138618   3.228   3.121   2.838 -0.9752  0.5821 -0.8980
 5709TIP3    H238619   3.126   3.163   2.941 -0.2666  0.1228  0.0036
 5710TIP3   OH238620   2.058   1.826  21.366  0.3526 -0.3086  0.0432
 5710TIP3    H138621   2.147   1.858  21.379  0.2925 -0.0145 -0.2550
 5710TIP3    H238622   2.012   1.850  21.447  0.5147 -0.3767  0.1576
 5711TIP3   OH238623   1.543   0.586  47.757 -0.3707 -0.1781 -1.0376
 5711TIP3    H138624   1.624   0.589  47.705 -0.1726 -0.3892 -0.7416
 5711TIP3    H238625   1.516   0.678  47.764  0.2802 -0.0190 -0.4641
 5712TIP3   OH238626   1.320   2.100  63.163  0.4450 -0.2801  0.9433
 5712TIP3    H138627   1.414   2.115  63.170  0.5323 -0.8556  1.0428
 5712TIP3    H238628   1.312   2.008  63.138 -0.0089  0.3443 -1.4416
 5713TIP3   OH238629   0.683   1.033  20.413  0.1474  0.3989 -0.7814
 5713TIP3    H138630   0.723   1.120  20.407  1.8189 -0.3596 -1.2647
 5713TIP3    H238631   0.617   1.033  20.344  0.0733  1.3066 -0.7294
 5714TIP3   OH238632   1.175   2.965   5.538 -0.1378  0.1039  0.6035
 5714TIP3    H138633   1.107   2.897   5.539 -1.5766  1.4048 -1.2907
 5714TIP3    H238634   1.150   3.024   5.609  0.0657 -0.3440  1.0610
 5715TIP3   OH238635   0.378   2.655  51.807 -0.0314  0.2986  0.4848
 5715TIP3    H138636   0.425   2.699  51.736 -0.1452  0.5250  0.5488
 5715TIP3    H238637   0.368   2.565  51.777  1.1388  0.0399  0.8091
 5716TIP3   OH238638   3.329   1.647  16.829 -0.1422  0.0039 -0.0439
 5716TIP3    H138639   3.374   1.568  16.797 -0.9324  0.7089 -3.2075
 5716TIP3    H238640   3.264   1.667  16.762 -1.6341  2.0119  1.8528
 5717TIP3   OH238641   1.211   1.230  53.037  0.0846 -0.3623 -0.0153
 5717TIP3    H138642   1.276   1.285  53.080 -0.4388  0.5572 -0.3788
 5717TIP3    H238643   1.214   1.258  52.945 -0.4684 -0.6657 -0.1283
 5718TIP3   OH238644   1.584   2.117  47.674 -0.4666  0.3487  0.0065
 5718TIP3    H138645   1.560   2.028  47.701  0.4016 -0.1780 -0.9271
 5718TIP3    H238646   1.500   2.158  47.652 -0.7315 -0.7868 -1.1869
 5719TIP3   OH238647   2.719   1.560  21.891 -0.0601  0.5760  0.2063
 5719TIP3    H138648   2.729   1.652  21.915  0.3560  0.9358 -1.1963
 5719TIP3    H238649   2.747   1.512  21.968 -1.1546  1.6085  1.2933
 5720TIP3   OH238650   2.621   0.671  64.159  0.0230  0.5772 -0.4577
 5720TIP3    H138651   2.542   0.694  64.111 -1.0961  1.4580  1.6717
 5720TIP3    H238652   2.609   0.579  64.183 -0.5045  0.7718  0.0613
 5721TIP3   OH238653   1.362   2.610  21.465 -0.1189 -0.5917  0.8412
 5721TIP3    H138654   1.423   2.680  21.487 -0.3424  0.0824 -0.5964
 5721TIP3    H238655   1.280   2.635  21.506 -0.3549  0.3105 -0.1506
 5722TIP3   OH238656   3.126   1.499  49.866 -0.0131 -0.1586 -0.3581
 5722TIP3    H138657   3.220   1.484  49.859  0.2535  0.9220  0.6337
 5722TIP3    H238658   3.096   1.440  49.934 -0.2262 -1.1410 -1.2818
 5723TIP3   OH238659   1.385   2.920   4.868 -0.1716 -0.1043  0.0949
 5723TIP3    H138660   1.454   2.982   4.847 -1.4434  1.1593 -0.5538
 5723TIP3    H238661   1.325   2.924   4.793 -1.1968 -0.8036  0.8380
 5724TIP3   OH238662   2.707   2.810   3.301  0.2417  0.6141  0.0688
 5724TIP3    H138663   2.652   2.882   3.331 -0.4342 -0.3381  1.2174
 5724TIP3    H238664   2.757   2.784   3.379 -0.0329 -0.5911 -0.1366
 5725TIP3   OH238665   2.099   0.147   4.888  0.2527  0.1301  0.1883
 5725TIP3    H138666   2.099   0.170   4.981  0.0554 -0.1690  0.2663
 5725TIP3    H238667   2.108   0.230   4.842 -1.8305  0.5256  0.4164
 5726TIP3   OH238668   2.666   0.548  19.052 -0.2860  0.3725  0.4938
 5726TIP3    H138669   2.760   0.544  19.032  0.0401 -0.2601  2.0367
 5726TIP3    H238670   2.650   0.639  19.076  0.7347 -0.1870  3.6824
 5727TIP3   OH238671   2.359   0.126  46.639 -0.4062 -0.2095  1.0852
 5727TIP3    H138672   2.308   0.188  46.690 -0.4737  0.0823  0.6697
 5727TIP3    H238673   2.356   0.160  46.550  0.7011 -0.0619  1.0937
 5728TIP3   OH238674   0.162   1.474  45.328 -0.1709  0.2894 -0.6878
 5728TIP3    H138675   0.077   1.432  45.333 -1.1616  1.7877 -3.1944
 5728TIP3    H238676   0.178   1.506  45.416 -1.3980 -1.4165  0.2204
 5729TIP3   OH238677   1.355   1.788  53.876  0.2084  0.3993 -0.1074
 5729TIP3    H138678   1.322   1.723  53.815 -0.1781  0.5887 -0.0992
 5729TIP3    H238679   1.436   1.750  53.910 -0.7608 -0.7362  1.0129
 5730TIP3   OH238680   2.539   3.098  18.354 -0.1018 -0.0877 -0.9818
 5730TIP3    H138681   2.446   3.089  18.334 -0.3444  1.1882 -0.5617
 5730TIP3    H238682   2.556   3.192  18.347  1.4019 -0.3926 -2.0547
 5731TIP3   OH238683   1.565   1.282  60.391  0.2342 -0.1195 -0.0315
 5731TIP3    H138684   1.575   1.196  60.351  2.3471  0.3685 -0.6517
 5731TIP3    H238685   1.651   1.302  60.427 -0.8586  0.6652  2.3757
 5732TIP3   OH238686   2.418   1.252  61.712  0.4024 -0.4896 -0.0557
 5732TIP3    H138687   2.360   1.190  61.756 -0.0699 -0.6499 -0.8821
 5732TIP3    H238688   2.495   1.259  61.770 -1.0002  0.7955  1.7881
 5733TIP3   OH238689   0.091   0.888  12.619  0.5821 -0.0016  0.3060
 5733TIP3    H138690   0.130   0.919  12.537  0.2976 -0.3856  0.0201
 5733TIP3    H238691   0.040   0.811  12.593 -1.1236  1.0162  0.5130
 5734TIP3   OH238692   2.804   1.282  52.562 -0.7196 -0.3733 -0.4146
 5734TIP3    H138693   2.877   1.239  52.519 -1.4700 -0.6330 -1.4808
 5734TIP3    H238694   2.833   1.373  52.575  0.6365 -1.0038  1.2860
 5735TIP3   OH238695   0.409   1.871  49.529 -0.0430 -0.0917  0.4840
 5735TIP3    H138696   0.441   1.855  49.618 -2.2782 -2.9911  0.8974
 5735TIP3    H238697   0.472   1.825  49.473 -0.1926 -0.6929  0.8046
 5736TIP3   OH238698   3.321   3.301  50.369 -0.2542  0.0848  0.0601
 5736TIP3    H138699   3.368   3.221  50.347  0.3911  0.0948  1.2896
 5736TIP3    H238700   3.375   3.342  50.437 -2.4555 -0.3241  2.1753
 5737TIP3   OH238701   3.104   1.509  58.963 -1.0046 -0.0303 -0.9268
 5737TIP3    H138702   3.099   1.559  58.881 -0.8208 -2.2810 -2.3977
 5737TIP3    H238703   3.108   1.418  58.935  0.6457 -0.8228  1.5589
 5738TIP3   OH238704   0.808   0.008  61.788 -0.1094 -0.3229 -0.0153
 5738TIP3    H138705   0.788  -0.037  61.870  0.7291  0.5424  0.6895
 5738TIP3    H238706   0.797  -0.059  61.720 -2.0140 -0.7540  0.6500
 5739TIP3   OH238707   0.595   2.725  22.119  0.1660  0.3056  0.2293
 5739TIP3    H138708   0.584   2.740  22.025  2.9538 -0.8996 -0.3829
 5739TIP3    H238709   0.641   2.641  22.125  3.0148  1.8805  2.4709
 5740TIP3   OH238710   0.671   0.063  21.192 -0.4615  0.1028 -0.0915
 5740TIP3    H138711   0.652   0.109  21.274  0.3798 -0.8012  0.6409
 5740TIP3    H238712   0.755   0.020  21.208  0.1723  0.6469 -1.7634
 5741TIP3   OH238713   0.961   2.500  10.737 -0.0138 -0.0066  0.6913
 5741TIP3    H138714   0.951   2.405  10.731 -0.4612  0.0995 -0.4331
 5741TIP3    H238715   1.004   2.525  10.655 -1.9780  1.0148 -0.1020
 5742TIP3   OH238716   0.570   1.961  12.578 -0.2374  0.4657 -0.2445
 5742TIP3    H138717   0.575   1.903  12.502  1.9164  0.2965 -0.0461
 5742TIP3    H238718   0.524   2.039  12.547 -0.7411 -0.2329 -1.2823
 5743TIP3   OH238719   2.312   1.970  15.269  0.5007 -0.7288  0.0092
 5743TIP3    H138720   2.256   1.971  15.191  0.8369 -4.2538 -0.4555
 5743TIP3    H238721   2.258   2.009  15.338 -1.7331 -1.9805 -0.9248
 5744TIP3   OH238722   0.031   0.412   9.678  0.2351 -0.2902  0.1269
 5744TIP3    H138723   0.039   0.379   9.589  0.9893 -2.2465  0.8536
 5744TIP3    H238724   0.105   0.373   9.725  1.2562  2.5346  1.1302
 5745TIP3   OH238725   2.281   1.452  20.049  0.3764 -0.0105 -0.3014
 5745TIP3    H138726   2.300   1.484  19.960  0.7897  0.9674  0.1288
 5745TIP3    H238727   2.269   1.531  20.101  0.6490 -0.5666  0.6269
 5746TIP3   OH238728   2.121   0.895  52.442  0.0451  0.9941  0.2013
 5746TIP3    H138729   2.189   0.954  52.475  0.8731 -0.8165  1.9099
 5746TIP3    H238730   2.106   0.832  52.513 -2.8779  0.8278 -0.4191
 5747TIP3   OH238731   1.179   3.380  15.486 -0.3303  0.0272  0.2680
 5747TIP3    H138732   1.228   3.457  15.456 -0.3731  0.3210  0.9140
 5747TIP3    H238733   1.114   3.416  15.547  0.1883 -0.5996  1.2182
 5748TIP3   OH238734   2.656   2.540  17.041  0.0413  0.1728 -0.1707
 5748TIP3    H138735   2.588   2.533  16.974  0.0727 -2.2707 -0.0292
 5748TIP3    H238736   2.721   2.474  17.017 -0.0516 -0.9641  2.3257
 5749TIP3   OH238737   3.198   1.463  44.120 -0.5057 -0.1805  0.1440
 5749TIP3    H138738   3.176   1.393  44.182 -1.3745 -1.1338 -1.1808
 5749TIP3    H238739   3.145   1.537  44.149 -0.3317 -0.3687  0.9780
 5750TIP3   OH238740   2.626   2.531  63.907 -0.1651 -0.1038  0.1308
 5750TIP3    H138741   2.695   2.526  63.840 -0.7888 -0.5808 -0.4927
 5750TIP3    H238742   2.559   2.471  63.876  0.8679 -2.9123  2.7959
 5751TIP3   OH238743   2.570   2.446  59.678  0.7203 -0.3004 -0.1998
 5751TIP3    H138744   2.520   2.449  59.760  1.7183 -0.3627  0.4229
 5751TIP3    H238745   2.545   2.363  59.638  0.1695 -0.2354  0.0036
 5752TIP3   OH238746   0.534   1.191  58.973  0.0234 -0.2576 -0.4738
 5752TIP3    H138747   0.439   1.207  58.970  0.2226  0.9346 -1.3500
 5752TIP3    H238748   0.567   1.257  59.033  0.1747 -1.5149  0.8641
 5753TIP3   OH238749   3.018   2.863  16.122  0.1436  0.1003 -0.5338
 5753TIP3    H138750   2.944   2.803  16.121  1.4718 -1.6291 -0.7903
 5753TIP3    H238751   3.046   2.866  16.214  0.6569 -0.4658 -0.6625
 5754TIP3   OH238752   3.136   2.284  14.524  0.4882 -0.3511 -0.0990
 5754TIP3    H138753   3.090   2.205  14.496  0.3810 -0.4863  0.4507
 5754TIP3    H238754   3.116   2.291  14.617 -0.5657  1.0168 -0.3876
 5755TIP3   OH238755   0.500   1.414  45.371 -0.2033 -0.6032 -0.2670
 5755TIP3    H138756   0.487   1.507  45.388 -0.9413 -0.3932 -1.8011
 5755TIP3    H238757   0.571   1.411  45.306  0.4016 -1.1754  0.4001
 5756TIP3   OH238758   2.674   1.998  12.386  0.4250 -0.0427  0.3807
 5756TIP3    H138759   2.715   2.036  12.463 -0.3319  1.1111  0.2468
 5756TIP3    H238760   2.698   2.056  12.314 -2.4261  1.4618  0.5153
 5757TIP3   OH238761   2.862   1.503  22.123 -0.1217  0.0444  0.1365
 5757TIP3    H138762   2.804   1.482  22.196 -0.3764  0.2195 -0.0141
 5757TIP3    H238763   2.945   1.526  22.165  0.0260 -0.8006  0.3189
 5758TIP3   OH238764   0.266   2.233  42.749  0.2823 -0.1855 -0.4555
 5758TIP3    H138765   0.331   2.164  42.739 -0.6432 -0.8981 -1.9526
 5758TIP3    H238766   0.216   2.231  42.667  0.2052  2.2570 -0.5504
 5759TIP3   OH238767   2.815   2.534   2.227  0.9005  0.0889 -0.7366
 5759TIP3    H138768   2.816   2.450   2.181  0.4712  0.4793 -1.4795
 5759TIP3    H238769   2.829   2.599   2.158 -2.0995  0.8635 -0.7270
 5760TIP3   OH238770   0.763   1.635  60.632  0.0510  0.0127  0.0067
 5760TIP3    H138771   0.675   1.634  60.669  0.2023 -0.0876  0.3743
 5760TIP3    H238772   0.810   1.567  60.681 -0.2914 -1.5825 -1.7375
 5761TIP3   OH238773   0.050   0.510   9.356 -0.5367  0.2067  0.3723
 5761TIP3    H138774   0.059   0.501   9.261 -0.7182  2.1822  0.1285
 5761TIP3    H238775  -0.004   0.435   9.382 -1.1034  0.0372 -1.1804
 5762TIP3   OH238776   0.373   2.907   9.129 -0.4062  0.4712  0.2900
 5762TIP3    H138777   0.280   2.930   9.121 -0.9929 -1.3953  1.0321
 5762TIP3    H238778   0.390   2.849   9.054 -0.1206  0.0403  0.6780
 5763TIP3   OH238779   2.842   1.748  10.556 -0.4434 -0.4831  0.3660
 5763TIP3    H138780   2.844   1.843  10.548  1.7704 -0.4921 -0.0156
 5763TIP3    H238781   2.929   1.725  10.590 -0.6546 -2.4014 -0.2451
 5764TIP3   OH238782   2.042   2.978  53.220  0.1552 -0.4333  0.2613
 5764TIP3    H138783   2.077   2.889  53.215  1.6301  0.0965  0.7045
 5764TIP3    H238784   1.974   2.973  53.288  0.4125 -1.1587  0.4748
 5765TIP3   OH238785   3.152   3.220  60.719 -0.2038 -0.0362  0.1420
 5765TIP3    H138786   3.073   3.243  60.668 -0.6843  0.8101  1.2235
 5765TIP3    H238787   3.216   3.194  60.653 -1.2004 -0.1522 -0.8104
 5766TIP3   OH238788   2.228   1.165  62.442  0.3004  0.5245  0.3310
 5766TIP3    H138789   2.209   1.228  62.373 -0.6807 -1.7567 -1.6368
 5766TIP3    H238790   2.312   1.125  62.416  0.1232 -0.0675  0.6438
 5767TIP3   OH238791   2.351   0.915   7.330 -0.1986  0.5625 -0.1995
 5767TIP3    H138792   2.360   0.862   7.410 -3.0715  1.1871  0.6464
 5767TIP3    H238793   2.330   0.851   7.262  0.8207  0.1864 -0.1894
 5768TIP3   OH238794   2.973   2.338  22.636 -0.1639  0.4140 -0.3031
 5768TIP3    H138795   2.961   2.433  22.644  0.1479  0.3732  1.0152
 5768TIP3    H238796   2.991   2.324  22.543  0.1031  1.6894 -0.4731
 5769TIP3   OH238797   1.970   0.195  25.998  0.6151  0.1454  0.0314
 5769TIP3    H138798   1.961   0.133  26.070 -1.3474 -0.9154 -1.0277
 5769TIP3    H238799   1.999   0.277  26.039 -0.0586 -0.5300  1.9410
 5770TIP3   OH238800   0.800   3.273  61.609 -0.2646  0.6558  0.5378
 5770TIP3    H138801   0.797   3.190  61.657  2.0006  0.8635  1.1517
 5770TIP3    H238802   0.831   3.248  61.521 -1.2915  0.6591  0.1685
 5771TIP3   OH238803   1.069   2.197  55.813 -0.2747  0.5102 -0.1753
 5771TIP3    H138804   1.036   2.118  55.856 -2.1721  1.4638  0.2375
 5771TIP3    H238805   1.062   2.266  55.879  0.4588  1.2306 -0.8186
 5772TIP3   OH238806   2.475   1.691  59.073 -0.0665 -0.3698  0.2838
 5772TIP3    H138807   2.522   1.774  59.062 -0.2790 -0.0941  1.3697
 5772TIP3    H238808   2.519   1.648  59.147  0.6671 -1.6865 -0.8474
 5773TIP3   OH238809   3.080   0.900   8.790 -0.0541 -0.0040  0.4154
 5773TIP3    H138810   3.044   0.831   8.734  0.2922  1.8119 -2.2533
 5773TIP3    H238811   3.005   0.928   8.843 -0.7206 -1.0234  0.0550
 5774TIP3   OH238812   1.616   1.699   5.954 -0.1320  0.8124  0.2553
 5774TIP3    H138813   1.681   1.629   5.965 -1.8127 -1.1600 -1.6557
 5774TIP3    H238814   1.668   1.775   5.928  1.5344 -0.4277 -0.2257
 5775TIP3   OH238815   1.299   2.150  60.189 -0.1262  0.0827 -0.1200
 5775TIP3    H138816   1.209   2.152  60.220 -0.2190 -1.0494 -0.2668
 5775TIP3    H238817   1.352   2.153  60.269 -0.3481 -1.4311  0.1174
 5776TIP3   OH238818   2.350   0.138  53.026 -0.1866 -0.0486 -1.1132
 5776TIP3    H138819   2.428   0.183  53.060 -0.0015 -0.4141 -1.0539
 5776TIP3    H238820   2.278   0.170  53.081 -0.0661  0.2109 -1.1042
 5777TIP3   OH238821   3.238   0.562   6.882  0.2912 -0.0108  0.4066
 5777TIP3    H138822   3.280   0.562   6.796  3.2153  1.4823  1.6950
 5777TIP3    H238823   3.146   0.584   6.863  0.6837 -0.3620 -2.3570
 5778TIP3   OH238824   2.029   1.798  50.918  0.2105  0.9720 -0.0806
 5778TIP3    H138825   2.093   1.868  50.908  0.1476  1.1447  0.6780
 5778TIP3    H238826   2.041   1.743  50.840  1.1420  1.1099 -0.0456
 5779TIP3   OH238827   2.228   2.871  26.891 -0.0050 -0.6415 -0.3522
 5779TIP3    H138828   2.217   2.804  26.823 -1.1936  0.8798 -1.7372
 5779TIP3    H238829   2.139   2.904  26.907  0.2589 -0.8232  1.8616
 5780TIP3   OH238830   1.319   3.146  63.208  0.1918 -0.4056 -0.5603
 5780TIP3    H138831   1.240   3.093  63.223  0.0183  0.4648  2.0744
 5780TIP3    H238832   1.286   3.236  63.202  0.9237 -0.0985 -0.0261
 5781TIP3   OH238833   3.050   0.868  50.078  0.0303  0.0588  0.6565
 5781TIP3    H138834   3.019   0.910  49.998 -0.3321 -1.6555 -0.1547
 5781TIP3    H238835   3.006   0.783  50.080  0.1556 -0.0230  2.6029
 5782TIP3   OH238836   0.841   1.880  37.948 -0.5870  0.3323 -0.2677
 5782TIP3    H138837   0.935   1.889  37.930 -0.6236  2.2121  0.2244
 5782TIP3    H238838   0.834   1.884  38.043 -1.1216 -0.5970 -0.2560
 5783TIP3   OH238839   1.488   0.314  12.210  0.1252  0.5954 -1.1264
 5783TIP3    H138840   1.526   0.354  12.288 -1.1926 -0.7288  0.2709
 5783TIP3    H238841   1.455   0.388  12.159  0.1686  1.4525  0.0439
 5784TIP3   OH238842   1.289   0.697  11.485 -0.2518  0.5682 -0.2800
 5784TIP3    H138843   1.358   0.675  11.422 -1.4825 -0.0692 -1.4720
 5784TIP3    H238844   1.278   0.619  11.538 -0.5942  0.3646 -0.6384
 5785TIP3   OH238845   2.049   3.385  62.632 -0.4030 -0.3067 -0.2866
 5785TIP3    H138846   2.137   3.390  62.669 -0.2011 -0.7345 -0.6999
 5785TIP3    H238847   2.046   3.457  62.569  0.6788 -1.9735 -2.3897
 5786TIP3   OH238848   1.920   0.547   7.508  0.3116  0.2110  0.1488
 5786TIP3    H138849   1.933   0.567   7.601  2.8695 -0.7595  0.0785
 5786TIP3    H238850   2.008   0.552   7.470 -0.5111 -0.5713 -1.9928
 5787TIP3   OH238851   2.157   3.124   3.536 -0.1114 -0.2771  0.1454
 5787TIP3    H138852   2.244   3.122   3.575  0.7587 -0.4846 -1.6991
 5787TIP3    H238853   2.133   3.217   3.535  0.3638 -0.1525  0.1100
 5788TIP3   OH238854   0.972   2.843  12.529  0.1504  0.4686  0.2216
 5788TIP3    H138855   1.062   2.859  12.502 -0.3097 -2.5346 -4.1248
 5788TIP3    H238856   0.970   2.751  12.554 -1.6264  0.6083  0.7435
 5789TIP3   OH238857   0.308   1.237   3.662  0.2205  0.6232  0.1809
 5789TIP3    H138858   0.290   1.331   3.655 -0.7816  0.3351 -1.9375
 5789TIP3    H238859   0.229   1.195   3.630  0.4581 -0.9895  1.5864
 5790TIP3   OH238860   0.296   1.324  53.425  0.1011 -0.4934  0.2415
 5790TIP3    H138861   0.329   1.414  53.425 -0.1872 -0.3848  1.1861
 5790TIP3    H238862   0.267   1.309  53.515 -0.8737 -1.1598 -0.1750
 5791TIP3   OH238863   1.831   1.928  54.196  0.4285 -0.2433  0.0142
 5791TIP3    H138864   1.817   1.977  54.277 -0.7352 -0.5331  0.0186
 5791TIP3    H238865   1.892   1.981  54.145  1.0481  0.0191  1.0078
 5792TIP3   OH238866   1.489   0.862  14.566 -0.4013  0.7862  0.0529
 5792TIP3    H138867   1.490   0.943  14.618  2.3216  0.7669  0.1685
 5792TIP3    H238868   1.580   0.850  14.539 -0.9943 -1.5175 -1.1480
 5793TIP3   OH238869   3.153   0.408  45.893 -0.7316 -0.6446  0.0440
 5793TIP3    H138870   3.065   0.370  45.894 -1.3762  0.5773 -2.6391
 5793TIP3    H238871   3.199   0.362  45.822  0.4517 -0.5127  0.6914
 5794TIP3   OH238872   2.838   0.861  49.472 -0.5830  0.1831  0.1910
 5794TIP3    H138873   2.837   0.773  49.436 -0.2123 -0.3340  1.4015
 5794TIP3    H238874   2.920   0.899  49.441 -1.2557  0.5258 -1.2554
 5795TIP3   OH238875   2.988   2.676  17.434  0.2994  0.4490  0.3874
 5795TIP3    H138876   2.991   2.764  17.395 -1.2130  0.9372  1.2969
 5795TIP3    H238877   3.046   2.682  17.510 -0.5841  1.0059  1.0443
 5796TIP3   OH238878   3.240   0.524   4.807  0.2419  0.5552  0.0835
 5796TIP3    H138879   3.284   0.491   4.886 -0.3694  0.6477  0.4725
 5796TIP3    H238880   3.267   0.465   4.737 -0.2821 -0.3480  0.6281
 5797TIP3   OH238881   1.621   1.269  48.989 -0.1440 -0.2264  0.0986
 5797TIP3    H138882   1.656   1.185  48.959  1.1743  0.4129 -0.2229
 5797TIP3    H238883   1.656   1.280  49.077  1.5261  0.9478 -0.6445
 5798TIP3   OH238884   1.405   3.170   8.847  0.4551  0.0035 -0.3767
 5798TIP3    H138885   1.316   3.136   8.833 -0.4698  1.5756  1.2625
 5798TIP3    H238886   1.432   3.203   8.762 -0.6117 -0.3293 -0.8579
 5799TIP3   OH238887   0.059   1.737  55.705 -0.0733 -0.3832  0.2768
 5799TIP3    H138888  -0.004   1.804  55.677  0.8747  1.1311  1.5595
 5799TIP3    H238889   0.006   1.659  55.720 -1.5928  0.7207  0.9212
 5800TIP3   OH238890   2.590   1.757  56.475 -0.0270 -0.5346 -0.6887
 5800TIP3    H138891   2.526   1.825  56.497  1.3448  0.4255  0.5394
 5800TIP3    H238892   2.539   1.676  56.472 -1.2804  0.1842  0.3498
 5801TIP3   OH238893   1.182   1.402  15.295  0.2784 -0.0619  0.1293
 5801TIP3    H138894   1.221   1.396  15.383 -0.1119 -1.6510  0.2273
 5801TIP3    H238895   1.089   1.416  15.312  0.1757 -0.5480 -0.0119
 5802TIP3   OH238896   0.990   1.512   0.484  0.1590  0.3440  0.0131
 5802TIP3    H138897   1.034   1.439   0.442  1.2359  0.9161  0.1207
 5802TIP3    H238898   0.960   1.477   0.568 -1.7571 -0.7268 -1.0345
 5803TIP3   OH238899   0.397   2.909   6.959  0.0215 -0.2878  0.1255
 5803TIP3    H138900   0.318   2.957   6.932  0.5085  0.8318  0.6531
 5803TIP3    H238901   0.376   2.874   7.045  0.4303  0.8369  0.6966
 5804TIP3   OH238902   0.627   2.847  16.868 -0.3942 -0.7795  0.4490
 5804TIP3    H138903   0.676   2.926  16.846 -0.9484 -0.4280  0.4481
 5804TIP3    H238904   0.656   2.782  16.804  1.0765 -0.9866  1.2965
 5805TIP3   OH238905   2.996   0.107  48.525 -0.5761 -0.4259 -0.3445
 5805TIP3    H138906   3.037   0.184  48.487 -1.0006 -0.5640 -1.1078
 5805TIP3    H238907   3.057   0.077  48.592  0.4830 -0.5280 -1.3311
 5806TIP3   OH238908   0.481   2.614  20.218  0.4528 -0.0300  0.1291
 5806TIP3    H138909   0.555   2.557  20.235  0.6938 -0.2431 -1.4700
 5806TIP3    H238910   0.462   2.655  20.302 -0.2361 -3.0168  1.5323
 5807TIP3   OH238911   3.081   2.211  22.383 -0.2169 -0.2119  0.9168
 5807TIP3    H138912   3.160   2.156  22.392 -0.2909 -1.2437 -2.9494
 5807TIP3    H238913   3.113   2.292  22.344 -0.7032  0.7583  2.4700
 5808TIP3   OH238914   3.150   1.623  67.368  0.4145  0.4318 -0.2890
 5808TIP3    H138915   3.147   1.569  67.447  0.0826  0.9531  0.0497
 5808TIP3    H238916   3.075   1.593  67.316  0.1974  0.6025 -0.0763
 5809TIP3   OH238917   3.165   3.101  18.656 -0.0685  0.1388 -0.0945
 5809TIP3    H138918   3.114   3.143  18.725 -0.6824 -0.2011 -0.3347
 5809TIP3    H238919   3.113   3.112  18.577 -0.0574 -0.7268 -0.2339
 5810TIP3   OH238920   2.051   1.872  47.404 -0.5584  0.2732  0.1504
 5810TIP3    H138921   2.112   1.937  47.368  0.3129 -0.4424  0.2956
 5810TIP3    H238922   1.965   1.906  47.382 -0.0957  0.2895 -1.9029
 5811TIP3   OH238923   3.292   2.259   9.055  0.3789  0.1601 -0.0393
 5811TIP3    H138924   3.338   2.197   8.998  0.1258  0.7870 -0.9516
 5811TIP3    H238925   3.225   2.207   9.099  1.8826 -0.7575  1.2564
 5812TIP3   OH238926   2.673   0.379  66.319  0.1743 -0.2444 -0.0269
 5812TIP3    H138927   2.766   0.395  66.300  0.2518  2.2031  1.9051
 5812TIP3    H238928   2.672   0.349  66.410 -0.9737  1.7537  0.6904
 5813TIP3   OH238929   3.068   2.595  28.012  0.0608 -0.3321  0.7299
 5813TIP3    H138930   3.043   2.597  27.919  0.8413  0.0334  0.5151
 5813TIP3    H238931   3.076   2.687  28.037  2.4014 -0.3828  0.4176
 5814TIP3   OH238932   2.595   2.305  44.372  0.3161  0.1937  0.2143
 5814TIP3    H138933   2.643   2.374  44.418 -1.2023  0.2116  1.8587
 5814TIP3    H238934   2.516   2.348  44.339  1.0038  0.0033 -1.8757
 5815TIP3   OH238935   2.103   0.209   1.124  0.3653  0.2772  0.5532
 5815TIP3    H138936   2.040   0.281   1.123  1.3445  1.1451 -0.9648
 5815TIP3    H238937   2.185   0.247   1.092  1.0010 -1.4313  0.0242
 5816TIP3   OH238938   1.314   0.668  10.392 -0.6631 -0.5152  0.2337
 5816TIP3    H138939   1.220   0.681  10.379 -0.8041 -0.9427  0.7830
 5816TIP3    H238940   1.320   0.617  10.473  0.1693  1.8349  1.7599
 5817TIP3   OH238941   1.791   1.220   2.433 -0.2182 -0.0626  0.2482
 5817TIP3    H138942   1.883   1.242   2.423 -0.1111 -0.5745  0.0801
 5817TIP3    H238943   1.784   1.183   2.521 -0.3733  0.5185  0.4824
 5818TIP3   OH238944   0.718   2.440  57.058 -0.1704 -0.7855  0.0540
 5818TIP3    H138945   0.784   2.376  57.083  0.3308 -0.2191  0.1888
 5818TIP3    H238946   0.758   2.525  57.076 -0.8422 -0.4303 -0.0858
 5819TIP3   OH238947   1.282   0.153  60.102 -0.4607  0.5116 -0.2482
 5819TIP3    H138948   1.271   0.071  60.053 -1.1700  0.3471  0.1765
 5819TIP3    H238949   1.321   0.126  60.185 -1.0559  0.5543  0.0483
 5820TIP3   OH238950   0.173   1.599  43.675 -0.1732  0.4101 -0.5483
 5820TIP3    H138951   0.085   1.573  43.650  0.3512 -0.0996 -1.9859
 5820TIP3    H238952   0.201   1.532  43.738 -1.1796  1.1991  0.8030
 5821TIP3   OH238953   2.092   0.816  56.464 -0.6096 -0.4188  0.5514
 5821TIP3    H138954   2.014   0.871  56.457  0.1689  0.9304  1.8388
 5821TIP3    H238955   2.080   0.767  56.545 -0.7112 -1.2224  0.0637
 5822TIP3   OH238956   3.034   0.053  55.812 -0.3486 -0.2372 -0.3611
 5822TIP3    H138957   3.012  -0.021  55.869  0.5950 -0.3076 -0.0630
 5822TIP3    H238958   2.950   0.085  55.780 -0.9343 -0.0480  1.2681
 5823TIP3   OH238959   1.148   2.860  12.298  0.1772  0.2562 -0.4341
 5823TIP3    H138960   1.072   2.809  12.270 -0.7340  1.5089 -0.3156
 5823TIP3    H238961   1.189   2.888  12.216  0.6045 -0.5151 -0.4992
 5824TIP3   OH238962   3.037   2.968  53.620  0.0615 -0.1194  0.1509
 5824TIP3    H138963   2.993   3.034  53.566 -0.0311 -0.2074  0.1205
 5824TIP3    H238964   3.112   2.940  53.569 -0.0317 -0.2099  0.0643
 5825TIP3   OH238965   0.298   1.890  14.596  0.4495 -0.0096 -0.0968
 5825TIP3    H138966   0.375   1.936  14.561  0.7407  1.1565  1.9169
 5825TIP3    H238967   0.228   1.956  14.593  0.2425 -0.1916  0.5861
 5826TIP3   OH238968   3.080   2.340  29.954 -0.4637  0.3035  0.4820
 5826TIP3    H138969   3.061   2.246  29.954 -0.6840  0.3282 -0.6322
 5826TIP3    H238970   2.993   2.382  29.954 -0.4298  0.4581 -1.5639
 5827TIP3   OH238971   2.651   3.061   7.685  0.0192  0.1122 -0.7345
 5827TIP3    H138972   2.735   3.020   7.709 -0.0682  1.6933  2.7986
 5827TIP3    H238973   2.670   3.155   7.682 -1.9455  0.7420  2.3443
 5828TIP3   OH238974   0.155   0.216  52.376 -0.3675 -0.4672  0.2209
 5828TIP3    H138975   0.232   0.263  52.409  0.3646 -1.1388 -0.4789
 5828TIP3    H238976   0.160   0.130  52.418  0.0452 -0.9928 -0.8646
 5829TIP3   OH238977   1.342   0.644  47.962 -0.0342  0.1652  0.0488
 5829TIP3    H138978   1.434   0.667  47.974  0.1120 -0.4991  0.2584
 5829TIP3    H238979   1.295   0.727  47.962  0.4683  0.4528  0.8257
 5830TIP3   OH238980   1.258   2.223  37.224 -0.3351 -0.0072 -0.6075
 5830TIP3    H138981   1.169   2.191  37.236 -0.3060  0.4048  0.9578
 5830TIP3    H238982   1.308   2.146  37.197 -1.1974 -0.1759 -1.8427
 5831TIP3   OH238983   0.517   0.518  60.596  0.2362 -0.1522  0.0849
 5831TIP3    H138984   0.515   0.423  60.606 -0.1392 -0.2535 -0.8881
 5831TIP3    H238985   0.432   0.540  60.558 -0.5413  0.8245  2.2431
 5832TIP3   OH238986   0.856   1.146  46.806  0.6924 -0.6166  0.1391
 5832TIP3    H138987   0.855   1.226  46.859 -1.0765 -1.2890  1.2134
 5832TIP3    H238988   0.834   1.176  46.718 -2.0190 -0.0883  0.9159
 5833TIP3   OH238989   1.118   2.306  45.375  0.4800  0.4855 -0.1106
 5833TIP3    H138990   1.087   2.391  45.407 -2.0076  0.4801 -2.2143
 5833TIP3    H238991   1.200   2.326  45.330 -0.0321  1.7997 -0.5221
 5834TIP3   OH238992   0.782   2.831  58.563 -0.3444 -0.3288  0.1824
 5834TIP3    H138993   0.846   2.776  58.517 -0.8044 -1.2534  0.6254
 5834TIP3    H238994   0.762   2.783  58.643  1.2291  1.7206  1.9384
 5835TIP3   OH238995   1.747   2.041  47.125 -0.1245  0.1998 -0.8331
 5835TIP3    H138996   1.670   2.096  47.135 -0.0182  0.1389  0.5132
 5835TIP3    H238997   1.721   1.955  47.158  0.5781  0.2524 -0.0852
 5836TIP3   OH238998   2.868   3.129  55.648 -0.0454  0.3540 -0.1453
 5836TIP3    H138999   2.960   3.152  55.658  0.9513 -2.8215 -1.1169
 5836TIP3    H239000   2.833   3.130  55.737  1.1316  0.7629  0.3241
 5837TIP3   OH239001   1.527   1.127  12.646 -0.0096 -0.4525 -0.5603
 5837TIP3    H139002   1.548   1.215  12.616 -3.3596  0.7304  0.0514
 5837TIP3    H239003   1.604   1.100  12.695  0.7491  2.6589  0.2311
 5838TIP3   OH239004   0.298   1.522   7.373  0.0726 -0.2922  0.0913
 5838TIP3    H139005   0.206   1.547   7.363 -0.3045  0.7893  4.4413
 5838TIP3    H239006   0.295   1.427   7.381 -0.9111 -0.1738  1.5357
 5839TIP3   OH239007   0.821   0.629  59.289 -0.4764  0.0670 -0.0561
 5839TIP3    H139008   0.871   0.572  59.231 -0.7612 -0.8123  0.5287
 5839TIP3    H239009   0.761   0.677  59.231  1.5672  1.7771 -0.8762
 5840TIP3   OH239010   3.304   1.778  42.726  0.1991 -0.7777  0.0611
 5840TIP3    H139011   3.386   1.826  42.736 -0.6074  0.7567 -0.3651
 5840TIP3    H239012   3.285   1.782  42.632 -0.1735 -1.4733  0.0941
 5841TIP3   OH239013   2.152   2.048  26.553 -0.1475 -0.1753 -0.6001
 5841TIP3    H139014   2.208   2.053  26.475  0.5974  0.0140 -0.0702
 5841TIP3    H239015   2.196   2.104  26.617 -0.2172 -1.1094  0.2823
 5842TIP3   OH239016   2.582   1.589  13.604 -0.1306  0.0434  0.3711
 5842TIP3    H139017   2.626   1.535  13.670  0.6588 -0.0296 -0.1845
 5842TIP3    H239018   2.598   1.679  13.632 -1.0259  0.0009  1.0376
 5843TIP3   OH239019   2.805   1.133  10.400 -0.0828  0.0950  0.3726
 5843TIP3    H139020   2.809   1.163  10.490  0.8718  2.5871 -0.4033
 5843TIP3    H239021   2.888   1.086  10.386 -0.6813 -1.1971  1.0343
 5844TIP3   OH239022   2.466   0.423  21.040 -0.1106  0.3221 -0.3872
 5844TIP3    H139023   2.442   0.414  21.132 -1.2102  0.0266 -0.6872
 5844TIP3    H239024   2.502   0.511  21.033 -0.2851  0.4558  0.2743
 5845TIP3   OH239025   2.168   2.177   1.689  0.3648  0.3751  0.0292
 5845TIP3    H139026   2.226   2.101   1.684 -0.0216  0.1169 -0.7489
 5845TIP3    H239027   2.085   2.142   1.723 -0.0942  0.2525 -1.1468
 5846TIP3   OH239028   1.769   3.189  58.188 -0.2583 -0.6677  0.4056
 5846TIP3    H139029   1.756   3.202  58.094 -2.0375 -0.7686  0.6186
 5846TIP3    H239030   1.694   3.137  58.216 -1.5989  2.0909  2.4791
 5847TIP3   OH239031   1.444   1.687  52.665 -0.7410 -0.4425 -0.0639
 5847TIP3    H139032   1.501   1.619  52.700 -1.3555 -1.2585 -0.5926
 5847TIP3    H239033   1.387   1.640  52.603 -1.2698  0.5315 -0.3330
 5848TIP3   OH239034   2.245   0.387  20.548 -0.4221  0.3260  0.1549
 5848TIP3    H139035   2.204   0.389  20.635 -1.0058  3.2281 -0.0956
 5848TIP3    H239036   2.177   0.418  20.489  1.2119  2.5484 -0.6865
 5849TIP3   OH239037   0.736   0.229  45.431  0.2514 -0.3317  0.6217
 5849TIP3    H139038   0.672   0.294  45.461  0.7551  0.7371 -0.5471
 5849TIP3    H239039   0.811   0.242  45.489  0.2184 -0.1217  0.6196
 5850TIP3   OH239040   2.171   1.096   1.284  0.1734 -0.3165  0.3198
 5850TIP3    H139041   2.167   1.169   1.222 -0.2183 -1.4889 -1.0862
 5850TIP3    H239042   2.097   1.040   1.259  0.8427 -1.5013  0.9606
 5851TIP3   OH239043   0.618   0.908   9.334  0.2372 -0.0722  0.5046
 5851TIP3    H139044   0.700   0.920   9.381  1.5879 -2.5315 -0.9968
 5851TIP3    H239045   0.552   0.952   9.388  1.9249 -1.2346  3.7697
 5852TIP3   OH239046   2.426   1.769  51.150  0.5381 -0.3199  0.2015
 5852TIP3    H139047   2.336   1.789  51.174  1.5153  2.7902  1.8200
 5852TIP3    H239048   2.437   1.808  51.063  0.1248 -1.4971 -0.3966
 5853TIP3   OH239049   1.424   0.872   0.232  0.6160  0.1712 -0.2022
 5853TIP3    H139050   1.468   0.792   0.205  1.1111  0.8975 -1.6955
 5853TIP3    H239051   1.350   0.843   0.284  0.9144 -1.2336 -0.5228
 5854TIP3   OH239052   0.870   1.723  12.234  0.1097  0.3008 -0.2993
 5854TIP3    H139053   0.875   1.816  12.215 -0.9072  0.6436  0.9838
 5854TIP3    H239054   0.802   1.689  12.176  0.1634  0.4455 -0.4471
 5855TIP3   OH239055   2.081   2.450  16.916 -0.2021  0.4604 -0.0904
 5855TIP3    H139056   2.095   2.457  17.010  0.6879  0.6504 -0.2267
 5855TIP3    H239057   2.050   2.360  16.903 -0.0868  0.3547  0.3586
 5856TIP3   OH239058   2.129   2.968   5.743 -0.1873  0.4500 -0.2624
 5856TIP3    H139059   2.051   2.922   5.772 -0.2167 -0.1958 -1.3235
 5856TIP3    H239060   2.109   2.994   5.653 -0.4873  3.2360  0.4909
 5857TIP3   OH239061   2.532   0.407  52.041  0.2239 -0.0483 -0.2249
 5857TIP3    H139062   2.519   0.436  52.131  1.4214 -2.4734  0.8107
 5857TIP3    H239063   2.619   0.439  52.017  0.6718 -0.9340  0.1696
 5858TIP3   OH239064   3.056   1.842  48.581  0.3965  0.0151  0.2926
 5858TIP3    H139065   3.035   1.793  48.660  1.1562 -2.1606 -0.7729
 5858TIP3    H239066   3.012   1.926  48.593 -3.1152 -1.7222  1.1851
 5859TIP3   OH239067   1.538   0.011   5.342  0.2059 -0.0590 -0.6149
 5859TIP3    H139068   1.575  -0.066   5.300  2.1246  1.8630 -2.7961
 5859TIP3    H239069   1.491   0.056   5.272 -0.5166  0.9628  0.4877
 5860TIP3   OH239070   2.385   0.535   5.943  0.3236  0.3309 -0.2716
 5860TIP3    H139071   2.317   0.494   5.889 -0.3687  1.8301 -0.5724
 5860TIP3    H239072   2.338   0.568   6.020  0.6894  1.4307 -0.5110
 5861TIP3   OH239073   2.531   3.004   4.566  0.4533 -0.3616 -0.1809
 5861TIP3    H139074   2.443   2.993   4.601  0.0441  1.6979 -0.4410
 5861TIP3    H239075   2.556   2.917   4.536 -1.5720 -0.9497 -0.2843
 5862TIP3   OH239076   2.737   0.634  52.649  0.0502  0.8330 -0.1251
 5862TIP3    H139077   2.661   0.576  52.653 -1.5804  2.8444 -0.1835
 5862TIP3    H239078   2.756   0.642  52.556  0.9159 -0.3480 -0.0657
 5863TIP3   OH239079   2.924   0.374   2.537 -0.4537  0.2450 -0.2680
 5863TIP3    H139080   2.853   0.432   2.564 -0.8678 -0.5452  0.3788
 5863TIP3    H239081   3.001   0.404   2.586 -0.6075  0.4078 -0.1296
 5864TIP3   OH239082   2.964   3.113  54.739 -0.5839  0.5758 -0.2831
 5864TIP3    H139083   2.955   3.031  54.787  0.3274 -0.9136 -2.4480
 5864TIP3    H239084   2.907   3.103  54.663 -1.3989  2.5047  0.0095
 5865TIP3   OH239085   1.457   2.630  64.769  0.2032 -0.2420  0.2278
 5865TIP3    H139086   1.400   2.698  64.803  1.2584  0.7768  0.0258
 5865TIP3    H239087   1.400   2.576  64.714 -0.4723  1.0210 -0.3505
 5866TIP3   OH239088   2.162   3.081  27.258 -0.0419  0.0090  0.3759
 5866TIP3    H139089   2.100   3.153  27.248 -0.1707  0.3460  3.0120
 5866TIP3    H239090   2.209   3.101  27.339  2.4524 -1.0501 -0.7072
 5867TIP3   OH239091   2.950   2.921   0.087 -0.0063 -0.3031  0.0411
 5867TIP3    H139092   2.883   2.958   0.030  1.1531 -1.5393 -2.2390
 5867TIP3    H239093   2.976   2.839   0.045  1.2455 -1.0607  2.1265
 5868TIP3   OH239094   0.604   2.628  50.884 -0.0791  0.2950  0.0247
 5868TIP3    H139095   0.619   2.704  50.829 -0.1099 -0.3409 -0.8786
 5868TIP3    H239096   0.596   2.664  50.973 -0.8884  1.4273 -0.4744
 5869TIP3   OH239097   2.832   0.221   6.814 -0.0129  0.5371 -0.1041
 5869TIP3    H139098   2.770   0.288   6.843  0.5231  0.9980 -0.0190
 5869TIP3    H239099   2.912   0.269   6.792  0.8671 -0.2026  1.3366
 5870TIP3   OH239100   1.814   0.641  61.903 -0.3826 -0.2213 -0.6356
 5870TIP3    H139101   1.811   0.735  61.921 -0.5286 -0.4190  0.4927
 5870TIP3    H239102   1.778   0.601  61.982  0.5334 -1.2682 -0.7203
 5871TIP3   OH239103   0.071   2.308  18.520  0.6225 -0.0356  0.3943
 5871TIP3    H139104   0.124   2.237  18.554  2.0360  1.2983  1.0830
 5871TIP3    H239105   0.075   2.299  18.424 -0.1160 -1.4760  0.4775
 5872TIP3   OH239106   3.243   0.182  10.580  0.2611  0.5202 -0.6242
 5872TIP3    H139107   3.328   0.151  10.549  1.1648  1.2681  0.9828
 5872TIP3    H239108   3.258   0.204  10.672 -2.1647 -1.2588  0.3118
 5873TIP3   OH239109   1.122   0.354  63.997 -0.2765  0.0571 -0.0559
 5873TIP3    H139110   1.190   0.359  64.064  0.0768 -1.2469 -0.3054
 5873TIP3    H239111   1.040   0.349  64.047 -0.2923  2.2181  0.2422
 5874TIP3   OH239112   1.882   1.722  50.170 -0.1302 -0.0916  0.3953
 5874TIP3    H139113   1.877   1.817  50.161  1.0769 -0.1778 -2.0989
 5874TIP3    H239114   1.970   1.706  50.202 -0.4433 -0.3690  1.1275
 5875TIP3   OH239115   0.706   1.981   7.575 -0.3559  0.1469 -0.6830
 5875TIP3    H139116   0.698   2.072   7.545 -1.0860  0.5375  0.5984
 5875TIP3    H239117   0.616   1.956   7.597 -0.1125 -0.7872 -0.7254
 5876TIP3   OH239118   3.205   0.801   1.705  0.3560  0.0531 -0.4039
 5876TIP3    H139119   3.295   0.793   1.737  0.3751  0.5749 -0.3077
 5876TIP3    H239120   3.200   0.892   1.673 -1.0263  1.0739  2.4233
 5877TIP3   OH239121   0.037   0.803  54.039 -0.1643  0.3585 -0.0718
 5877TIP3    H139122   0.094   0.732  54.068 -0.2929 -0.1096 -0.9308
 5877TIP3    H239123   0.021   0.785  53.946  0.6564  2.0723 -0.5921
 5878TIP3   OH239124   1.239   1.071  57.787 -0.1415  0.1053  0.6589
 5878TIP3    H139125   1.163   1.124  57.761 -0.7921 -0.5099  1.2459
 5878TIP3    H239126   1.210   0.981  57.775 -0.6424 -0.2439  3.8243
 5879TIP3   OH239127   2.825   0.057  47.942 -0.0752  0.5991 -0.3426
 5879TIP3    H139128   2.880   0.134  47.953 -2.2665  2.5066 -1.7677
 5879TIP3    H239129   2.812   0.023  48.031 -0.2697  2.8145  0.5314
 5880TIP3   OH239130   0.985   2.427  61.756  0.1189 -0.1856  0.1098
 5880TIP3    H139131   0.896   2.453  61.731  0.8021  0.8409 -1.4017
 5880TIP3    H239132   0.992   2.449  61.849 -1.4953 -1.1949  0.5139
 5881TIP3   OH239133   2.946   0.915  65.276  0.4547  0.9321  0.2522
 5881TIP3    H139134   2.929   0.987  65.217 -0.0796 -0.2621 -1.1067
 5881TIP3    H239135   2.932   0.836  65.223 -2.4241 -0.2896  2.5300
 5882TIP3   OH239136   2.649   2.836  28.017 -0.3999  0.9091  0.0323
 5882TIP3    H139137   2.708   2.832  28.092 -0.5220 -0.6891  0.0919
 5882TIP3    H239138   2.701   2.806  27.943 -1.0614 -0.3750  0.0583
 5883TIP3   OH239139   1.504   1.095  44.739  0.0141 -0.3553  0.5099
 5883TIP3    H139140   1.573   1.114  44.676 -1.6818  1.2753 -0.9364
 5883TIP3    H239141   1.541   1.123  44.823  1.4098 -0.3207 -0.0829
 5884TIP3   OH239142   1.596   1.080  46.539 -0.2284  0.0231 -0.5577
 5884TIP3    H139143   1.513   1.107  46.501  0.5787  1.0008 -1.7156
 5884TIP3    H239144   1.613   0.994  46.501 -1.0104 -0.4817  0.2033
 5885TIP3   OH239145   1.630   0.070  14.266  0.6685 -0.2825  0.5014
 5885TIP3    H139146   1.657   0.121  14.189 -0.6975 -1.0075 -0.5133
 5885TIP3    H239147   1.593   0.134  14.325  1.5854  0.2682  0.4988
 5886TIP3   OH239148   1.455   2.572  44.866 -0.6898 -0.4980  0.1299
 5886TIP3    H139149   1.426   2.537  44.782 -1.3633  2.6799 -1.1132
 5886TIP3    H239150   1.430   2.506  44.930 -2.3291 -1.9675 -1.9035
 5887TIP3   OH239151   1.984   2.502   0.840 -0.1488 -0.2927  0.2366
 5887TIP3    H139152   2.002   2.473   0.929  1.0023  2.1437  0.8607
 5887TIP3    H239153   1.946   2.589   0.850  0.1837  0.1129 -1.6534
 5888TIP3   OH239154   2.444   1.270   9.258  0.4947 -0.0962  0.0846
 5888TIP3    H139155   2.369   1.319   9.291 -0.1636  0.7020 -2.4376
 5888TIP3    H239156   2.506   1.336   9.228  0.4237 -0.7448 -1.6039
 5889TIP3   OH239157   0.418   2.927  50.506  0.3570  0.0012 -0.0183
 5889TIP3    H139158   0.450   2.989  50.571  0.7486 -0.4692  0.2483
 5889TIP3    H239159   0.482   2.930  50.435  0.5343 -0.3044  0.1250
 5890TIP3   OH239160   3.215   3.263  64.725  0.0771 -0.1550 -0.0633
 5890TIP3    H139161   3.272   3.186  64.724  4.5509  2.7837 -0.4529
 5890TIP3    H239162   3.187   3.271  64.816  0.3819 -1.6277  0.1882
 5891TIP3   OH239163   0.096   1.023   8.650  0.0671 -0.4471  0.0275
 5891TIP3    H139164   0.008   0.989   8.665 -0.5368  1.2956  0.6763
 5891TIP3    H239165   0.082   1.109   8.610  1.5121 -0.5381 -0.7594
 5892TIP3   OH239166   2.465   0.048  11.086  0.8454  0.0945 -0.1602
 5892TIP3    H139167   2.558   0.035  11.104  0.7280 -2.0957 -0.9131
 5892TIP3    H239168   2.420   0.005  11.158  0.3792  0.9181  0.0620
 5893TIP3   OH239169   0.602   2.807  62.697 -0.3056  0.0755  0.2145
 5893TIP3    H139170   0.538   2.772  62.635  0.0786 -0.6544  0.2184
 5893TIP3    H239171   0.679   2.827  62.644  0.0797 -0.6973  0.4584
 5894TIP3   OH239172   1.032   1.516   5.272 -0.7560 -0.2117 -0.6367
 5894TIP3    H139173   1.015   1.603   5.234 -1.9851 -0.6983 -1.2752
 5894TIP3    H239174   0.982   1.515   5.353  0.3058  0.1239  0.0424
 5895TIP3   OH239175   0.064   2.282   7.945 -0.0794 -0.2699  0.0700
 5895TIP3    H139176  -0.015   2.301   7.997  0.0495 -1.6947  0.8523
 5895TIP3    H239177   0.031   2.270   7.856 -0.4756  1.0014  0.0220
 5896TIP3   OH239178   1.560   2.108   1.769  0.0655  0.0509  0.1547
 5896TIP3    H139179   1.486   2.146   1.722 -1.5756 -2.5358  0.4781
 5896TIP3    H239180   1.618   2.077   1.699 -0.0941  0.3381 -0.1106
 5897TIP3   OH239181   1.332   0.157   9.289  0.2894  0.5443 -0.2509
 5897TIP3    H139182   1.371   0.192   9.208 -1.7805  0.8589 -1.1711
 5897TIP3    H239183   1.407   0.127   9.340  1.6767  0.2197 -2.3361
 5898TIP3   OH239184   0.692   2.376  16.753 -0.5359 -0.2445 -0.0683
 5898TIP3    H139185   0.765   2.432  16.779 -0.4233 -0.4923  0.1519
 5898TIP3    H239186   0.721   2.335  16.671 -0.8401  0.4386 -0.5242
 5899TIP3   OH239187   2.923   0.744  16.987  0.6361 -0.1534 -0.0669
 5899TIP3    H139188   2.970   0.744  17.070  0.1474 -0.2891  0.2112
 5899TIP3    H239189   2.838   0.704  17.007  1.6262 -3.1203 -1.2379
 5900TIP3   OH239190   1.337   2.846  46.728 -0.5066  0.4893  0.0399
 5900TIP3    H139191   1.373   2.870  46.642 -0.2259 -0.4255 -0.0998
 5900TIP3    H239192   1.251   2.809  46.709 -0.0847 -0.5266  0.0657
 5901TIP3   OH239193   2.237   2.058  53.116  0.4785 -0.0041  0.7727
 5901TIP3    H139194   2.267   2.127  53.057  1.7599 -2.0201 -1.0675
 5901TIP3    H239195   2.316   2.029  53.161 -0.0569 -0.2578  1.5663
 5902TIP3   OH239196   0.558   1.845  19.299  0.7074  0.1665  0.4777
 5902TIP3    H139197   0.522   1.909  19.238 -0.5930 -0.3752  0.6495
 5902TIP3    H239198   0.554   1.762  19.252 -0.6009 -0.3112  1.3909
 5903TIP3   OH239199   1.487   1.173  14.060  0.1369  0.0849 -0.2025
 5903TIP3    H139200   1.394   1.168  14.039  0.3081 -2.3423 -0.6598
 5903TIP3    H239201   1.520   1.247  14.008 -1.5382  1.1277  0.1553
 5904TIP3   OH239202   1.111   0.863  45.040 -0.0844 -0.0342  0.0817
 5904TIP3    H139203   1.021   0.892  45.025  0.1793  1.6600  1.4511
 5904TIP3    H239204   1.164   0.942  45.029  1.1259 -0.7916  0.3008
 5905TIP3   OH239205   3.091   0.535  10.837 -0.0311  0.3297 -0.5992
 5905TIP3    H139206   3.011   0.550  10.786 -0.3907  0.8375  0.0831
 5905TIP3    H239207   3.059   0.509  10.924  0.5543  0.2240 -0.4105
 5906TIP3   OH239208   2.324   0.803   9.117 -0.4279 -0.0714 -0.2686
 5906TIP3    H139209   2.262   0.745   9.072 -0.0089  0.1118 -1.1194
 5906TIP3    H239210   2.399   0.748   9.135 -0.7318 -0.2303  0.5359
 5907TIP3   OH239211   3.058   3.184  59.415  0.1081 -0.4262  0.1651
 5907TIP3    H139212   3.026   3.096  59.400  0.0703 -0.2031 -1.1855
 5907TIP3    H239213   2.980   3.235  59.435 -0.2185 -0.2305 -1.4498
 5908TIP3   OH239214   1.560   2.341  61.992 -0.0690  0.7136  0.1200
 5908TIP3    H139215   1.630   2.337  62.057 -0.7273  0.5618  0.8374
 5908TIP3    H239216   1.604   2.363  61.910  1.0178 -0.8012  0.2508
 5909TIP3   OH239217   2.558   3.242  56.704  0.5594 -0.6939 -0.8593
 5909TIP3    H139218   2.607   3.300  56.763  1.1240 -0.6105 -1.4041
 5909TIP3    H239219   2.553   3.290  56.621  0.2706 -1.0559 -1.0559
 5910TIP3   OH239220   2.026   1.768  54.425 -0.1163 -0.3862 -0.0930
 5910TIP3    H139221   2.078   1.817  54.488 -0.5083  1.0012 -0.8082
 5910TIP3    H239222   1.965   1.832  54.388 -0.7291 -1.4346 -0.9906
 5911TIP3   OH239223   2.020   0.780  48.277 -0.4205  0.1359 -0.2845
 5911TIP3    H139224   2.028   0.863  48.323 -0.3218  0.9369 -1.6920
 5911TIP3    H239225   2.085   0.723  48.320  0.5914  1.2513 -0.2808
 5912TIP3   OH239226   1.264   1.368  18.416 -0.5811  0.3816  0.4962
 5912TIP3    H139227   1.266   1.388  18.322 -2.1404  0.8033  0.5392
 5912TIP3    H239228   1.172   1.373  18.440 -0.3474 -0.9003  1.8116
 5913TIP3   OH239229   2.251   0.751  17.557 -0.7895  0.1283 -0.4616
 5913TIP3    H139230   2.299   0.774  17.636 -0.8597 -0.7347 -0.1617
 5913TIP3    H239231   2.165   0.792  17.567 -1.2452 -1.0133  0.5034
 5914TIP3   OH239232   2.218   1.404  16.045 -0.1205  0.3676  0.7862
 5914TIP3    H139233   2.204   1.428  16.137  0.7501  2.1527  0.4913
 5914TIP3    H239234   2.288   1.462  16.015 -0.8169  0.2625 -1.1908
 5915TIP3   OH239235   1.412   2.749  62.539  0.2312  0.8555 -0.3572
 5915TIP3    H139236   1.501   2.780  62.525  0.8321 -0.5982  0.0375
 5915TIP3    H239237   1.396   2.688  62.467 -0.3440  0.8869 -0.2621
 5916TIP3   OH239238   2.071   2.759  51.489 -0.0540  0.0964 -0.0583
 5916TIP3    H139239   1.988   2.716  51.470  0.1631  0.0066 -0.8763
 5916TIP3    H239240   2.137   2.694  51.463  0.2796  0.8902 -1.2573
 5917TIP3   OH239241   2.232   0.544  17.205 -0.0020  0.8149 -0.0088
 5917TIP3    H139242   2.211   0.614  17.143 -0.8838  2.1467  1.6672
 5917TIP3    H239243   2.327   0.535  17.201 -0.0238  0.9920 -1.3831
 5918TIP3   OH239244   1.136   1.479  51.948  0.5791  0.2903  0.5130
 5918TIP3    H139245   1.225   1.450  51.929  1.2326  0.2792  3.2014
 5918TIP3    H239246   1.148   1.561  51.996 -1.0058  1.6563 -1.2644
 5919TIP3   OH239247   1.051   2.950   6.715  0.0064  0.0773  0.0426
 5919TIP3    H139248   1.115   2.905   6.659  0.8737  1.8045 -0.4249
 5919TIP3    H239249   0.981   2.975   6.655 -0.1202 -0.0136  0.1539
 5920TIP3   OH239250   0.487   3.156  12.935 -0.0400 -0.0836  0.0677
 5920TIP3    H139251   0.556   3.177  12.998 -0.6745 -0.9161  1.0734
 5920TIP3    H239252   0.414   3.213  12.961  0.6469  1.8009 -1.8332
 5921TIP3   OH239253   3.033   0.836   3.853 -0.1593  0.1760 -0.3206
 5921TIP3    H139254   3.102   0.902   3.852 -0.5309  0.5780  0.0214
 5921TIP3    H239255   2.974   0.864   3.923  0.2512 -1.1197  0.5864
 5922TIP3   OH239256   1.825   0.663  20.985  0.0855 -0.1217  0.0730
 5922TIP3    H139257   1.899   0.689  20.930  0.8349 -0.5167  0.8727
 5922TIP3    H239258   1.752   0.714  20.951  0.7263  0.3069 -0.7150
 5923TIP3   OH239259   1.271   0.586  60.042 -0.0179 -0.3829 -0.0239
 5923TIP3    H139260   1.279   0.625  59.955 -2.0945 -0.8871 -0.4877
 5923TIP3    H239261   1.352   0.612  60.087  0.6248  0.7750 -1.7268
 5924TIP3   OH239262   3.240   3.061  45.870 -0.2548  0.2825  0.9968
 5924TIP3    H139263   3.259   2.972  45.839  0.6187  0.5642  0.6846
 5924TIP3    H239264   3.327   3.099  45.888 -0.6702  0.1096  3.9051
 5925TIP3   OH239265   1.687   3.375  21.967 -0.2713 -0.1059  0.5287
 5925TIP3    H139266   1.676   3.432  22.044  2.3358  1.4161 -0.1263
 5925TIP3    H239267   1.779   3.352  21.967  0.0165  0.5987 -2.5535
 5926TIP3   OH239268   1.447   0.331   0.763 -0.4550  0.4214 -0.2314
 5926TIP3    H139269   1.376   0.332   0.827 -0.5561  1.2824 -0.3499
 5926TIP3    H239270   1.467   0.238   0.752 -2.2448  0.0783 -0.9481
 5927TIP3   OH239271   0.704   2.617  35.519  0.3409 -0.1494  0.2006
 5927TIP3    H139272   0.754   2.657  35.590  0.1459  0.4932 -0.0157
 5927TIP3    H239273   0.623   2.669  35.515 -0.7533 -1.6944  1.1112
 5928TIP3   OH239274   1.466   2.060  11.812 -0.2097 -0.4241 -0.3566
 5928TIP3    H139275   1.421   1.988  11.766  0.0236  1.3897 -3.7907
 5928TIP3    H239276   1.557   2.031  11.819 -0.7366 -1.7837  1.4161
 5929TIP3   OH239277   0.925   3.300  65.528  0.2757 -0.0719 -0.1375
 5929TIP3    H139278   0.953   3.311  65.437 -0.8590 -0.7048 -0.5895
 5929TIP3    H239279   0.894   3.387  65.554  0.4176  0.0668 -0.4276
 5930TIP3   OH239280   2.829   3.215  17.567 -0.6329  0.0375  0.1332
 5930TIP3    H139281   2.877   3.286  17.609  1.0286  0.2553 -1.9782
 5930TIP3    H239282   2.822   3.147  17.634 -0.0281  1.1931  1.4116
 5931TIP3   OH239283   3.421   2.548  10.423  0.0587  0.2357 -0.0300
 5931TIP3    H139284   3.330   2.577  10.420 -1.3354 -3.5486 -1.7423
 5931TIP3    H239285   3.429   2.502  10.507 -0.7338 -2.1838 -1.1999
 5932TIP3   OH239286   1.914   0.800   9.776 -0.3118  0.2323  0.0728
 5932TIP3    H139287   1.952   0.848   9.702 -2.4172  2.3720  0.2759
 5932TIP3    H239288   1.962   0.831   9.852 -0.6807  0.9412  0.0247
 5933TIP3   OH239289   2.065   3.258  52.133 -0.3269  0.3879 -0.1586
 5933TIP3    H139290   2.124   3.301  52.071  2.4750  0.6077  2.4690
 5933TIP3    H239291   2.016   3.195  52.079  1.3681  1.0720 -2.6826
 5934TIP3   OH239292   3.339   2.481  66.608 -0.1009  0.5175  0.1856
 5934TIP3    H139293   3.408   2.495  66.544  0.1276 -1.0282  0.0722
 5934TIP3    H239294   3.276   2.424  66.564 -1.1748  1.4180  0.4993
 5935TIP3   OH239295   0.967   0.572   0.338  0.5314  0.3684  0.2493
 5935TIP3    H139296   1.030   0.574   0.409  1.7592 -0.1943 -0.7839
 5935TIP3    H239297   0.883   0.554   0.380  1.3373 -0.6428  1.4671
 5936TIP3   OH239298   1.862   1.043   7.418 -0.0511 -0.0979 -0.3014
 5936TIP3    H139299   1.901   0.997   7.492 -0.6276  3.2147  2.2756
 5936TIP3    H239300   1.781   0.995   7.400 -0.2683 -0.5812  1.7336
 5937TIP3   OH239301   1.463   0.732   4.091 -0.3916  0.5426 -0.1388
 5937TIP3    H139302   1.442   0.804   4.150  1.2928  0.5572  0.4989
 5937TIP3    H239303   1.504   0.666   4.146 -1.1047 -0.5594 -0.8704
 5938TIP3   OH239304   1.586   1.758   8.244 -0.1883 -0.5937 -0.0659
 5938TIP3    H139305   1.507   1.705   8.235 -0.8540 -0.6885  4.2860
 5938TIP3    H239306   1.648   1.720   8.182 -2.0531 -3.5925 -0.2619
 5939TIP3   OH239307   0.938   0.279  53.170  0.3798  0.0841 -0.1231
 5939TIP3    H139308   0.974   0.366  53.150 -0.2879  0.1094 -1.3224
 5939TIP3    H239309   1.015   0.223  53.182  0.8117  0.7696  0.3473
 5940TIP3   OH239310   0.373   0.868  60.472 -0.3874 -0.1307  0.2972
 5940TIP3    H139311   0.428   0.899  60.544  1.1588 -2.2167  0.1152
 5940TIP3    H239312   0.376   0.938  60.408  0.0248  0.8326  1.3417
 5941TIP3   OH239313   2.679   1.239   0.983  0.4212  0.5889 -0.0437
 5941TIP3    H139314   2.595   1.201   1.010  0.3021 -0.2914 -1.5722
 5941TIP3    H239315   2.709   1.286   1.061 -0.5975 -0.6284  1.1477
 5942TIP3   OH239316   2.321   2.664  60.599 -0.1223 -0.2592 -0.0633
 5942TIP3    H139317   2.365   2.711  60.528 -0.0275 -0.5582 -0.2044
 5942TIP3    H239318   2.380   2.673  60.674 -0.3024  0.2005  0.0262
 5943TIP3   OH239319   0.956   3.050  57.873 -0.0194 -0.2966 -0.4511
 5943TIP3    H139320   0.878   3.102  57.854 -0.5688 -0.7273  0.5647
 5943TIP3    H239321   0.932   2.961  57.848 -0.3285 -0.6588  1.0620
 5944TIP3   OH239322   0.822   0.462  35.507 -0.2212 -0.1899  0.7597
 5944TIP3    H139323   0.838   0.390  35.445 -2.8170 -1.2706  1.2460
 5944TIP3    H239324   0.801   0.537  35.452  2.1723  0.2250  0.2633
 5945TIP3   OH239325   0.995   3.006  21.614 -0.4173  0.1621  0.2575
 5945TIP3    H139326   0.998   3.099  21.637  0.2515  0.1507  0.2106
 5945TIP3    H239327   0.981   3.005  21.519 -1.1085  0.2099  0.3539
 5946TIP3   OH239328   2.419   3.255   5.906  0.4878  0.4479 -0.4990
 5946TIP3    H139329   2.471   3.175   5.913 -1.3242 -0.7958 -0.3779
 5946TIP3    H239330   2.406   3.284   5.996 -1.2805 -0.8423 -0.2833
 5947TIP3   OH239331   2.012   0.750  65.907 -0.2383 -0.0091 -0.4891
 5947TIP3    H139332   1.951   0.788  65.970  1.5073  1.3884  0.4505
 5947TIP3    H239333   2.078   0.706  65.961 -0.4849 -1.6919 -1.4857
 5948TIP3   OH239334   2.330   3.326  14.434  0.0614 -0.3639 -0.5469
 5948TIP3    H139335   2.251   3.375  14.411 -1.3529 -1.8359  0.9285
 5948TIP3    H239336   2.381   3.323  14.353 -2.3400 -1.0959 -2.1260
 5949TIP3   OH239337   2.552   0.248  29.061 -0.0289 -0.6818 -0.3166
 5949TIP3    H139338   2.599   0.173  29.100 -2.2798 -0.7239  2.7131
 5949TIP3    H239339   2.545   0.311  29.132 -0.6738  1.2200 -1.9867
 5950TIP3   OH239340   0.836   0.640  11.903 -0.6433  0.0166 -0.2578
 5950TIP3    H139341   0.913   0.649  11.845 -0.2888 -1.4157 -0.0333
 5950TIP3    H239342   0.786   0.720  11.887 -0.1841  0.0031 -2.0061
 5951TIP3   OH239343   0.508   2.188  54.086  0.6312 -0.1954 -0.3764
 5951TIP3    H139344   0.561   2.122  54.042  0.4436 -0.0549 -0.8255
 5951TIP3    H239345   0.496   2.257  54.020 -0.2138 -0.2887 -0.3401
 5952TIP3   OH239346   1.744   3.029   4.704  0.4429 -0.3442 -0.0235
 5952TIP3    H139347   1.749   2.938   4.732  0.9426 -0.9987 -2.0759
 5952TIP3    H239348   1.711   3.025   4.615 -0.4302  1.5786  0.1586
 5953TIP3   OH239349   1.647   2.476  55.582  0.3223  0.4353  0.6937
 5953TIP3    H139350   1.603   2.411  55.527  0.4700  0.1585  0.9046
 5953TIP3    H239351   1.579   2.541  55.601  0.3523  0.7181 -0.0994
 5954TIP3   OH239352   1.044   1.991   2.009 -0.2685  0.1620  0.2070
 5954TIP3    H139353   1.083   2.076   2.029 -1.2406  0.5869  0.3485
 5954TIP3    H239354   1.094   1.959   1.934  1.8942 -0.3749  1.7750
 5955TIP3   OH239355   3.431   0.782  19.229  0.0786 -0.3699 -0.1124
 5955TIP3    H139356   3.445   0.744  19.316 -0.0075 -3.8026 -1.4167
 5955TIP3    H239357   3.504   0.748  19.177 -1.6238 -1.2328 -2.0974
 5956TIP3   OH239358   2.229   3.210  20.943  0.6236 -0.0791  0.3869
 5956TIP3    H139359   2.225   3.303  20.921 -0.0392  0.1888  1.5451
 5956TIP3    H239360   2.264   3.208  21.033 -1.1437 -0.8071  1.1021
 5957TIP3   OH239361   2.173   3.377  27.112  0.6047 -0.7397  0.2306
 5957TIP3    H139362   2.078   3.375  27.127 -0.3750 -0.0473 -4.3851
 5957TIP3    H239363   2.196   3.469  27.118  0.7631 -0.7753  0.1514
 5958TIP3   OH239364   1.618   3.369   3.959 -0.2825 -0.9194 -0.1446
 5958TIP3    H139365   1.557   3.377   4.032  1.6131 -2.1050  1.6727
 5958TIP3    H239366   1.564   3.382   3.881 -2.3850  0.3891  1.4311
 5959TIP3   OH239367   2.614   3.099  53.376 -0.8233  0.0827 -0.4463
 5959TIP3    H139368   2.653   3.051  53.304 -1.3221 -0.3226 -0.4516
 5959TIP3    H239369   2.532   3.133  53.341 -1.3894 -0.6727  0.1183
 5960TIP3   OH239370   2.449   2.118  10.828 -0.0441 -0.0311  0.2995
 5960TIP3    H139371   2.376   2.059  10.808 -0.0724 -0.4462  1.5391
 5960TIP3    H239372   2.524   2.060  10.840  0.0504  0.2179  0.9691
 5961TIP3   OH239373   1.726   2.462  10.706 -0.6091 -0.4078  0.1968
 5961TIP3    H139374   1.739   2.369  10.723 -1.6299 -0.1528  2.7829
 5961TIP3    H239375   1.765   2.506  10.782  0.1612  1.3381 -1.1291
 5962TIP3   OH239376   2.809   1.763  28.712  1.3207 -0.1578  0.8826
 5962TIP3    H139377   2.805   1.702  28.639  3.0310 -1.3931  1.7631
 5962TIP3    H239378   2.839   1.845  28.673  3.7266 -1.2050  0.3570
 5963TIP3   OH239379   2.404   0.367  27.011  0.1245 -0.1276  0.3487
 5963TIP3    H139380   2.465   0.438  26.997 -1.2122  0.6756 -2.0092
 5963TIP3    H239381   2.384   0.334  26.923 -2.9287 -0.2082  0.9458
 5964TIP3   OH239382   3.108   2.903  10.407 -0.0609  0.3655 -0.4646
 5964TIP3    H139383   3.201   2.913  10.424  0.1372  1.6959 -2.0876
 5964TIP3    H239384   3.073   2.992  10.411 -1.4331 -0.1779  0.8572
 5965TIP3   OH239385   2.565   2.964  51.964 -0.1016 -0.1782 -0.4355
 5965TIP3    H139386   2.646   3.012  51.943  0.6868 -0.6207  1.4341
 5965TIP3    H239387   2.569   2.886  51.908 -0.3995  0.8824 -2.0151
 5966TIP3   OH239388   0.812   1.568  45.518 -0.0883  0.1106  0.1200
 5966TIP3    H139389   0.758   1.641  45.548  0.9861  0.6641  0.7745
 5966TIP3    H239390   0.849   1.597  45.434 -0.3740 -0.0468 -0.0620
 5967TIP3   OH239391   0.605   3.144  13.178 -0.2833  0.3162 -0.2487
 5967TIP3    H139392   0.677   3.137  13.241 -1.3965 -1.0497  0.9747
 5967TIP3    H239393   0.526   3.145  13.233 -1.2734 -0.3356 -1.6003
 5968TIP3   OH239394   0.002   1.330  17.387 -0.3107  0.1322 -0.2653
 5968TIP3    H139395   0.060   1.255  17.400 -0.7580 -0.3796 -1.1191
 5968TIP3    H239396  -0.084   1.291  17.371 -0.4903  0.8117 -1.0257
 5969TIP3   OH239397   3.187   2.617  11.978  0.3147 -0.7782 -0.2543
 5969TIP3    H139398   3.274   2.593  11.948 -0.1740 -0.5943 -1.8755
 5969TIP3    H239399   3.138   2.535  11.980  0.8155 -1.1039  1.8809
 5970TIP3   OH239400   1.380   0.703  58.928 -0.0672  0.0542  0.3929
 5970TIP3    H139401   1.428   0.763  58.872  0.2987  1.0120  1.6762
 5970TIP3    H239402   1.394   0.616  58.889 -1.2717  0.8207 -1.9582
 5971TIP3   OH239403   2.765   2.638  18.651  0.2576 -0.2515  0.0623
 5971TIP3    H139404   2.688   2.671  18.604  0.1104  2.1789  1.8336
 5971TIP3    H239405   2.732   2.565  18.703 -1.1989  1.3533  1.5530
 5972TIP3   OH239406   2.577   1.815  55.757  0.3924 -0.2329 -0.1218
 5972TIP3    H139407   2.618   1.831  55.672  0.8142  1.6686  0.4054
 5972TIP3    H239408   2.625   1.740  55.793  1.7701  0.4164 -0.5631
 5973TIP3   OH239409   3.173   0.254   8.356 -0.2722 -0.0147  0.1714
 5973TIP3    H139410   3.113   0.191   8.397 -0.1830 -1.9839 -2.5343
 5973TIP3    H239411   3.119   0.299   8.291  0.3829  0.7480  0.1380
 5974TIP3   OH239412   0.454   1.008  10.754  0.0286 -0.1698  0.1043
 5974TIP3    H139413   0.533   0.978  10.798 -0.6579 -1.1425  0.7267
 5974TIP3    H239414   0.413   0.928  10.722 -1.2045  0.1989  0.6810
 5975TIP3   OH239415   0.791   0.855   6.614  0.4521  0.3713  0.0837
 5975TIP3    H139416   0.777   0.917   6.543  0.3086  0.2834  0.0339
 5975TIP3    H239417   0.859   0.895   6.669 -0.5770  1.2089  0.7909
 5976TIP3   OH239418   2.752   1.775  42.473  0.3382  0.2243  0.0302
 5976TIP3    H139419   2.842   1.806  42.475  0.1616  0.8574 -0.8435
 5976TIP3    H239420   2.755   1.694  42.422  0.5249 -0.1953  0.7005
 5977TIP3   OH239421   1.704   2.978  17.704  0.0324 -0.1365  0.0522
 5977TIP3    H139422   1.664   2.944  17.784 -0.2684  0.8171  0.3235
 5977TIP3    H239423   1.668   2.923  17.634  1.7501 -2.2432  0.7067
 5978TIP3   OH239424   0.929   0.837   4.264 -0.1301  0.7566  0.1184
 5978TIP3    H139425   0.970   0.782   4.198  0.1722 -1.6096  2.1324
 5978TIP3    H239426   0.836   0.836   4.242 -0.3483 -1.8286  0.8487
 5979TIP3   OH239427   0.774   2.156   8.901  0.1027 -0.6921 -0.0644
 5979TIP3    H139428   0.857   2.194   8.875  0.0561  0.1330  0.9105
 5979TIP3    H239429   0.773   2.069   8.861 -0.6761  0.9385 -4.1010
 5980TIP3   OH239430   2.687   3.185   4.739  0.2112 -0.5839  0.1074
 5980TIP3    H139431   2.644   3.120   4.683 -0.3975 -0.7693  0.7815
 5980TIP3    H239432   2.616   3.223   4.791  0.7441 -0.2711  0.6204
 5981TIP3   OH239433   1.609   2.182  49.661 -0.0212  0.7935  0.1908
 5981TIP3    H139434   1.609   2.265  49.710  0.7482  0.7308  0.3173
 5981TIP3    H239435   1.626   2.115  49.727 -0.2522  0.5772  0.0319
 5982TIP3   OH239436   0.076   2.791  43.985  0.1960  0.1077 -0.2482
 5982TIP3    H139437   0.084   2.770  43.892 -0.1855  1.1783 -0.5381
 5982TIP3    H239438   0.132   2.868  43.997  0.0802  0.1028  0.3566
 5983TIP3   OH239439   1.875   2.995   8.930 -0.4254 -0.1140  0.2118
 5983TIP3    H139440   1.792   3.041   8.942  0.7340  1.8183  1.1849
 5983TIP3    H239441   1.907   2.979   9.018 -0.0102 -1.3675 -0.1434
 5984TIP3   OH239442   3.025   1.276  54.660  0.0674 -0.0770 -0.0425
 5984TIP3    H139443   3.071   1.356  54.636 -0.6222  0.1667 -0.6116
 5984TIP3    H239444   3.070   1.207  54.612  0.3700  0.0378  0.0768
 5985TIP3   OH239445   0.793   2.001  11.333  0.1987 -0.4237 -0.4744
 5985TIP3    H139446   0.750   2.019  11.416  0.1736  0.9844 -0.7830
 5985TIP3    H239447   0.880   1.968  11.358 -0.2960 -1.3132  0.1107
 5986TIP3   OH239448   2.546   0.836   6.787  0.7230  0.2256  0.0176
 5986TIP3    H139449   2.527   0.796   6.702  1.2503  0.3386 -0.1562
 5986TIP3    H239450   2.472   0.895   6.803 -0.0715 -0.8017  0.2767
 5987TIP3   OH239451   0.028   0.762  50.994  0.1856  0.3351 -0.1253
 5987TIP3    H139452  -0.066   0.777  51.000  0.1442  0.2463 -0.5468
 5987TIP3    H239453   0.040   0.673  51.028 -0.2782 -0.8768 -2.8518
 5988TIP3   OH239454   0.964   1.663  21.254  0.6304 -0.2029 -0.5278
 5988TIP3    H139455   0.901   1.713  21.307  1.2735 -0.8078  0.8514
 5988TIP3    H239456   1.032   1.637  21.316  0.4364 -2.6002 -1.2337
 5989TIP3   OH239457   3.379   0.876  42.079 -0.4640  0.5009  0.2122
 5989TIP3    H139458   3.473   0.890  42.064 -0.4826  0.7479  0.3188
 5989TIP3    H239459   3.336   0.929  42.011 -0.5277  0.4088  0.1792
 5990TIP3   OH239460   2.568   2.878  42.588  0.2980 -0.3810  0.2045
 5990TIP3    H139461   2.477   2.886  42.617  0.4946  0.0373  0.7416
 5990TIP3    H239462   2.615   2.846  42.665  0.8419  0.7775  0.3850
 5991TIP3   OH239463   2.668   1.221  53.068  0.2204  0.4529  0.3873
 5991TIP3    H139464   2.683   1.210  52.974  0.7362  0.0683  0.5090
 5991TIP3    H239465   2.595   1.282  53.073  0.9552  1.4110 -0.2540
 5992TIP3   OH239466   0.623   2.583   7.290  0.4258  0.3624  0.0156
 5992TIP3    H139467   0.617   2.564   7.383  0.2585 -0.7541 -0.2112
 5992TIP3    H239468   0.558   2.652   7.275 -0.6497 -0.5378  0.4503
 5993TIP3   OH239469   0.370   1.886   3.027 -0.0884  0.3412  0.0857
 5993TIP3    H139470   0.348   1.914   3.116 -0.2676  1.8628 -0.4033
 5993TIP3    H239471   0.462   1.860   3.033 -0.2407 -0.0563  0.8235
 5994TIP3   OH239472   2.580   1.874  13.147 -1.2028 -0.7864  0.2586
 5994TIP3    H139473   2.578   1.930  13.224  0.8531  1.3395 -1.0694
 5994TIP3    H239474   2.557   1.932  13.074 -0.4858 -2.0352 -1.0212
 5995TIP3   OH239475   2.700   0.014   9.523  0.3337  0.5408  0.0539
 5995TIP3    H139476   2.613  -0.013   9.492  0.1122  2.7668 -1.4686
 5995TIP3    H239477   2.684   0.051   9.610 -0.2418  0.8741 -0.1894
 5996TIP3   OH239478   3.125   2.341  17.413  0.2421  0.1681 -0.7053
 5996TIP3    H139479   3.094   2.340  17.323 -0.2500  1.3526 -0.5619
 5996TIP3    H239480   3.198   2.404  17.413  0.4059 -0.0137 -0.3264
 5997TIP3   OH239481   2.933   1.472  16.034  0.4074 -0.3757 -0.1156
 5997TIP3    H139482   2.888   1.432  16.108  1.1219 -1.4997 -0.2641
 5997TIP3    H239483   2.872   1.463  15.960  0.1573 -0.2893  0.0822
 5998TIP3   OH239484   2.926   0.253  14.714  0.2866  0.1847 -0.6205
 5998TIP3    H139485   2.997   0.194  14.742  0.6012  1.1072  0.5937
 5998TIP3    H239486   2.922   0.320  14.782  0.8183  2.3500 -2.5960
 5999TIP3   OH239487   1.355   1.403   9.032  0.6153 -0.4170 -0.0548
 5999TIP3    H139488   1.370   1.309   9.030  1.2257 -0.3435  0.5633
 5999TIP3    H239489   1.280   1.417   8.975  0.9218 -1.2019 -0.6653
 6000TIP3   OH239490   2.883   3.250   0.682 -0.4394  0.2222  0.0166
 6000TIP3    H139491   2.942   3.246   0.757  0.6317  3.0067 -0.5851
 6000TIP3    H239492   2.927   3.198   0.614 -1.3438 -2.1867  1.1273
 6001TIP3   OH239493   2.869   2.248  60.904  0.6201 -0.5918 -0.0920
 6001TIP3    H139494   2.933   2.261  60.834 -0.1721  1.2812 -0.5201
 6001TIP3    H239495   2.800   2.195  60.864  0.2513  0.3299 -0.7145
 6002TIP3   OH239496   0.159   1.907  55.527  0.2330 -0.1728  0.3160
 6002TIP3    H139497   0.143   1.844  55.596  1.0149  0.0802  0.7420
 6002TIP3    H239498   0.203   1.980  55.571  3.3914 -1.1927 -0.8641
 6003TIP3   OH239499   3.093   1.461  52.463  0.8213  0.1742  0.1482
 6003TIP3    H139500   3.068   1.465  52.370  1.6118  2.7767 -0.0212
 6003TIP3    H239501   3.188   1.470  52.463  0.8548 -0.0847  1.2226
 6004TIP3   OH239502   2.408   0.615  60.492 -0.0014  0.4230 -0.3426
 6004TIP3    H139503   2.434   0.699  60.456  0.9886 -0.0656 -0.8239
 6004TIP3    H239504   2.487   0.561  60.486 -0.2247 -0.1454  1.1613
 6005TIP3   OH239505   1.930   3.209  63.216  0.0434  0.0041  0.2447
 6005TIP3    H139506   1.838   3.205  63.189  0.3956 -1.0327 -0.9481
 6005TIP3    H239507   1.929   3.194  63.310 -1.0263  0.1942  0.2704
 6006TIP3   OH239508   2.429   0.617  63.705  0.0812 -0.2972  0.3409
 6006TIP3    H139509   2.455   0.606  63.614  0.9894  1.7403  0.3140
 6006TIP3    H239510   2.365   0.547  63.721 -0.1813 -0.6061 -1.8583
 6007TIP3   OH239511   3.198   0.634  14.370 -0.4128 -0.4144 -0.0543
 6007TIP3    H139512   3.284   0.593  14.371  0.4238  1.2221 -1.0263
 6007TIP3    H239513   3.152   0.595  14.445  1.6788 -0.2456  1.4000
 6008TIP3   OH239514   1.727   0.359  10.788  0.2030  0.5106  0.3982
 6008TIP3    H139515   1.717   0.270  10.822 -0.2372 -0.2668 -1.6575
 6008TIP3    H239516   1.796   0.397  10.843 -1.8183  0.0918  3.4893
 6009TIP3   OH239517   0.636   0.837  50.189  0.0694 -0.2634  0.4583
 6009TIP3    H139518   0.694   0.905  50.156  0.2529 -0.0053  1.2974
 6009TIP3    H239519   0.694   0.764  50.211 -0.2543 -1.3205 -1.8544
 6010TIP3   OH239520   2.438   2.983  15.795  0.4676 -0.8390  0.3340
 6010TIP3    H139521   2.454   2.888  15.792  1.3710 -0.6741 -0.8363
 6010TIP3    H239522   2.491   3.018  15.723 -1.4241  0.3309 -0.5511
 6011TIP3   OH239523   1.755   1.210  15.046 -0.3922  0.0047 -0.1639
 6011TIP3    H139524   1.843   1.173  15.049 -0.4179  0.0155  1.1096
 6011TIP3    H239525   1.697   1.135  15.057 -0.4467  0.3129  2.2818
 6012TIP3   OH239526   0.834   2.822   4.386  0.4012 -0.3000 -0.7673
 6012TIP3    H139527   0.877   2.823   4.472  1.4229 -0.6308 -1.2456
 6012TIP3    H239528   0.874   2.895   4.338  1.3577 -1.3358 -1.6249
 6013TIP3   OH239529   0.352   1.185  45.445 -0.0341 -0.3870  0.2563
 6013TIP3    H139530   0.426   1.125  45.459  0.9819  0.7414 -0.0925
 6013TIP3    H239531   0.388   1.254  45.390 -1.1186  0.6668  0.8313
 6014TIP3   OH239532   0.182   3.218  54.024  0.4471 -0.0800  0.4902
 6014TIP3    H139533   0.127   3.152  53.982 -0.3781 -0.0084  1.4359
 6014TIP3    H239534   0.198   3.282  53.955 -1.1452  0.2002  0.3424
 6015TIP3   OH239535   2.501   1.056  63.130  0.7418  0.5194  0.0497
 6015TIP3    H139536   2.462   1.063  63.043 -1.2212  0.9077  0.9048
 6015TIP3    H239537   2.541   0.969  63.131 -1.9675 -0.8446 -0.2548
 6016TIP3   OH239538   0.255   1.881  46.143  0.0428  0.4425  0.5138
 6016TIP3    H139539   0.279   1.792  46.169  1.4941  0.1715 -1.4745
 6016TIP3    H239540   0.165   1.874  46.111  0.3277 -0.4466 -0.1239
 6017TIP3   OH239541   1.220   0.253  45.133 -0.2567 -0.7308 -0.0758
 6017TIP3    H139542   1.153   0.299  45.183  0.8809  1.5794 -0.5390
 6017TIP3    H239543   1.175   0.177  45.096 -1.8192 -0.9653  2.0879
 6018TIP3   OH239544   2.958   0.870  60.248  0.2050 -0.2542 -0.0295
 6018TIP3    H139545   2.880   0.815  60.241  0.5924 -0.6270 -1.6607
 6018TIP3    H239546   3.031   0.808  60.254  0.7790 -0.0339 -3.2801
 6019TIP3   OH239547   1.730   1.915  13.609 -0.2810 -0.0683  0.4716
 6019TIP3    H139548   1.757   2.006  13.606 -4.2292  1.3196  0.6252
 6019TIP3    H239549   1.722   1.890  13.516  1.1098 -0.4176  0.4282
 6020TIP3   OH239550   0.075   2.430  55.047 -0.2442  0.2638  0.3200
 6020TIP3    H139551   0.004   2.385  55.002 -0.1002 -0.6116  0.9470
 6020TIP3    H239552   0.132   2.462  54.977 -0.4738 -0.3169 -0.1351
 6021TIP3   OH239553   0.106   0.260  58.784 -0.0469 -0.2480  0.2671
 6021TIP3    H139554   0.044   0.210  58.837 -0.4209 -0.4029 -0.3083
 6021TIP3    H239555   0.174   0.286  58.846 -1.1820  0.7883  1.1338
 6022TIP3   OH239556   1.440   0.246  49.480  0.4857 -0.1175  0.2050
 6022TIP3    H139557   1.372   0.290  49.428  0.4838 -0.4710 -0.0927
 6022TIP3    H239558   1.425   0.153  49.466 -0.1177 -0.2605  1.6174
 6023TIP3   OH239559   0.751   3.406  11.511 -0.0669  0.2570 -0.2850
 6023TIP3    H139560   0.801   3.383  11.590 -0.4974 -1.8835 -0.5726
 6023TIP3    H239561   0.814   3.453  11.456  0.1831  1.9869  1.3626
 6024TIP3   OH239562   0.285   0.850  59.243  0.3954  0.2350  0.0966
 6024TIP3    H139563   0.192   0.860  59.227  0.7117  1.0287 -1.4522
 6024TIP3    H239564   0.300   0.889  59.329 -0.8265 -0.7189  0.7566
 6025TIP3   OH239565   0.475   1.119  12.348 -0.1580  0.3277 -0.0171
 6025TIP3    H139566   0.413   1.072  12.404 -0.5551 -0.0006 -0.7245
 6025TIP3    H239567   0.438   1.206  12.339  0.0721  0.4847  0.4823
 6026TIP3   OH239568   1.935   0.779  17.048 -0.7827 -0.1439  0.3355
 6026TIP3    H139569   1.965   0.821  17.128  1.9089 -2.3683  0.6446
 6026TIP3    H239570   1.999   0.805  16.982 -2.3438  0.7666 -0.9072
 6027TIP3   OH239571   1.419   0.765   8.610  0.1612 -0.2104  0.1292
 6027TIP3    H139572   1.458   0.837   8.560  2.4209 -0.4495  1.4182
 6027TIP3    H239573   1.341   0.740   8.560  0.6393  1.5484 -1.6015
 6028TIP3   OH239574   1.226   0.268  17.871 -0.1678  0.4357  0.0883
 6028TIP3    H139575   1.208   0.313  17.788 -0.3170  1.0862  0.4669
 6028TIP3    H239576   1.294   0.320  17.912  0.3876 -0.2668  0.0753
 6029TIP3   OH239577   0.502   2.093  13.061 -0.2937  0.2672 -0.3737
 6029TIP3    H139578   0.540   2.160  13.005 -0.1389  0.5740  0.0939
 6029TIP3    H239579   0.511   2.012  13.011  2.4974  0.0020  0.3577
 6030TIP3   OH239580   2.523   3.110  58.355  0.2498  0.2859  0.5103
 6030TIP3    H139581   2.498   3.058  58.279 -0.5673 -0.3230  1.1765
 6030TIP3    H239582   2.541   3.197  58.319 -5.4131  1.7051  0.0969
 6031TIP3   OH239583   1.156   3.252  13.105 -0.2545  0.6948  0.1188
 6031TIP3    H139584   1.204   3.291  13.178  0.5062  0.1012 -0.0495
 6031TIP3    H239585   1.095   3.191  13.146  0.0140  0.5287  0.2736
 6032TIP3   OH239586   1.693   1.771  15.917  0.3273  0.1567 -0.5814
 6032TIP3    H139587   1.666   1.681  15.896 -1.3580  0.0851  1.4621
 6032TIP3    H239588   1.655   1.824  15.847 -1.4959 -0.4396 -0.1131
 6033TIP3   OH239589   0.599   1.547  52.464 -0.7751  0.8003 -0.2592
 6033TIP3    H139590   0.576   1.454  52.466  1.3223  0.2333 -0.3168
 6033TIP3    H239591   0.654   1.556  52.386  1.2602  1.4895  1.1862
 6034TIP3   OH239592   3.370   1.294  20.136 -0.5607 -0.2215 -0.5622
 6034TIP3    H139593   3.302   1.295  20.203 -0.1420  1.0546 -0.1308
 6034TIP3    H239594   3.325   1.316  20.055 -0.9135 -0.8827 -0.5509
 6035TIP3   OH239595   0.378   1.792  18.444 -0.1781 -0.0778 -0.4972
 6035TIP3    H139596   0.315   1.864  18.444 -0.7491 -0.5596 -1.2821
 6035TIP3    H239597   0.368   1.752  18.357  1.3372 -0.0520 -0.7123
 6036TIP3   OH239598   1.894   1.602  20.719  0.0609  0.2730 -0.2076
 6036TIP3    H139599   1.977   1.631  20.682  0.0319 -0.7290 -1.1023
 6036TIP3    H239600   1.916   1.579  20.810  0.4249  1.4427  0.0166
 6037TIP3   OH239601   1.639   2.425  42.039 -0.1942 -0.0956  0.5824
 6037TIP3    H139602   1.566   2.410  41.978 -0.2687 -0.1356  0.6818
 6037TIP3    H239603   1.603   2.483  42.106  0.1359  0.6516  0.1252
 6038TIP3   OH239604   2.448   3.107  18.996 -0.1966  0.1615  0.3205
 6038TIP3    H139605   2.477   3.022  18.962 -1.1199  0.5455 -1.5464
 6038TIP3    H239606   2.378   3.086  19.058 -0.5141 -0.4406 -0.2331
 6039TIP3   OH239607   1.395   2.346  61.548  0.0481  0.5639  0.2410
 6039TIP3    H139608   1.474   2.343  61.495  0.7253  0.7074  1.2250
 6039TIP3    H239609   1.359   2.434  61.534  0.2375  0.6092  0.0464
 6040TIP3   OH239610   1.707   1.975   9.163  0.7178  0.2905 -0.4224
 6040TIP3    H139611   1.762   1.909   9.206  0.1458  0.1186  0.0524
 6040TIP3    H239612   1.679   2.032   9.235  0.6073  0.6155 -0.7261
 6041TIP3   OH239613   1.764   3.118  53.229 -0.8152  0.6084  0.1829
 6041TIP3    H139614   1.776   3.206  53.264 -0.6286  0.9388 -0.6786
 6041TIP3    H239615   1.813   3.118  53.147 -0.9332 -0.2557  0.0989
 6042TIP3   OH239616   3.427   0.374  50.584  0.3622 -0.1331 -0.0561
 6042TIP3    H139617   3.445   0.352  50.675 -1.5828  0.8084  0.5942
 6042TIP3    H239618   3.485   0.448  50.565 -0.4242  0.7757  0.9771
 6043TIP3   OH239619   3.402   0.770   1.428  0.0906 -0.1284 -0.2369
 6043TIP3    H139620   3.444   0.846   1.468  1.6721 -0.9787 -0.2069
 6043TIP3    H239621   3.312   0.799   1.411 -0.5711  0.4404  3.4356
 6044TIP3   OH239622   2.620   2.483  11.937  0.5149 -0.5834 -0.0477
 6044TIP3    H139623   2.613   2.459  12.029  2.7980  2.4645  1.0989
 6044TIP3    H239624   2.699   2.438  11.906 -0.0612 -1.3326 -0.4723
 6045TIP3   OH239625   0.083   3.390  11.687  0.4494 -0.0341 -0.4165
 6045TIP3    H139626   0.032   3.436  11.754  0.6426 -0.7260  0.2207
 6045TIP3    H239627   0.027   3.389  11.610 -0.2123 -0.1595  0.0612
 6046TIP3   OH239628   1.914   3.282  45.979 -0.2313  0.2559 -0.1326
 6046TIP3    H139629   1.935   3.262  46.070  0.7521  2.0606  0.0831
 6046TIP3    H239630   1.988   3.334  45.948 -1.1769  0.8301 -1.5419
 6047TIP3   OH239631   3.213   3.367  19.278  0.2808 -0.4252  0.5561
 6047TIP3    H139632   3.195   3.301  19.345  0.2130 -1.7194 -0.7088
 6047TIP3    H239633   3.307   3.358  19.260  0.5709  0.7644  1.3168
 6048TIP3   OH239634   0.514   1.877  16.473 -0.1933  0.5222  0.0381
 6048TIP3    H139635   0.523   1.956  16.421  0.9578 -0.1756 -0.8730
 6048TIP3    H239636   0.562   1.896  16.554 -0.9736  1.1809  0.3567
 6049TIP3   OH239637   1.489   0.951  45.135 -0.4263  0.0839 -1.2788
 6049TIP3    H139638   1.528   1.035  45.110  1.2191 -0.4502 -0.6581
 6049TIP3    H239639   1.505   0.894  45.060 -0.2654 -0.0459 -1.1491
 6050TIP3   OH239640   2.906   2.167  52.490  0.0719 -0.3157 -0.0662
 6050TIP3    H139641   2.894   2.086  52.538  1.2230 -0.1050  0.6172
 6050TIP3    H239642   2.998   2.166  52.464 -0.2504  0.1008 -1.3069
 6051TIP3   OH239643   2.860   1.655  45.549  0.1523 -0.7121  0.0512
 6051TIP3    H139644   2.899   1.727  45.500 -1.6549 -0.3618 -0.9761
 6051TIP3    H239645   2.782   1.693  45.589  0.9948 -1.2710  2.3957
 6052TIP3   OH239646   0.356   2.808   8.757  0.5932 -0.3577 -0.3811
 6052TIP3    H139647   0.414   2.788   8.830  0.5388 -0.7049 -0.4322
 6052TIP3    H239648   0.410   2.798   8.679  0.6617  0.0510 -0.3892
 6053TIP3   OH239649   0.088   3.385  12.350  0.3127 -0.8007  0.5458
 6053TIP3    H139650   0.108   3.461  12.296  0.4642 -1.5347 -0.4715
 6053TIP3    H239651   0.169   3.334  12.349  0.4306 -0.6617  1.7759
 6054TIP3   OH239652   0.627   3.300   1.706  0.2498  0.1643 -0.3031
 6054TIP3    H139653   0.597   3.390   1.700 -2.0553 -0.5621 -0.7771
 6054TIP3    H239654   0.622   3.279   1.800  0.4298  0.4125 -0.2373
 6055TIP3   OH239655   3.065   1.190  19.099 -0.1322 -0.0838  0.0460
 6055TIP3    H139656   3.093   1.107  19.137 -2.2019  0.6767  3.6528
 6055TIP3    H239657   3.140   1.248  19.111  0.3849 -0.7265 -0.0373
 6056TIP3   OH239658   2.703   0.266  66.567  0.1645  0.8600 -0.1236
 6056TIP3    H139659   2.690   0.171  66.576  0.4201  0.7393 -1.0007
 6056TIP3    H239660   2.745   0.291  66.650 -0.0200  0.2356  0.1695
 6057TIP3   OH239661   1.616   1.384  18.469 -0.4192  0.1451 -0.1520
 6057TIP3    H139662   1.596   1.478  18.472  0.3905  0.2975  2.2740
 6057TIP3    H239663   1.540   1.342  18.509  0.0095 -0.0587  0.4634
 6058TIP3   OH239664   2.841   2.297  42.815  0.0603 -0.0717 -0.2602
 6058TIP3    H139665   2.803   2.372  42.768 -0.2785  1.1283  1.8037
 6058TIP3    H239666   2.927   2.285  42.776  0.7941  2.4858  0.3894
 6059TIP3   OH239667   0.791   0.148  58.205 -1.1608 -0.1419 -0.6612
 6059TIP3    H139668   0.771   0.068  58.253  0.1654 -0.5450 -0.7504
 6059TIP3    H239669   0.874   0.178  58.241 -0.8365  0.3135 -1.7387
 6060TIP3   OH239670   1.141   3.276  59.717  0.0467 -0.6826  0.5562
 6060TIP3    H139671   1.046   3.288  59.709 -0.1407 -1.3064  1.5806
 6060TIP3    H239672   1.156   3.187  59.685  0.3190 -0.5178  0.2247
 6061TIP3   OH239673   1.891   2.224   0.341  0.1684  0.2262  0.1506
 6061TIP3    H139674   1.832   2.151   0.360  1.1800 -0.6898 -0.1455
 6061TIP3    H239675   1.833   2.299   0.328 -0.8681 -0.4374  0.8321
 6062TIP3   OH239676   2.560   0.482  61.336 -0.1259 -0.1115 -0.0854
 6062TIP3    H139677   2.542   0.534  61.258 -3.6792 -0.1134  0.5346
 6062TIP3    H239678   2.516   0.529  61.407 -0.0025 -1.8856  1.2365
 6063TIP3   OH239679   2.230   1.457  48.761 -0.4938 -0.1672  0.2109
 6063TIP3    H139680   2.181   1.466  48.679 -1.3132  0.7838  0.7691
 6063TIP3    H239681   2.215   1.541  48.806  0.5018 -0.4124  1.0290
 6064TIP3   OH239682   3.229   3.386  21.970 -0.2549 -0.4834  0.2941
 6064TIP3    H139683   3.142   3.378  21.930  0.6043 -0.4002 -1.7143
 6064TIP3    H239684   3.288   3.348  21.905  1.2576 -0.2175  1.4785
 6065TIP3   OH239685   3.163   2.135   1.004  0.0296  0.0663 -0.1431
 6065TIP3    H139686   3.140   2.162   0.915 -0.1190  0.3052 -0.0329
 6065TIP3    H239687   3.142   2.211   1.059 -2.0675 -0.8570  0.4307
 6066TIP3   OH239688   2.998   0.466  63.051 -0.2916 -0.1404 -0.1626
 6066TIP3    H139689   2.975   0.389  63.000  1.1993  0.0570 -1.1955
 6066TIP3    H239690   2.914   0.497  63.087 -1.4501 -0.2090 -2.6073
 6067TIP3   OH239691   0.578   1.989  21.822 -0.3102 -0.4822  0.3306
 6067TIP3    H139692   0.513   2.034  21.769  1.8031  0.8633 -1.2794
 6067TIP3    H239693   0.618   2.058  21.875  0.3851 -1.1133  0.6613
 6068TIP3   OH239694   0.652   2.344  15.645 -0.4994 -0.0054 -0.6876
 6068TIP3    H139695   0.701   2.354  15.726  0.3660 -0.7041 -1.1062
 6068TIP3    H239696   0.565   2.315  15.672 -0.5862  0.8981  0.0457
 6069TIP3   OH239697   0.301   2.414  13.157 -0.1759  0.0168 -0.0129
 6069TIP3    H139698   0.264   2.327  13.142  0.0813 -0.5359  2.2505
 6069TIP3    H239699   0.229   2.464  13.198  0.5948 -0.1202  1.5707
 6070TIP3   OH239700   0.356   0.072   6.736 -0.3677 -0.0784 -0.7197
 6070TIP3    H139701   0.380   0.143   6.676 -1.2825  1.9738  1.1735
 6070TIP3    H239702   0.421   0.078   6.806 -2.2146  1.0200  1.0105
 6071TIP3   OH239703   1.525   0.374  35.539 -0.2190  0.3265 -0.7058
 6071TIP3    H139704   1.563   0.290  35.513 -0.8136  0.0741 -0.7691
 6071TIP3    H239705   1.532   0.429  35.461 -0.7661  0.0050 -0.9847
 6072TIP3   OH239706   0.827   1.725  18.531 -0.9797  0.4942 -0.1650
 6072TIP3    H139707   0.841   1.818  18.550 -0.7380  0.4275 -0.0203
 6072TIP3    H239708   0.743   1.705  18.573 -0.9111  0.5853  0.0172
 6073TIP3   OH239709   1.532   1.794  14.872  0.0423 -0.0057  0.0579
 6073TIP3    H139710   1.466   1.862  14.885 -0.0092 -0.0945  0.2592
 6073TIP3    H239711   1.553   1.799  14.779  0.7773  0.9736  0.2543
 6074TIP3   OH239712   0.802   2.088   3.485  0.3742 -0.4659 -0.2034
 6074TIP3    H139713   0.876   2.141   3.455 -0.1843 -0.0913 -0.9493
 6074TIP3    H239714   0.831   1.997   3.473  1.0756 -0.3419  0.4443
 6075TIP3   OH239715   0.043   2.724  65.136 -0.0063  0.1422 -0.3769
 6075TIP3    H139716   0.098   2.655  65.173  0.6752 -0.5732 -2.5995
 6075TIP3    H239717  -0.045   2.687  65.137 -0.1049  0.3389  0.9091
 6076TIP3   OH239718   1.375   1.000  64.214  0.0019 -0.1645  0.0439
 6076TIP3    H139719   1.457   1.033  64.176 -0.0938 -1.7284 -1.6482
 6076TIP3    H239720   1.389   0.906  64.225 -1.6740 -0.5247 -0.6195
 6077TIP3   OH239721   3.254   2.558   9.546  0.6053 -0.1878  0.5046
 6077TIP3    H139722   3.258   2.480   9.491  1.4306  0.6544 -0.6695
 6077TIP3    H239723   3.344   2.589   9.552  0.2776  0.7634  0.8347
 6078TIP3   OH239724   1.627   0.957  43.273 -0.3241 -0.2160  0.3201
 6078TIP3    H139725   1.663   0.944  43.361 -0.0076 -0.2728  0.1795
 6078TIP3    H239726   1.691   0.918  43.214 -0.4299  0.0195  0.0456
 6079TIP3   OH239727   2.802   2.055   7.451  0.6183 -0.0013  0.9771
 6079TIP3    H139728   2.747   2.081   7.378  1.4823  0.7989  0.5886
 6079TIP3    H239729   2.776   2.113   7.523  0.6975  0.1313  0.8997
 6080TIP3   OH239730   1.715   1.083  35.279  0.0311 -0.4117  0.7299
 6080TIP3    H139731   1.685   1.053  35.365 -1.9793 -0.3719  0.1036
 6080TIP3    H239732   1.698   1.009  35.220 -0.7659  0.3341 -0.0165
 6081TIP3   OH239733   3.284   1.738  43.664 -0.0654  0.5097 -0.1265
 6081TIP3    H139734   3.207   1.736  43.719 -0.3058 -0.8782 -0.4605
 6081TIP3    H239735   3.315   1.828  43.668 -2.8399  1.6553 -1.5638
 6082TIP3   OH239736   0.952   0.775  51.384 -0.0908 -0.0390 -0.5208
 6082TIP3    H139737   0.979   0.811  51.300 -0.2155  0.2247 -0.4512
 6082TIP3    H239738   1.029   0.786  51.441 -0.5899  1.4654 -0.0938
 6083TIP3   OH239739   1.576   3.425  62.715 -0.3501  0.0906 -0.7061
 6083TIP3    H139740   1.536   3.345  62.680 -1.7534  0.1926  0.5494
 6083TIP3    H239741   1.606   3.399  62.803 -1.4184  1.0827 -0.0223
 6084TIP3   OH239742   2.336   3.421   4.587  0.5923  0.3025 -0.5697
 6084TIP3    H139743   2.316   3.341   4.538  1.6046 -0.4332  0.1563
 6084TIP3    H239744   2.268   3.483   4.561  0.9468 -0.1134 -2.7006
 6085TIP3   OH239745   0.329   0.400  43.199  0.4986 -0.0694 -0.3526
 6085TIP3    H139746   0.342   0.493  43.181  1.7257  0.0473  0.9920
 6085TIP3    H239747   0.238   0.383  43.172  0.1809  1.5624 -0.4013
 6086TIP3   OH239748   2.611   2.274   1.778 -0.4834  0.0560  0.7238
 6086TIP3    H139749   2.637   2.363   1.802 -0.5057 -0.0980  1.3236
 6086TIP3    H239750   2.529   2.286   1.729 -1.2904  0.2813  2.0494
 6087TIP3   OH239751   0.982   2.310  57.546  0.3595 -0.1679 -0.0306
 6087TIP3    H139752   0.952   2.368  57.616 -0.1848 -1.4933  0.8858
 6087TIP3    H239753   1.003   2.369  57.473  3.4352  1.5074  2.0251
 6088TIP3   OH239754   0.063   3.020   9.875  0.1579  0.0354  0.0602
 6088TIP3    H139755   0.039   2.997   9.785 -0.9731  0.0154  0.3530
 6088TIP3    H239756   0.125   3.092   9.865  0.3404 -0.2176 -0.7449
 6089TIP3   OH239757   1.636   0.768  37.476  0.4775 -0.1707  0.2719
 6089TIP3    H139758   1.580   0.737  37.548  0.7229 -1.5409 -0.0973
 6089TIP3    H239759   1.708   0.814  37.519  1.0104 -1.6120  0.9692
 6090TIP3   OH239760   2.170   1.603  27.847  0.1474  0.5561  0.2237
 6090TIP3    H139761   2.129   1.518  27.863 -1.4569  1.3368  0.4959
 6090TIP3    H239762   2.254   1.582  27.807 -0.9563 -1.1068 -1.3749
 6091TIP3   OH239763   1.313   2.521  52.612 -0.1945  0.1310 -0.2201
 6091TIP3    H139764   1.230   2.505  52.655 -1.3634  1.5165 -1.8113
 6091TIP3    H239765   1.337   2.610  52.638  0.8999 -0.3126  0.3499
 6092TIP3   OH239766   2.009   0.823  59.342 -0.4689 -0.5401  0.8741
 6092TIP3    H139767   2.068   0.871  59.401 -3.0737  0.7685  2.5901
 6092TIP3    H239768   2.062   0.749  59.311  2.2653  0.8921  1.7434
 6093TIP3   OH239769   1.499   0.047  10.038  0.0882 -0.2117 -0.4346
 6093TIP3    H139770   1.405   0.031  10.046 -0.0818  0.1133 -1.6043
 6093TIP3    H239771   1.531  -0.025   9.984  0.6810 -0.7970  0.6576
 6094TIP3   OH239772   1.501   1.303  13.375  0.5674 -0.7410  0.7649
 6094TIP3    H139773   1.424   1.345  13.412  0.4917 -1.4160  1.4110
 6094TIP3    H239774   1.575   1.352  13.411  0.5192 -1.7033  2.2963
 6095TIP3   OH239775   3.265   3.005   4.240  0.5043 -0.5830 -0.5202
 6095TIP3    H139776   3.188   3.062   4.237 -0.1791 -1.4834 -0.4080
 6095TIP3    H239777   3.276   2.984   4.333  1.6457  0.5248 -0.3721
 6096TIP3   OH239778   1.842   2.013  48.434 -0.3801  0.2863  0.5551
 6096TIP3    H139779   1.847   2.066  48.514  0.8990  0.6590  0.2610
 6096TIP3    H239780   1.867   2.073  48.364  1.0065 -0.6562  0.1995
 6097TIP3   OH239781   0.404   2.663   2.044 -0.3985 -0.5349 -0.3054
 6097TIP3    H139782   0.397   2.715   1.964 -3.0296  0.4696  0.4839
 6097TIP3    H239783   0.497   2.668   2.068  0.0957  0.6976 -2.2488
 6098TIP3   OH239784   3.376   0.006  46.616 -0.4476  0.0911  0.1354
 6098TIP3    H139785   3.344   0.085  46.573  1.1304 -0.0895 -1.4924
 6098TIP3    H239786   3.449   0.035  46.669 -0.8500 -0.0585  0.7826
 6099TIP3   OH239787   2.070   0.085  55.452 -0.3112  0.6510  0.7265
 6099TIP3    H139788   2.023   0.052  55.529 -1.4356  0.0902 -0.1772
 6099TIP3    H239789   2.156   0.043  55.458 -0.9133 -0.6086  0.8734
 6100TIP3   OH239790   0.984   2.543   3.644  0.3543  0.1739 -1.0288
 6100TIP3    H139791   0.953   2.529   3.734  1.2299  0.3843 -0.6831
 6100TIP3    H239792   1.079   2.531   3.649  0.3036 -0.7918 -2.1302
 6101TIP3   OH239793   1.244   0.274  12.674  0.3004 -0.0842 -0.2784
 6101TIP3    H139794   1.299   0.200  12.648  0.0080 -0.0976 -0.8657
 6101TIP3    H239795   1.159   0.234  12.692  1.0361 -0.4521  2.9789
 6102TIP3   OH239796   3.430   0.576  11.264  0.3042 -0.9741  0.0211
 6102TIP3    H139797   3.363   0.645  11.267 -0.4931 -1.7433  0.4811
 6102TIP3    H239798   3.431   0.547  11.173  1.5468  0.4751 -0.4696
 6103TIP3   OH239799   2.562   2.781  44.047  0.0885 -0.2851 -0.6183
 6103TIP3    H139800   2.597   2.693  44.049  0.9181  0.0489  0.6151
 6103TIP3    H239801   2.488   2.776  43.986 -2.2199 -2.7211  2.0827
 6104TIP3   OH239802   0.791   1.418  58.663  0.3435 -0.0555  0.4789
 6104TIP3    H139803   0.756   1.332  58.685 -0.1551  0.0273  0.0204
 6104TIP3    H239804   0.755   1.476  58.729  0.7995 -0.2215  0.8765
 6105TIP3   OH239805   1.051   1.410  57.209  0.5582  0.2200 -0.6220
 6105TIP3    H139806   1.076   1.492  57.165  1.8878 -1.1283 -2.5710
 6105TIP3    H239807   1.080   1.341  57.149 -0.4554 -1.7048  0.9793
 6106TIP3   OH239808   0.101   3.223  46.235  0.1988 -0.2141  0.0535
 6106TIP3    H139809   0.016   3.260  46.211  1.3902  2.0212 -1.1865
 6106TIP3    H239810   0.129   3.275  46.310  1.8490  1.5587 -1.6360
 6107TIP3   OH239811   2.662   2.882  44.479  0.0909  0.3487 -0.3060
 6107TIP3    H139812   2.728   2.882  44.549  0.3968 -2.3590 -0.5248
 6107TIP3    H239813   2.709   2.851  44.402 -1.3132 -1.2586 -0.5511
 6108TIP3   OH239814   1.109   2.336  51.156  0.0581  0.1435 -0.1256
 6108TIP3    H139815   1.179   2.399  51.146 -0.6172  0.9223 -0.0646
 6108TIP3    H239816   1.039   2.384  51.201 -1.0029 -0.2371 -1.2978
 6109TIP3   OH239817   2.532   2.708  57.384 -0.3669  0.1878 -0.4663
 6109TIP3    H139818   2.531   2.700  57.289 -1.5955  0.1472 -0.4671
 6109TIP3    H239819   2.462   2.771  57.404  0.2509  0.6267  0.3741
 6110TIP3   OH239820   2.565   3.079   5.600 -0.1045 -0.7099 -0.5647
 6110TIP3    H139821   2.515   3.033   5.667 -0.0342 -1.3476 -0.9388
 6110TIP3    H239822   2.527   3.167   5.597 -0.2532 -0.7473  0.1492
 6111TIP3   OH239823   3.226   0.775   0.279  0.3088  0.1673  0.2383
 6111TIP3    H139824   3.194   0.793   0.191 -0.7148 -1.0642  0.3246
 6111TIP3    H239825   3.278   0.852   0.303 -0.4930  1.0875 -0.9142
 6112TIP3   OH239826   0.710   3.135  58.964  0.2067 -0.5137  0.2166
 6112TIP3    H139827   0.626   3.115  58.924 -0.4575  0.1342  1.2353
 6112TIP3    H239828   0.747   3.204  58.910 -0.2616 -0.2797  0.1925
 6113TIP3   OH239829   3.271   0.354  61.968  0.6710 -0.5928 -0.0956
 6113TIP3    H139830   3.201   0.289  61.976 -1.3111  1.5688  0.9366
 6113TIP3    H239831   3.341   0.307  61.923 -1.3500 -2.9011 -1.0669
 6114TIP3   OH239832   2.136   1.954  48.922  0.2336 -0.3962  0.0159
 6114TIP3    H139833   2.127   1.970  49.016  0.3202 -0.4001  0.0241
 6114TIP3    H239834   2.107   2.036  48.881  0.8663 -0.1405  0.0690
 6115TIP3   OH239835   2.963   1.019  10.065 -0.2615 -0.5242  0.1661
 6115TIP3    H139836   2.950   1.078  10.139  0.4426  1.2056 -1.0375
 6115TIP3    H239837   3.054   0.991  10.072 -0.1986 -0.3714 -0.0312
 6116TIP3   OH239838   0.016   2.057  49.513 -0.1461  0.0596  0.0215
 6116TIP3    H139839   0.061   2.142  49.510  0.0419 -0.0422 -0.0866
 6116TIP3    H239840   0.085   1.993  49.495 -0.3782 -0.0840 -0.3694
 6117TIP3   OH239841   1.132   2.333  65.537 -0.4174  0.1474  0.5295
 6117TIP3    H139842   1.220   2.358  65.506 -0.8131  0.6347 -0.2271
 6117TIP3    H239843   1.122   2.382  65.619  0.1987 -0.2812  0.8728
 6118TIP3   OH239844   2.036   2.137  45.148  0.0681  0.1332  0.1772
 6118TIP3    H139845   1.973   2.071  45.176 -0.1358  1.0287  2.0591
 6118TIP3    H239846   2.099   2.090  45.095 -1.3950 -1.0664 -0.5604
 6119TIP3   OH239847   1.148   3.237  45.894  0.1626  0.7790 -0.2364
 6119TIP3    H139848   1.237   3.263  45.916  0.3950 -1.1678  1.4449
 6119TIP3    H239849   1.102   3.232  45.978 -1.3902  1.1958 -1.0172
 6120TIP3   OH239850   2.139   1.006  66.351 -0.1713  0.6481 -0.1221
 6120TIP3    H139851   2.215   1.063  66.357  0.1325  0.4323 -1.6085
 6120TIP3    H239852   2.079   1.052  66.292 -0.2482 -0.2039 -0.7149
 6121TIP3   OH239853   1.451   2.400  54.818 -0.1657 -0.8876  0.2262
 6121TIP3    H139854   1.434   2.491  54.841  0.5294 -0.3792 -1.1201
 6121TIP3    H239855   1.541   2.400  54.785 -0.0921 -2.0952  0.3645
 6122TIP3   OH239856   2.231   1.044  13.457 -0.1996 -0.4916 -0.3289
 6122TIP3    H139857   2.161   1.056  13.521 -0.1547  2.3733 -0.6779
 6122TIP3    H239858   2.291   1.117  13.473  1.8350 -1.8773 -1.1774
 6123TIP3   OH239859   2.148   1.721  52.122 -0.2715  0.6611  0.5545
 6123TIP3    H139860   2.073   1.723  52.062 -0.0097 -0.1913  0.1898
 6123TIP3    H239861   2.195   1.803  52.104 -1.5898  1.6549  1.4338
 6124TIP3   OH239862   2.511   1.591   7.170 -0.5244 -0.1148 -0.0455
 6124TIP3    H139863   2.436   1.578   7.112 -0.3939 -0.7374 -0.0850
 6124TIP3    H239864   2.529   1.685   7.165 -0.1051 -0.2517 -1.5173
 6125TIP3   OH239865   0.675   0.651   6.497 -0.0255 -0.5085  0.3555
 6125TIP3    H139866   0.732   0.713   6.544  0.6049 -0.5041 -0.4044
 6125TIP3    H239867   0.621   0.707   6.441  0.6209 -0.6372 -0.4146
 6126TIP3   OH239868   2.086   1.678  60.689  0.0548 -0.7615  0.1681
 6126TIP3    H139869   2.146   1.723  60.628 -1.0534 -0.1766 -0.5216
 6126TIP3    H239870   2.031   1.624  60.633 -1.5904  0.4757  0.5005
 6127TIP3   OH239871   1.739   1.410   0.373 -0.4890  0.2086  0.2953
 6127TIP3    H139872   1.822   1.368   0.396 -0.1352  0.8129  0.1646
 6127TIP3    H239873   1.708   1.447   0.456  0.2476  1.4599  0.0462
 6128TIP3   OH239874   2.983   2.332  44.360 -0.3581 -0.1880 -0.1242
 6128TIP3    H139875   2.906   2.389  44.354 -0.4460 -0.3301 -0.3658
 6128TIP3    H239876   3.044   2.369  44.297 -0.5253 -0.5270 -0.4905
 6129TIP3   OH239877   0.891   0.065   0.821 -0.3539 -0.3927 -0.1358
 6129TIP3    H139878   0.903  -0.022   0.782 -0.3879 -0.1245 -0.7600
 6129TIP3    H239879   0.930   0.057   0.908  0.1242 -0.8862 -0.3799
 6130TIP3   OH239880   2.254   2.511   5.238  0.0470  0.0176  0.1519
 6130TIP3    H139881   2.320   2.563   5.191  0.5519 -0.2081  0.6079
 6130TIP3    H239882   2.291   2.423   5.242 -1.0203 -0.5342 -1.0610
 6131TIP3   OH239883   2.335   2.243  43.831 -0.1139 -0.5231 -0.0442
 6131TIP3    H139884   2.384   2.271  43.754 -0.3880 -1.5955 -0.6285
 6131TIP3    H239885   2.352   2.311  43.896 -0.8427  1.0445 -1.4214
 6132TIP3   OH239886   1.520   0.415  53.087 -0.6603  0.2052  0.0791
 6132TIP3    H139887   1.552   0.445  53.172  0.5973  0.5114 -0.4859
 6132TIP3    H239888   1.509   0.320  53.099 -1.5769  0.3978  0.9047
 6133TIP3   OH239889   1.726   1.132  44.579 -0.3115 -0.0182  0.2378
 6133TIP3    H139890   1.804   1.077  44.589 -0.4048 -0.1036  0.4796
 6133TIP3    H239891   1.761   1.219  44.558 -0.1180  0.1861  1.3809
 6134TIP3   OH239892   1.560   1.978  12.985 -0.0460  0.2010 -0.3837
 6134TIP3    H139893   1.565   1.965  12.890 -0.9143 -0.7066 -0.3227
 6134TIP3    H239894   1.620   1.913  13.021  0.7455  0.9500 -0.3175
 6135TIP3   OH239895   1.630   0.436  60.703 -0.4370 -0.0983  0.1447
 6135TIP3    H139896   1.721   0.461  60.720 -0.9899  1.4747  1.0608
 6135TIP3    H239897   1.625   0.343  60.723  0.7296  0.0430  1.1260
 6136TIP3   OH239898   0.979   1.321   2.101 -0.1245 -0.2641  0.7974
 6136TIP3    H139899   0.902   1.354   2.055 -0.6329 -1.4859  0.7337
 6136TIP3    H239900   0.995   1.386   2.169  0.8170  1.7394 -1.2105
 6137TIP3   OH239901   2.012   2.873   4.125  0.1610  0.4756 -0.8593
 6137TIP3    H139902   1.968   2.946   4.081 -0.4384 -0.4030 -1.7394
 6137TIP3    H239903   1.954   2.798   4.112  0.2916  0.0207  0.8614
 6138TIP3   OH239904   3.217   1.234  64.662 -0.2110  0.1500 -0.2740
 6138TIP3    H139905   3.267   1.154  64.647  1.3469  1.2993 -1.5450
 6138TIP3    H239906   3.189   1.228  64.753 -1.4417 -2.4996 -0.7101
 6139TIP3   OH239907   1.411   0.021  44.348  0.0746  0.0560 -0.4647
 6139TIP3    H139908   1.353   0.012  44.273  0.2021  0.3964 -0.6056
 6139TIP3    H239909   1.483  -0.039  44.330  0.5545  0.7940 -1.0440
 6140TIP3   OH239910   2.337   0.352  11.183  0.0302 -0.4186  0.1552
 6140TIP3    H139911   2.407   0.398  11.228 -0.4155  0.0015  0.4349
 6140TIP3    H239912   2.313   0.281  11.243 -1.6324  1.0709  1.3743
 6141TIP3   OH239913   2.987   0.528  47.877  0.0809  0.1581 -0.2903
 6141TIP3    H139914   2.940   0.579  47.811 -0.8337  1.8346  1.5451
 6141TIP3    H239915   3.029   0.594  47.932 -0.2584 -1.0998  1.5684
 6142TIP3   OH239916   3.375   2.128  42.665 -0.1953 -0.3011  0.1476
 6142TIP3    H139917   3.369   2.219  42.634  0.6220 -0.2464  0.1145
 6142TIP3    H239918   3.362   2.135  42.759  0.8794 -0.0060  0.2881
 6143TIP3   OH239919   2.084   2.033  66.433  0.1895 -0.0105 -0.0899
 6143TIP3    H139920   2.091   2.110  66.491  1.0524  0.8566 -1.2881
 6143TIP3    H239921   2.171   1.994  66.436 -0.4908 -1.5452  1.2408
 6144TIP3   OH239922   0.026   2.491  13.556  0.2013 -0.3859 -0.2457
 6144TIP3    H139923  -0.031   2.470  13.630  1.9797  0.3591  1.4103
 6144TIP3    H239924  -0.025   2.552  13.504 -0.6950 -0.0655  0.9503
 6145TIP3   OH239925   0.194   1.018  18.581 -0.3280 -0.3717  0.6296
 6145TIP3    H139926   0.231   1.100  18.614 -2.3436  0.4359  1.0372
 6145TIP3    H239927   0.250   0.995  18.507 -0.8294  2.4762 -0.7974
 6146TIP3   OH239928   2.412   2.320  60.671  0.4416 -0.4032  0.1251
 6146TIP3    H139929   2.373   2.361  60.749 -1.4846  1.2634 -1.6129
 6146TIP3    H239930   2.341   2.267  60.634 -0.1568  2.0994 -2.6927
 6147TIP3   OH239931   0.701   3.379  52.329  0.0781 -0.2090  0.2259
 6147TIP3    H139932   0.731   3.468  52.347 -1.0730  0.3117 -0.3652
 6147TIP3    H239933   0.647   3.387  52.251 -2.7185 -0.8522  1.9717
 6148TIP3   OH239934   0.582   2.303  10.527 -0.4644  0.2548  0.1597
 6148TIP3    H139935   0.549   2.214  10.537 -0.5867  0.3353  0.4847
 6148TIP3    H239936   0.606   2.309  10.435  0.3465 -0.3928  0.3064
 6149TIP3   OH239937   1.726   1.698  60.263 -0.4675 -0.2078  0.0906
 6149TIP3    H139938   1.652   1.747  60.300 -0.6555 -0.1296 -0.3858
 6149TIP3    H239939   1.686   1.627  60.214 -0.1728 -1.9567  2.2482
 6150TIP3   OH239940   0.088   1.200  18.921 -0.3101  0.3253  0.0430
 6150TIP3    H139941   0.180   1.173  18.924  0.2206  2.0642  0.9769
 6150TIP3    H239942   0.088   1.280  18.868 -1.5863 -0.5918 -1.4172
 6151TIP3   OH239943   0.988   2.072  52.152  0.1944 -0.0802  0.1417
 6151TIP3    H139944   0.965   2.068  52.244 -0.6443  0.7427 -0.0163
 6151TIP3    H239945   0.939   2.146  52.118 -0.1222 -0.8425 -1.1404
 6152TIP3   OH239946   0.191   0.640  30.509 -0.0188 -0.4184 -0.1865
 6152TIP3    H139947   0.172   0.598  30.425 -0.0586 -0.4082 -0.1828
 6152TIP3    H239948   0.287   0.644  30.513 -0.0186  0.6933 -0.7851
 6153TIP3   OH239949   0.737   1.221  49.089  0.1266  0.1758 -0.4846
 6153TIP3    H139950   0.786   1.168  49.026 -0.0589 -1.8132  0.9645
 6153TIP3    H239951   0.796   1.292  49.112  1.8167 -1.3574  0.1129
 6154TIP3   OH239952   0.424   0.655  62.035 -0.4288 -0.5027 -0.2497
 6154TIP3    H139953   0.411   0.748  62.014  0.8236 -0.0292  0.9216
 6154TIP3    H239954   0.418   0.610  61.951  0.0629  0.7769 -0.9963
 6155TIP3   OH239955   0.857   1.764  48.154  0.5657  0.2297 -0.0328
 6155TIP3    H139956   0.776   1.768  48.205  0.0507  2.7598 -0.8792
 6155TIP3    H239957   0.860   1.674  48.120 -2.5989  0.3509 -0.9901
 6156TIP3   OH239958   1.773   3.130  59.969  0.0418  0.5604  0.3567
 6156TIP3    H139959   1.759   3.215  59.926  0.2998  1.1016  1.2943
 6156TIP3    H239960   1.685   3.099  59.989 -0.1648 -0.3617 -1.7337
 6157TIP3   OH239961   0.050   1.751  22.001  0.3704 -0.0536 -0.4884
 6157TIP3    H139962   0.127   1.788  21.957 -0.1835  1.0145 -0.5841
 6157TIP3    H239963  -0.023   1.806  21.972  0.0870  1.2631  2.3691
 6158TIP3   OH239964   1.977   2.824  19.070  0.6966  0.0648  0.0635
 6158TIP3    H139965   2.004   2.732  19.063 -0.7236 -0.3610 -0.0004
 6158TIP3    H239966   1.949   2.835  19.161 -1.9024 -0.3946 -0.6035
 6159TIP3   OH239967   0.697   0.732   3.503 -0.4356  0.1796  0.4507
 6159TIP3    H139968   0.734   0.724   3.415  1.1429  1.9051  0.8942
 6159TIP3    H239969   0.609   0.695   3.496  0.5766 -2.2149 -1.1716
 6160TIP3   OH239970   0.016   0.913  46.225 -0.1595  0.2652  0.0827
 6160TIP3    H139971   0.045   0.913  46.316  0.1998 -0.3651 -0.0291
 6160TIP3    H239972   0.065   0.983  46.184  0.5112 -0.1763  0.1180
 6161TIP3   OH239973   1.440   2.402   1.565 -0.0549  0.4021  0.0092
 6161TIP3    H139974   1.407   2.488   1.538  1.3344  0.3916 -1.9551
 6161TIP3    H239975   1.534   2.405   1.543  0.1837 -1.3219  0.6681
 6162TIP3   OH239976   1.169   1.719  67.018 -0.1695 -0.0341  0.3321
 6162TIP3    H139977   1.167   1.804  67.063 -0.0635  0.2722 -0.2254
 6162TIP3    H239978   1.122   1.735  66.936 -2.0121 -1.0686  1.1285
 6163TIP3   OH239979   3.054   3.427  10.733  0.0296 -0.1121 -0.2975
 6163TIP3    H139980   3.116   3.372  10.780  0.1401  0.5595  0.3500
 6163TIP3    H239981   3.106   3.498  10.696 -0.3847  0.6458  0.5364
 6164TIP3   OH239982   1.690   0.707  43.735 -0.6225 -0.2033 -0.0058
 6164TIP3    H139983   1.695   0.777  43.670  4.3205  1.5052  1.7326
 6164TIP3    H239984   1.652   0.749  43.812  1.6081  0.5699  0.7797
 6165TIP3   OH239985   3.148   1.878   5.974 -0.0508 -0.2088  0.0435
 6165TIP3    H139986   3.116   1.807   6.029 -0.2023 -1.9330 -2.1677
 6165TIP3    H239987   3.243   1.873   5.980 -0.0565  0.6032  1.2826
 6166TIP3   OH239988   1.583   0.769  36.009  0.3106 -0.5039  0.1130
 6166TIP3    H139989   1.535   0.726  35.938  0.2008 -0.1088 -0.0555
 6166TIP3    H239990   1.623   0.697  36.058 -1.9374 -1.0286  1.3507
 6167TIP3   OH239991   2.067   0.283  66.005 -0.1815 -0.1157  0.8102
 6167TIP3    H139992   2.046   0.189  65.998  0.0722 -0.2727  1.9629
 6167TIP3    H239993   2.026   0.322  65.928 -0.4909 -1.1476  0.4322
 6168TIP3   OH239994   2.647   1.195  47.330  0.1370  1.4646 -0.0196
 6168TIP3    H139995   2.727   1.204  47.278 -0.2663  0.4419 -0.8377
 6168TIP3    H239996   2.583   1.251  47.285 -0.4629 -0.0812 -1.2049
 6169TIP3   OH239997   2.766   2.115  43.077  0.5373  0.4935 -0.0645
 6169TIP3    H139998   2.849   2.069  43.064  0.0375 -0.0333 -1.6869
 6169TIP3    H239999   2.779   2.201  43.037  0.0144  0.0443 -1.2557
 6170TIP3   OH240000   0.341   2.130  10.272 -0.3467  0.2205 -0.1969
 6170TIP3    H140001   0.378   2.170  10.193 -1.2646  0.3481 -0.5734
 6170TIP3    H240002   0.347   2.036  10.256  0.3702  0.2206  0.0148
 6171TIP3   OH240003   0.818   3.370  55.617  0.6801 -0.6276 -0.0446
 6171TIP3    H140004   0.786   3.422  55.691 -1.8822  1.1644 -2.2356
 6171TIP3    H240005   0.739   3.343  55.571  2.1761 -0.1269 -3.1505
 6172TIP3   OH240006   2.621   0.980  18.834 -0.0765 -0.3534 -0.4403
 6172TIP3    H140007   2.684   1.044  18.868  0.0913 -0.5060 -0.4633
 6172TIP3    H240008   2.674   0.903  18.813 -0.5222 -1.2500  1.4834
 6173TIP3   OH240009   2.311   3.326  52.004 -0.3375 -0.1307 -0.1914
 6173TIP3    H140010   2.368   3.351  52.076 -1.3053  2.7007 -0.2537
 6173TIP3    H240011   2.305   3.231  52.009  3.9353 -0.5772  0.0667
 6174TIP3   OH240012   2.391   2.280   5.892 -0.3547 -0.5185 -0.0558
 6174TIP3    H140013   2.339   2.359   5.876  0.6526  0.4526  1.2295
 6174TIP3    H240014   2.402   2.277   5.987  1.0032 -1.2783 -0.2079
 6175TIP3   OH240015   1.157   3.156   0.008  0.2838  0.2487  0.2592
 6175TIP3    H140016   1.158   3.249  -0.016  1.3309  1.0200  2.8641
 6175TIP3    H240017   1.116   3.156   0.095 -1.3868 -1.9986 -0.4495
 6176TIP3   OH240018   0.667   3.340  20.355  0.3682 -0.9285 -0.0055
 6176TIP3    H140019   0.666   3.420  20.408  0.3791  0.4604 -1.9977
 6176TIP3    H240020   0.741   3.290  20.389  0.7495  0.2048  0.8933
 6177TIP3   OH240021   2.688   0.367  44.725  0.3777  0.0232 -0.2497
 6177TIP3    H140022   2.605   0.386  44.771 -1.0436 -2.2505 -1.6658
 6177TIP3    H240023   2.675   0.279  44.689  3.0678  0.0188 -1.3967
 6178TIP3   OH240024   2.890   2.371  51.033 -0.0734 -0.0072  0.2006
 6178TIP3    H140025   2.902   2.358  51.127 -0.3474  0.1104  0.2505
 6178TIP3    H240026   2.798   2.348  51.017 -0.7868  2.4233  0.4017
 6179TIP3   OH240027   2.064   2.239  61.265  0.4965 -0.2326 -0.0142
 6179TIP3    H140028   2.126   2.229  61.192 -0.4948 -0.4571 -0.8402
 6179TIP3    H240029   2.029   2.150  61.278  1.2646 -0.3576  1.2847
 6180TIP3   OH240030   3.065   1.899  13.468 -0.0626  0.1465  0.0492
 6180TIP3    H140031   3.024   1.817  13.497  0.7335  0.0374  0.9314
 6180TIP3    H240032   3.012   1.928  13.394 -0.5256 -1.0169 -0.0908
 6181TIP3   OH240033   2.373   0.185  63.388  0.3262 -0.4293 -0.2081
 6181TIP3    H140034   2.371   0.237  63.468  0.1986 -1.0477  0.1922
 6181TIP3    H240035   2.466   0.177  63.367  0.4744 -1.5727  0.7503
 6182TIP3   OH240036   1.430   1.354  66.249  0.0088  0.3165  0.1327
 6182TIP3    H140037   1.487   1.361  66.173  0.9136  1.2746  0.8621
 6182TIP3    H240038   1.394   1.442  66.260  0.7104  0.4792  1.3979
 6183TIP3   OH240039   0.245   1.993  55.779  0.0211  0.3874 -0.0738
 6183TIP3    H140040   0.210   1.952  55.858 -1.0113 -2.0456 -1.6663
 6183TIP3    H240041   0.340   1.992  55.791  0.2076 -3.7692 -0.4117
 6184TIP3   OH240042   2.917   2.956  21.404 -0.9646 -0.2411 -0.1623
 6184TIP3    H140043   2.972   3.029  21.375  0.2380 -1.0628 -0.0455
 6184TIP3    H240044   2.919   2.893  21.332  1.9422 -2.2447  1.4494
 6185TIP3   OH240045   3.033   1.830  18.497  0.3052 -0.5439 -0.5421
 6185TIP3    H140046   3.000   1.741  18.487 -1.5438  0.0038  0.3139
 6185TIP3    H240047   2.987   1.864  18.573  1.7717  0.8131 -0.2104
 6186TIP3   OH240048   1.874   2.494  20.276  0.1951 -0.2052 -0.1052
 6186TIP3    H140049   1.951   2.493  20.333  1.0713 -0.9164 -1.2748
 6186TIP3    H240050   1.895   2.433  20.206 -0.5125  1.2436 -1.6501
 6187TIP3   OH240051   3.196   3.068  63.382 -0.0808  0.3514 -0.0794
 6187TIP3    H140052   3.124   3.086  63.322  1.1065  2.3529 -0.9772
 6187TIP3    H240053   3.203   3.147  63.436  2.5180  0.9766 -1.1992
 6188TIP3   OH240054   1.676   3.305  17.511 -0.3350 -0.1424  0.3629
 6188TIP3    H140055   1.689   3.218  17.474  0.2744  0.3350 -0.5657
 6188TIP3    H240056   1.763   3.345  17.511 -0.6523  0.5670  0.5375
 6189TIP3   OH240057   2.074   2.112   5.273 -0.0794 -0.0974  0.1622
 6189TIP3    H140058   2.090   2.182   5.336  0.4664  0.8938 -1.0365
 6189TIP3    H240059   2.154   2.061   5.273  0.3820  0.6049 -0.5723
 6190TIP3   OH240060   0.520   1.191  45.149 -0.4747 -0.3895  0.1035
 6190TIP3    H140061   0.570   1.149  45.078 -1.9895  1.1127 -1.9549
 6190TIP3    H240062   0.441   1.138  45.157 -1.2867  0.6306 -0.8593
 6191TIP3   OH240063   0.367   3.012  55.083  0.4706 -0.0793  0.0094
 6191TIP3    H140064   0.421   2.968  55.017  0.3109  0.8367 -0.7468
 6191TIP3    H240065   0.349   2.944  55.148  1.4438 -0.7393 -0.3899
 6192TIP3   OH240066   3.349   2.270  28.792  0.0602 -0.2781  0.2932
 6192TIP3    H140067   3.358   2.316  28.709 -1.3658 -0.4588  0.0199
 6192TIP3    H240068   3.350   2.340  28.858  1.7723 -0.1756  0.2093
 6193TIP3   OH240069   0.403   2.860  56.136 -0.3927  0.1445  0.3576
 6193TIP3    H140070   0.341   2.838  56.205 -1.6726  2.3734  0.0058
 6193TIP3    H240071   0.373   2.811  56.059 -0.5876 -0.2192  0.6651
 6194TIP3   OH240072   0.585   0.939   0.403 -0.1243 -0.3042  0.4317
 6194TIP3    H140073   0.507   0.991   0.386 -0.3784 -1.3749 -2.1169
 6194TIP3    H240074   0.569   0.898   0.488 -1.8834  0.2427  0.3939
 6195TIP3   OH240075   3.305   1.947  48.608 -0.4990 -0.3730  0.3737
 6195TIP3    H140076   3.259   2.031  48.600  0.3347  0.0230 -0.4767
 6195TIP3    H240077   3.237   1.881  48.591 -0.7812  0.1977 -0.8554
 6196TIP3   OH240078   3.431   2.769  61.658 -0.3984 -0.0442  0.1273
 6196TIP3    H140079   3.400   2.820  61.583  0.6969  0.8834  0.2793
 6196TIP3    H240080   3.359   2.709  61.678 -2.1081  1.9801  0.4486
 6197TIP3   OH240081   0.155   0.440  54.926 -0.1354 -0.8226 -0.3791
 6197TIP3    H140082   0.063   0.466  54.922 -0.1191 -0.8747 -1.3862
 6197TIP3    H240083   0.203   0.523  54.932 -0.2147 -0.7504 -0.7096
 6198TIP3   OH240084   2.943   1.210  14.185 -0.4469  0.2313 -0.2575
 6198TIP3    H140085   2.871   1.165  14.230 -0.8272  0.9299 -0.1555
 6198TIP3    H240086   3.017   1.203  14.245 -0.5477 -0.1211 -0.1744
 6199TIP3   OH240087   0.658   0.754  30.606  0.2805  0.1272  0.0432
 6199TIP3    H140088   0.723   0.687  30.584 -0.5915 -1.2784  1.4901
 6199TIP3    H240089   0.694   0.799  30.682  0.3089  0.4598 -0.1674
 6200TIP3   OH240090   0.365   0.638  64.064 -0.5510 -0.2148 -0.1244
 6200TIP3    H140091   0.420   0.644  63.986  0.7727 -0.1960  0.7756
 6200TIP3    H240092   0.306   0.714  64.058  0.4840  0.5935 -0.4115
 6201TIP3   OH240093   1.182   1.395  47.015  0.1663 -0.0596  0.4425
 6201TIP3    H140094   1.152   1.326  46.956  0.9183  0.7600 -0.9393
 6201TIP3    H240095   1.146   1.476  46.979  0.8590  0.4886  0.9362
 6202TIP3   OH240096   0.747   1.097  49.759 -0.4955 -0.1660  0.0773
 6202TIP3    H140097   0.826   1.127  49.803 -1.1565  1.1558  0.4305
 6202TIP3    H240098   0.725   1.169  49.699 -1.1387 -0.7366 -0.3869
 6203TIP3   OH240099   3.138   0.775  57.592 -0.5810  0.0934 -0.0830
 6203TIP3    H140100   3.182   0.769  57.677  1.0941  0.2806 -0.8902
 6203TIP3    H240101   3.190   0.720  57.534 -0.6676  1.3236 -1.3939
 6204TIP3   OH240102   1.996   1.521   9.310 -0.7108  0.4632  0.1971
 6204TIP3    H140103   2.032   1.552   9.393  2.3965 -0.1578 -0.8067
 6204TIP3    H240104   1.963   1.433   9.328  3.5411 -1.3770  0.1393
 6205TIP3   OH240105   2.223   3.138  14.944  0.0608 -0.0436 -0.0320
 6205TIP3    H140106   2.197   3.210  14.887  0.7548 -1.2166 -1.9145
 6205TIP3    H240107   2.220   3.060  14.889 -1.5653 -1.6746  2.1704
 6206TIP3   OH240108   0.555   0.053  63.520  0.0531  0.1093  0.2479
 6206TIP3    H140109   0.598   0.072  63.604 -1.4212 -1.4788  1.4557
 6206TIP3    H240110   0.495   0.126  63.506  1.1441  0.9759 -0.0682
 6207TIP3   OH240111   2.759   2.470  45.126 -0.6941 -0.5772 -0.8132
 6207TIP3    H140112   2.820   2.401  45.152  0.5524  0.0409 -2.0256
 6207TIP3    H240113   2.683   2.423  45.092  0.3490 -1.3829 -2.1039
 6208TIP3   OH240114   0.935   1.479  10.847 -0.4727  0.0514 -0.4809
 6208TIP3    H140115   0.893   1.485  10.762  1.5644 -0.8310 -1.6095
 6208TIP3    H240116   0.909   1.393  10.881  0.6191 -0.6281 -1.3154
 6209TIP3   OH240117   2.836   0.053  10.120 -0.6103  0.1491 -0.0371
 6209TIP3    H140118   2.883   0.092  10.195  3.4009 -1.7090 -1.2879
 6209TIP3    H240119   2.783  -0.017  10.159  1.5572 -0.9216  1.1905
 6210TIP3   OH240120   1.840   2.881  63.967  0.7682  0.4291 -0.1499
 6210TIP3    H140121   1.803   2.936  63.898 -0.7056  1.0139  1.0321
 6210TIP3    H240122   1.893   2.941  64.020 -0.6814  0.7365  1.0254
 6211TIP3   OH240123   2.389   2.527   0.156 -0.4060  0.4208 -0.1250
 6211TIP3    H140124   2.300   2.493   0.145 -0.3669  0.2083  0.1937
 6211TIP3    H240125   2.395   2.550   0.249 -0.0366  0.1613 -0.0797
 6212TIP3   OH240126   0.663   3.402   9.624  0.0901  0.5351 -0.4934
 6212TIP3    H140127   0.636   3.425   9.535 -0.5838  0.2911 -0.3573
 6212TIP3    H240128   0.686   3.309   9.619 -1.0948  0.2140 -0.1594
 6213TIP3   OH240129   1.785   1.646  13.636 -0.2390 -0.2695  0.0811
 6213TIP3    H140130   1.786   1.612  13.725  1.0440  0.3242  0.3062
 6213TIP3    H240131   1.805   1.739  13.645  2.3930 -0.6399 -0.9717
 6214TIP3   OH240132   1.940   1.987  61.167  0.2964 -0.0864 -0.1599
 6214TIP3    H140133   1.910   1.915  61.112 -0.9198  0.9931 -1.0061
 6214TIP3    H240134   1.863   2.044  61.174  1.3448  1.3552  0.0705
 6215TIP3   OH240135   3.237   0.397  27.908  0.2167 -0.2201 -0.5387
 6215TIP3    H140136   3.218   0.336  27.979  0.5023  0.6867  0.3451
 6215TIP3    H240137   3.233   0.344  27.829  1.9134 -1.7220  0.3005
 6216TIP3   OH240138   1.222   2.818   1.181 -0.2416 -0.2142 -0.0829
 6216TIP3    H140139   1.276   2.870   1.240 -0.3509  0.7558 -0.8241
 6216TIP3    H240140   1.274   2.739   1.163  0.4063  0.1554  0.1575
 6217TIP3   OH240141   3.114   2.901   2.317  0.3014  0.2837 -0.0892
 6217TIP3    H140142   3.022   2.912   2.294  0.5830  1.0367 -0.8978
 6217TIP3    H240143   3.157   2.980   2.285  1.3329 -0.3292 -0.2872
 6218TIP3   OH240144   3.113   2.148  56.729  0.1799  0.0952 -0.1508
 6218TIP3    H140145   3.022   2.138  56.702  0.3735  0.3079 -0.8903
 6218TIP3    H240146   3.147   2.059  56.732 -0.3660 -0.1044  1.2962
 6219TIP3   OH240147   1.506   2.190  60.392  0.5833  0.1537 -0.3451
 6219TIP3    H140148   1.498   2.116  60.452  0.5806 -0.3769 -0.9836
 6219TIP3    H240149   1.562   2.253  60.438  0.8024 -0.3614  0.1006
 6220TIP3   OH240150   3.329   1.045  61.383 -0.2411  0.1661  0.1564
 6220TIP3    H140151   3.356   1.107  61.316 -1.9269  1.4186  0.5608
 6220TIP3    H240152   3.299   1.099  61.456 -0.6824 -1.1294  0.9764
 6221TIP3   OH240153   2.085   2.802  12.464 -1.0253 -0.1681  0.1699
 6221TIP3    H140154   2.154   2.867  12.451 -0.1007 -1.3301 -1.0318
 6221TIP3    H240155   2.016   2.827  12.403 -0.5763 -0.4117 -0.4527
 6222TIP3   OH240156   1.960   2.783  14.249 -0.6279  0.1867  0.4521
 6222TIP3    H140157   2.028   2.800  14.314  0.0284 -1.5505  0.2942
 6222TIP3    H240158   1.942   2.689  14.258 -2.7347  0.5133  0.2075
 6223TIP3   OH240159   1.771   0.126   7.373  0.1776 -0.2995 -0.1970
 6223TIP3    H140160   1.826   0.071   7.429 -1.2688 -1.0210  0.5510
 6223TIP3    H240161   1.726   0.184   7.434 -0.5181 -0.2760 -0.7211
 6224TIP3   OH240162   2.952   1.843  29.682 -0.3754  0.0055 -0.0601
 6224TIP3    H140163   3.013   1.898  29.633  1.2283 -0.5189  1.2560
 6224TIP3    H240164   2.939   1.766  29.627  0.6273 -0.1445 -0.0987
 6225TIP3   OH240165   0.238   0.964  44.135  0.3058 -0.1206  0.2461
 6225TIP3    H140166   0.331   0.973  44.112  0.5467 -0.2750  1.1143
 6225TIP3    H240167   0.228   1.015  44.216 -0.2959 -0.3691  0.3316
 6226TIP3   OH240168   0.561   1.714  53.203  0.2548 -0.4052 -0.3222
 6226TIP3    H140169   0.591   1.788  53.256 -0.4380  0.0272 -0.5133
 6226TIP3    H240170   0.641   1.665  53.183  0.4899 -0.7767  1.3801
 6227TIP3   OH240171   0.763   1.252  60.219 -0.0814  1.1479 -0.1960
 6227TIP3    H140172   0.714   1.328  60.251  1.6178  1.8521  0.9334
 6227TIP3    H240173   0.826   1.234  60.289  0.1768 -0.7289 -0.8665
 6228TIP3   OH240174   3.374   1.617  58.771 -0.4875  0.3251 -0.3960
 6228TIP3    H140175   3.461   1.635  58.735 -0.4893  2.0402  0.3631
 6228TIP3    H240176   3.334   1.557  58.708  1.3808 -0.8235 -0.5559
 6229TIP3   OH240177   2.162   2.970  15.705 -0.1057  0.3979  0.2796
 6229TIP3    H140178   2.250   3.007  15.714  0.0380 -0.1801  1.3950
 6229TIP3    H240179   2.169   2.910  15.631  0.4320  0.3552  0.3586
 6230TIP3   OH240180   0.906   0.010   9.704  0.0120 -0.5221  0.5431
 6230TIP3    H140181   0.814  -0.005   9.681 -0.4526  0.7323  1.4788
 6230TIP3    H240182   0.954  -0.058   9.655 -1.4865 -1.8649  0.8336
 6231TIP3   OH240183   1.563   2.751  10.538 -0.0067 -0.4416 -0.1437
 6231TIP3    H140184   1.494   2.810  10.568  0.2064  1.3079 -2.7263
 6231TIP3    H240185   1.643   2.787  10.578 -0.3106 -1.5118  1.5487
 6232TIP3   OH240186   0.471   0.113  53.267 -0.4914 -0.0436  0.3076
 6232TIP3    H140187   0.385   0.153  53.281  0.2071  2.2985 -1.3478
 6232TIP3    H240188   0.534   0.183  53.286  0.9798 -1.2672  0.1586
 6233TIP3   OH240189   1.166   2.457  12.999  0.3084 -0.2397  0.2451
 6233TIP3    H140190   1.198   2.378  12.955  0.5613 -1.0337  1.7749
 6233TIP3    H240191   1.166   2.524  12.931  0.5239 -1.4419 -0.9854
 6234TIP3   OH240192   0.198   1.590  58.746 -0.7254 -0.0877  0.2645
 6234TIP3    H140193   0.278   1.538  58.737 -0.7932 -0.0931 -0.3550
 6234TIP3    H240194   0.229   1.681  58.747 -0.7743 -0.0438 -0.9554
 6235TIP3   OH240195   2.990   3.130  66.566  0.6885  0.2548 -0.1151
 6235TIP3    H140196   2.950   3.052  66.528 -0.5230  0.8221 -0.0498
 6235TIP3    H240197   3.084   3.111  66.567  0.6465 -0.3430 -2.1046
 6236TIP3   OH240198   1.768   2.773  46.733  0.2925 -0.1123 -0.2463
 6236TIP3    H140199   1.774   2.796  46.826  2.1495 -1.0291 -0.0940
 6236TIP3    H240200   1.840   2.821  46.692 -1.6710  1.8495 -1.6254
 6237TIP3   OH240201   2.215   3.058   2.311 -0.0196  0.1285 -0.0145
 6237TIP3    H140202   2.171   2.997   2.251  2.0154 -1.3637 -0.1090
 6237TIP3    H240203   2.242   3.003   2.385  0.6168  1.2131  0.5895
 6238TIP3   OH240204   0.171   3.021   5.230  0.0519 -0.0042  0.0887
 6238TIP3    H140205   0.091   3.052   5.273 -0.8918 -0.3939 -1.3156
 6238TIP3    H240206   0.234   3.011   5.301 -1.2346  0.0057  1.2745
 6239TIP3   OH240207   0.382   1.243  13.933  0.1729  0.1224  0.4901
 6239TIP3    H140208   0.365   1.335  13.954 -0.5952  0.0075  0.4019
 6239TIP3    H240209   0.305   1.215  13.883 -0.1210 -0.8837  1.4782
 6240TIP3   OH240210   0.238   3.192   0.173  0.3694 -0.2858  0.7448
 6240TIP3    H140211   0.310   3.254   0.158  0.7132 -0.5227  1.3563
 6240TIP3    H240212   0.175   3.211   0.104  0.0214  1.3930  1.4502
 6241TIP3   OH240213   0.508   2.995  14.748  0.3109  0.0437 -0.6621
 6241TIP3    H140214   0.590   2.956  14.778 -0.3339 -0.2830  0.7304
 6241TIP3    H240215   0.444   2.971  14.814 -0.8944  0.4149 -1.6558
 6242TIP3   OH240216   2.768   0.010  15.749  0.7847  0.1809  0.1249
 6242TIP3    H140217   2.703  -0.026  15.688  0.1090 -0.2463  1.0712
 6242TIP3    H240218   2.823  -0.065  15.771 -0.5479 -0.3418  2.0019
 6243TIP3   OH240219   2.814   1.297  66.734  0.1665  0.1399  0.2102
 6243TIP3    H140220   2.724   1.303  66.764 -0.8259  0.4044 -2.4779
 6243TIP3    H240221   2.854   1.228  66.786 -2.0372 -0.9966  0.4742
 6244TIP3   OH240222   0.841   1.806  66.383 -0.2817 -0.1365  0.0329
 6244TIP3    H140223   0.872   1.868  66.317  0.1881  1.2616  1.5003
 6244TIP3    H240224   0.899   1.819  66.458 -1.2236 -1.1904  0.9907
 6245TIP3   OH240225   1.052   2.231  12.434 -0.3053 -0.1720  0.1805
 6245TIP3    H140226   1.041   2.149  12.386  0.5313 -0.5279  0.5675
 6245TIP3    H240227   1.147   2.244  12.439 -0.3577 -0.1230  1.6635
 6246TIP3   OH240228   3.034   0.261  28.140  0.3034  0.0930 -0.3324
 6246TIP3    H140229   2.956   0.269  28.085 -0.8060 -0.9236  1.0191
 6246TIP3    H240230   3.019   0.182  28.191  1.5491  0.6738  0.9998
 6247TIP3   OH240231   2.013   1.205  16.430 -0.2822 -0.1959  0.3074
 6247TIP3    H140232   2.034   1.193  16.338  0.7658  1.0445  0.3490
 6247TIP3    H240233   1.932   1.257  16.430 -0.9783 -1.2516  0.1135
 6248TIP3   OH240234   1.940   0.488  54.759 -0.2919 -0.5274 -0.0080
 6248TIP3    H140235   1.992   0.514  54.683  0.2073 -1.1388  0.1234
 6248TIP3    H240236   1.870   0.554  54.763 -0.4085 -0.5710 -1.0734
 6249TIP3   OH240237   2.309   3.073  54.106  0.3510 -0.3355  0.5781
 6249TIP3    H140238   2.288   3.166  54.093 -0.4457 -0.2821  2.0351
 6249TIP3    H240239   2.387   3.058  54.052 -0.2978  0.8270 -0.7575
 6250TIP3   OH240240   3.406   3.228  45.403  0.2218 -0.3285  0.0395
 6250TIP3    H140241   3.478   3.276  45.445  0.6016 -0.6070 -0.2755
 6250TIP3    H240242   3.394   3.272  45.318 -0.4575  0.1558  0.3818
 6251TIP3   OH240243   3.140   2.243   4.772  0.2958  0.3155 -0.1699
 6251TIP3    H140244   3.111   2.266   4.684 -1.4419 -1.0946 -0.0296
 6251TIP3    H240245   3.108   2.314   4.828 -0.2746  0.2598 -0.4250
 6252TIP3   OH240246   3.211   0.534  47.581  0.1248 -0.5244  0.1681
 6252TIP3    H140247   3.295   0.545  47.536  0.9725 -1.1603  1.5214
 6252TIP3    H240248   3.204   0.611  47.638 -0.6895  0.0141 -0.6366
 6253TIP3   OH240249   2.017   3.055  60.072  0.1155 -0.3372  0.2106
 6253TIP3    H140250   1.979   2.991  60.133 -0.7511 -0.1645 -0.1396
 6253TIP3    H240251   1.951   3.065  60.004  0.1366  1.1192  0.3859
 6254TIP3   OH240252   0.745   0.146  47.649 -0.2523  0.2847  0.1014
 6254TIP3    H140253   0.683   0.090  47.697  2.6446 -2.3039  1.2286
 6254TIP3    H240254   0.790   0.196  47.718 -0.5385  1.5725 -0.6191
 6255TIP3   OH240255   0.089   3.022  19.961 -0.3108 -1.1106 -0.1898
 6255TIP3    H140256   0.141   3.017  19.881  0.5341  0.7988  0.1840
 6255TIP3    H240257  -0.001   3.032  19.930  0.1160  0.7235 -0.9720
 6256TIP3   OH240258   0.401   2.618   5.085  0.3090 -0.7685 -0.5476
 6256TIP3    H140259   0.399   2.713   5.086  0.4163 -0.7548 -1.1865
 6256TIP3    H240260   0.488   2.595   5.120  0.4108 -0.6198 -0.6991
 6257TIP3   OH240261   2.199   1.786  47.044 -0.1627 -0.0095 -0.2056
 6257TIP3    H140262   2.111   1.783  47.007  0.4800  2.5573 -2.3013
 6257TIP3    H240263   2.235   1.699  47.027 -1.3168 -0.1879 -2.0239
 6258TIP3   OH240264   0.769   0.915  61.150  0.2714 -0.1727 -0.3093
 6258TIP3    H140265   0.810   0.999  61.130 -0.6422  0.1988 -0.6723
 6258TIP3    H240266   0.745   0.921  61.242 -2.0607  0.9928 -0.9182
 6259TIP3   OH240267   0.811   3.358  46.996 -0.8573 -0.5277  0.0132
 6259TIP3    H140268   0.884   3.307  47.031 -0.3282 -0.5261 -1.0510
 6259TIP3    H240269   0.818   3.443  47.039  0.4189 -0.1728 -0.8348
 6260TIP3   OH240270   0.163   2.207  61.137 -0.4768 -0.4894 -0.1863
 6260TIP3    H140271   0.135   2.297  61.156  1.5395  0.4862 -1.4767
 6260TIP3    H240272   0.245   2.217  61.089  0.8041 -3.0821  1.2481
 6261TIP3   OH240273   1.790   2.120  51.982  0.0835 -0.0744 -0.0306
 6261TIP3    H140274   1.729   2.092  51.914  1.0679 -1.5538 -0.3460
 6261TIP3    H240275   1.762   2.072  52.060  0.2154  0.0423  0.0870
 6262TIP3   OH240276   1.398   0.238  66.706  0.1356  1.0095 -0.3448
 6262TIP3    H140277   1.382   0.237  66.800  1.3368  1.0492 -0.1153
 6262TIP3    H240278   1.489   0.267  66.698 -0.3162  2.1605 -1.5739
 6263TIP3   OH240279   1.908   2.272  15.959  0.4513  0.6002 -0.4596
 6263TIP3    H140280   1.902   2.211  16.032  3.3746 -0.0385 -0.6463
 6263TIP3    H240281   1.951   2.222  15.889 -0.2554  1.8558 -1.8582
 6264TIP3   OH240282   0.021   0.513  47.481  0.1178 -0.3166 -0.5240
 6264TIP3    H140283   0.025   0.434  47.427 -0.4902 -0.8317  0.1626
 6264TIP3    H240284   0.093   0.503  47.544  1.1763  0.5442 -1.5530
 6265TIP3   OH240285   2.769   2.135  43.403  0.7162  0.4539  0.2136
 6265TIP3    H140286   2.762   2.185  43.484  3.5352 -0.3416  1.0411
 6265TIP3    H240287   2.833   2.183  43.350  2.2512 -1.3087  0.3593
 6266TIP3   OH240288   0.592   2.503  15.220 -0.4290  0.4879 -0.6458
 6266TIP3    H140289   0.520   2.529  15.163  0.2330 -0.1571 -1.8326
 6266TIP3    H240290   0.663   2.565  15.199 -0.3805  0.6396 -0.0536
 6267TIP3   OH240291   2.522   2.389  57.106 -0.1889 -0.4667 -0.1478
 6267TIP3    H140292   2.583   2.320  57.079  0.1798  0.0093 -0.5538
 6267TIP3    H240293   2.532   2.394  57.201 -1.2358 -1.9114  0.0675
 6268TIP3   OH240294   2.409   0.856   5.484  0.1229  0.0368  0.3894
 6268TIP3    H140295   2.457   0.774   5.477 -2.1595 -1.2379 -3.0247
 6268TIP3    H240296   2.322   0.831   5.517 -0.8171  0.8579 -1.2840
 6269TIP3   OH240297   2.875   1.290  10.637 -0.3237 -0.1401  0.4949
 6269TIP3    H140298   2.958   1.327  10.667 -0.5824 -1.0403  2.4539
 6269TIP3    H240299   2.810   1.358  10.655 -0.1786  0.1594 -0.0795
 6270TIP3   OH240300   3.203   3.449  52.672  0.0135  0.0198 -0.2881
 6270TIP3    H140301   3.277   3.401  52.635  0.3989  0.0371  0.4210
 6270TIP3    H240302   3.218   3.540  52.646  0.0769 -0.0239 -0.4042
 6271TIP3   OH240303   2.139   2.137  63.642 -0.2762 -0.1675  0.3616
 6271TIP3    H140304   2.180   2.189  63.573  1.6328 -0.4903  1.1993
 6271TIP3    H240305   2.060   2.186  63.665 -0.1732  0.7027 -1.0070
 6272TIP3   OH240306   2.983   0.466  17.528 -0.3370 -0.3864 -0.0303
 6272TIP3    H140307   2.958   0.400  17.592 -0.3667 -0.2588  0.0905
 6272TIP3    H240308   3.062   0.430  17.487 -0.1062 -0.3070  0.3331
 6273TIP3   OH240309   1.712   2.593  42.517  0.1543  0.2582 -0.1717
 6273TIP3    H140310   1.780   2.659  42.530  0.8982 -0.7126  1.1311
 6273TIP3    H240311   1.630   2.643  42.519  0.5338  0.9715  3.1182
 6274TIP3   OH240312   2.358   1.793  54.425  0.0086 -0.8396 -0.4630
 6274TIP3    H140313   2.331   1.707  54.394  1.5748 -1.5981  0.1642
 6274TIP3    H240314   2.432   1.776  54.483 -0.6714  0.8009  0.9930
 6275TIP3   OH240315   2.851   1.410  60.138  0.1425  1.1253  0.0001
 6275TIP3    H140316   2.903   1.333  60.160 -0.0564  0.6660 -1.0604
 6275TIP3    H240317   2.904   1.484  60.167  0.8390  0.6271  0.0296
 6276TIP3   OH240318   2.441   1.237  45.024 -0.6965 -0.4890  0.3564
 6276TIP3    H140319   2.484   1.319  45.001  1.9315 -1.7589  0.3858
 6276TIP3    H240320   2.389   1.214  44.947  1.0832 -0.3540 -0.9453
 6277TIP3   OH240321   1.347   2.321  11.901 -0.0238  0.1571 -0.5312
 6277TIP3    H140322   1.330   2.243  11.849  0.9480 -0.1508 -0.4242
 6277TIP3    H240323   1.437   2.346  11.877  1.0523 -0.8583  2.0138
 6278TIP3   OH240324   2.581   1.971  18.027  0.2049 -0.0157  0.4212
 6278TIP3    H140325   2.647   1.912  17.989 -1.6268 -0.1554 -2.9367
 6278TIP3    H240326   2.622   2.057  18.025  0.7355 -0.2703 -0.5403
 6279TIP3   OH240327   2.290   0.009   0.728 -0.4695  0.2486  0.2744
 6279TIP3    H140328   2.326  -0.065   0.678  2.1833  1.8257 -0.3764
 6279TIP3    H240329   2.310  -0.012   0.819  0.7417  0.3689  0.0507
 6280TIP3   OH240330   0.686   1.686  57.195  0.8119  0.4440  0.0727
 6280TIP3    H140331   0.616   1.698  57.131  1.2521 -0.6471 -0.6440
 6280TIP3    H240332   0.745   1.760  57.181 -0.4756  1.7204  1.1024
 6281TIP3   OH240333   3.255   0.919  58.942  0.3652  0.4397  0.0121
 6281TIP3    H140334   3.294   0.978  59.006  1.3775  0.4566 -0.5926
 6281TIP3    H240335   3.305   0.936  58.861  1.8490 -2.4143  0.2220
 6282TIP3   OH240336   2.652   0.356  49.557  0.4007 -0.2548  0.0422
 6282TIP3    H140337   2.596   0.306  49.498 -0.1218  0.3071  0.0621
 6282TIP3    H240338   2.613   0.443  49.561 -0.3369 -0.6316  2.2403
 6283TIP3   OH240339   2.262   1.325  16.354 -0.1339  0.2011 -0.0421
 6283TIP3    H140340   2.312   1.402  16.327 -0.1335  0.5523  0.9488
 6283TIP3    H240341   2.177   1.360  16.380  0.6608  0.2025  2.7846
 6284TIP3   OH240342   2.074   1.937   8.382 -0.3851 -0.0419  0.3579
 6284TIP3    H140343   2.006   1.884   8.342 -1.4812  1.1139  0.5991
 6284TIP3    H240344   2.129   1.966   8.309 -0.2181 -0.8699  0.1464
 6285TIP3   OH240345   3.417   0.484  56.001 -0.6457  0.2329  0.5010
 6285TIP3    H140346   3.478   0.488  56.075  0.6980  0.9215 -0.5777
 6285TIP3    H240347   3.417   0.573  55.966 -0.6337 -0.2507 -0.7791
 6286TIP3   OH240348   2.909   0.002   6.060 -0.5489 -0.2691 -0.2053
 6286TIP3    H140349   2.948  -0.068   6.114 -0.0194  0.4800  0.4067
 6286TIP3    H240350   2.841  -0.042   6.009  0.2319 -1.3727 -0.3420
 6287TIP3   OH240351   1.110   1.901  50.840  0.1219 -0.6339 -0.0868
 6287TIP3    H140352   1.135   1.841  50.910 -0.6640  0.1862  0.9357
 6287TIP3    H240353   1.057   1.968  50.884 -1.2074 -0.6172 -1.6347
 6288TIP3   OH240354   1.720   1.833  16.466  0.4666  0.6985  0.6401
 6288TIP3    H140355   1.788   1.790  16.518  0.0056 -0.2789  0.4540
 6288TIP3    H240356   1.761   1.847  16.381 -0.5252 -2.9193 -0.5921
 6289TIP3   OH240357   1.221   0.115   3.119  0.0643  0.2954  0.5275
 6289TIP3    H140358   1.202   0.199   3.078 -0.3216 -0.2105 -0.3497
 6289TIP3    H240359   1.312   0.123   3.148  0.2748  0.7420 -0.2320
 6290TIP3   OH240360   0.568   2.746  56.710  0.2735 -0.6648  0.7180
 6290TIP3    H140361   0.605   2.664  56.743 -2.5396 -1.5831  1.9387
 6290TIP3    H240362   0.623   2.815  56.747  1.6108 -1.9391  1.1725
 6291TIP3   OH240363   1.008   2.377  17.497 -0.3770  0.1119 -0.4708
 6291TIP3    H140364   0.928   2.429  17.501  0.0373  0.7453 -0.3990
 6291TIP3    H240365   1.033   2.380  17.404  0.6962  1.6592 -0.1657
 6292TIP3   OH240366   0.224   2.276  59.541  0.0623  0.0821 -0.1780
 6292TIP3    H140367   0.297   2.336  59.527 -0.4285  0.4421 -1.2694
 6292TIP3    H240368   0.161   2.297  59.472 -1.7863  0.8182  1.6206
 6293TIP3   OH240369   2.735   0.457  57.760  0.0592  0.4304  0.1954
 6293TIP3    H140370   2.727   0.370  57.800  0.3734 -0.2466 -1.1196
 6293TIP3    H240371   2.819   0.490  57.791  0.1794  0.0358  0.3020
 6294TIP3   OH240372   1.709   0.215  60.835 -0.2477 -0.0698  0.0445
 6294TIP3    H140373   1.787   0.266  60.858 -0.9245  0.9556  0.1507
 6294TIP3    H240374   1.710   0.141  60.895  0.2852  0.3067  0.5098
 6295TIP3   OH240375   0.676   2.558  52.643 -0.0055  0.3378  0.0741
 6295TIP3    H140376   0.644   2.543  52.554 -1.0221 -0.7720  0.5985
 6295TIP3    H240377   0.668   2.653  52.655  1.3058  0.6815 -1.4092
 6296TIP3   OH240378   1.756   2.580  63.968  0.5345 -0.5834  0.0490
 6296TIP3    H140379   1.726   2.665  63.937  0.0659 -0.3539  1.0758
 6296TIP3    H240380   1.808   2.600  64.047  2.6504 -1.0475 -1.1476
 6297TIP3   OH240381   2.805   3.292  11.038  0.2378 -0.1339 -0.6761
 6297TIP3    H140382   2.815   3.365  10.977  0.0181 -0.5081 -1.1623
 6297TIP3    H240383   2.742   3.233  10.996 -0.1906 -0.2288  0.0653
 6298TIP3   OH240384   1.878   2.578  19.484 -0.2875 -0.4773 -0.7380
 6298TIP3    H140385   1.827   2.589  19.565 -1.0381  1.2655 -1.4009
 6298TIP3    H240386   1.965   2.609  19.507 -0.8967  1.5888 -0.9564
 6299TIP3   OH240387   2.495   3.113  11.138  1.0571  1.0868  0.0488
 6299TIP3    H140388   2.439   3.050  11.182  3.4079 -0.2789  1.3202
 6299TIP3    H240389   2.454   3.198  11.155 -0.7146  0.1479  0.6717
 6300TIP3   OH240390   3.004   0.608  57.837  0.3381 -0.4677  0.2656
 6300TIP3    H140391   3.063   0.681  57.817  1.9760 -1.6876  0.3714
 6300TIP3    H240392   2.964   0.631  57.920 -0.4580  1.0534 -0.5083
 6301TIP3   OH240393   2.205   2.332  59.445 -0.0533 -0.6147  0.1508
 6301TIP3    H140394   2.205   2.245  59.485 -0.6663 -1.3486 -1.3665
 6301TIP3    H240395   2.125   2.334  59.393  0.0194  0.8247  0.0575
 6302TIP3   OH240396   1.738   0.683  11.023  0.2314  0.0022 -0.1961
 6302TIP3    H140397   1.798   0.632  10.969 -0.7007  0.5653 -1.8052
 6302TIP3    H240398   1.723   0.763  10.974 -0.0222  0.9120  1.2957
 6303TIP3   OH240399   2.314   0.245  17.836 -0.6223  0.4186 -0.0202
 6303TIP3    H140400   2.384   0.203  17.885 -0.7903 -2.6966 -2.1381
 6303TIP3    H240401   2.235   0.229  17.888 -0.4419 -0.5993 -0.0337
 6304TIP3   OH240402   0.697   2.006  11.066 -0.1373 -0.5490  0.0633
 6304TIP3    H140403   0.714   2.022  11.159 -1.0172  3.5259 -0.2916
 6304TIP3    H240404   0.783   1.989  11.029  0.9402  2.2669  1.0133
 6305TIP3   OH240405   2.698   1.130  14.284 -0.4068 -0.6143 -0.5038
 6305TIP3    H140406   2.634   1.143  14.213  0.6005  0.8092 -1.2230
 6305TIP3    H240407   2.662   1.179  14.358 -0.1038  0.3571 -0.9699
 6306TIP3   OH240408   2.176   3.048  63.781 -0.2603 -0.5302 -0.0803
 6306TIP3    H140409   2.163   3.053  63.686 -1.9753 -0.1045  0.1514
 6306TIP3    H240410   2.090   3.067  63.818  0.5831  0.1913  1.5935
 6307TIP3   OH240411   0.635   2.171  50.510  0.1875  0.2218 -0.9969
 6307TIP3    H140412   0.691   2.242  50.542  2.2024 -1.9671  0.6493
 6307TIP3    H240413   0.694   2.097  50.496 -2.0223 -1.6596 -1.1147
 6308TIP3   OH240414   0.414   1.234  67.043  0.3249 -1.0824  0.0020
 6308TIP3    H140415   0.377   1.312  67.002 -0.0155 -1.6364 -0.7659
 6308TIP3    H240416   0.492   1.265  67.088  0.3359 -0.3424 -0.5099
 6309TIP3   OH240417   0.707   3.435  48.759 -0.1832 -0.3550 -0.4836
 6309TIP3    H140418   0.763   3.508  48.784  0.0915 -0.0556 -1.8585
 6309TIP3    H240419   0.636   3.436  48.823 -0.2460  1.1920 -0.5341
 6310TIP3   OH240420   3.414   1.052  10.630  0.3299  0.6385 -0.3525
 6310TIP3    H140421   3.500   1.059  10.588  0.8215  1.0960  0.6827
 6310TIP3    H240422   3.420   0.972  10.683  0.4167  1.0996  0.3489
 6311TIP3   OH240423   2.605   2.255  47.743 -0.2314 -0.3626  0.2936
 6311TIP3    H140424   2.613   2.159  47.739 -0.5824 -0.4725  1.7151
 6311TIP3    H240425   2.523   2.273  47.696 -2.1772 -1.1627  3.1106
 6312TIP3   OH240426   2.707   1.130   6.670 -0.4402 -0.0351 -0.2528
 6312TIP3    H140427   2.742   1.219   6.678 -1.0615  0.5566 -3.1908
 6312TIP3    H240428   2.735   1.086   6.751  3.6480  1.5294 -0.5761
 6313TIP3   OH240429   2.803   2.455  56.699 -0.1983  0.3461  0.0169
 6313TIP3    H140430   2.745   2.524  56.732 -1.1307  0.4862 -1.7627
 6313TIP3    H240431   2.837   2.490  56.616 -0.4604 -1.1860 -0.7707
 6314TIP3   OH240432   2.082   0.905  50.848 -0.2981 -0.0098  1.0143
 6314TIP3    H140433   2.038   0.967  50.789  0.0051  1.2210  2.0370
 6314TIP3    H240434   2.093   0.825  50.795  0.7934  1.3239 -0.9205
 6315TIP3   OH240435   1.796   1.937   8.579  0.3543 -0.0105  0.1110
 6315TIP3    H140436   1.781   1.994   8.504  0.6378 -0.3867 -0.2349
 6315TIP3    H240437   1.729   1.962   8.642 -0.9139 -0.7722 -0.8840
 6316TIP3   OH240438   1.819   2.194  13.580  0.3029  0.2945 -0.0848
 6316TIP3    H140439   1.735   2.239  13.585 -0.3424 -0.4668 -2.4272
 6316TIP3    H240440   1.860   2.229  13.501  2.1886  0.5809  0.9651
 6317TIP3   OH240441   1.165   0.366  52.636  0.3089  0.1328  0.2334
 6317TIP3    H140442   1.147   0.429  52.706  1.1910 -1.7981  2.3403
 6317TIP3    H240443   1.112   0.289  52.659 -0.0329 -0.2769 -1.7300
 6318TIP3   OH240444   1.560   1.441  44.641 -0.0204  0.1890 -0.2466
 6318TIP3    H140445   1.644   1.460  44.681 -0.4456  1.5887  0.0156
 6318TIP3    H240446   1.509   1.397  44.709  0.7706 -1.5057 -0.6840
 6319TIP3   OH240447   2.317   0.004   4.872  0.3607 -0.1270  0.0361
 6319TIP3    H140448   2.321  -0.012   4.777  0.9630  0.6823 -0.0915
 6319TIP3    H240449   2.247   0.068   4.882 -1.1169 -1.7211  0.3902
 6320TIP3   OH240450   3.011   1.456  29.207 -0.7732  0.2968  0.7040
 6320TIP3    H140451   2.950   1.498  29.268  1.9468  2.1386  2.3210
 6320TIP3    H240452   3.073   1.409  29.262  1.1303  1.1228 -0.6143
 6321TIP3   OH240453   0.452   2.252   2.907 -0.2880 -0.1297  0.2927
 6321TIP3    H140454   0.385   2.219   2.967 -1.5165  1.0317 -0.3894
 6321TIP3    H240455   0.448   2.347   2.918  0.2826  0.0251 -0.7725
 6322TIP3   OH240456   1.247   2.519  15.660  0.0156 -0.4777 -0.1902
 6322TIP3    H140457   1.271   2.436  15.620  1.2040 -0.7983  1.1374
 6322TIP3    H240458   1.232   2.498  15.752  0.3968  0.7950  0.1762
 6323TIP3   OH240459   2.088   1.033  43.786  0.3687  0.3447 -0.2037
 6323TIP3    H140460   2.041   1.054  43.705  0.3816  0.9391 -0.0652
 6323TIP3    H240461   2.158   0.974  43.759  0.0276  0.0852 -0.5349
 6324TIP3   OH240462   2.804   0.152   9.156  0.3086  0.1565  0.5735
 6324TIP3    H140463   2.899   0.150   9.169  0.4671 -1.5537 -0.4870
 6324TIP3    H240464   2.793   0.135   9.062 -1.0348  1.0364  0.5501
 6325TIP3   OH240465   1.261   2.452  11.539  0.3086  0.4095 -0.2389
 6325TIP3    H140466   1.247   2.508  11.462 -0.9756  1.4127  0.6821
 6325TIP3    H240467   1.249   2.511  11.614 -0.2248 -0.9267  0.7572
 6326TIP3   OH240468   0.799   2.417   4.596  0.2195 -0.4168 -0.0772
 6326TIP3    H140469   0.720   2.469   4.585  0.5389  0.0049 -0.4436
 6326TIP3    H240470   0.792   2.382   4.685  1.2013  2.4248  1.2712
 6327TIP3   OH240471   1.965   0.329  51.029  0.1138 -0.2462  0.4964
 6327TIP3    H140472   2.043   0.382  51.012  0.5589 -1.3813 -1.2589
 6327TIP3    H240473   1.999   0.244  51.058 -0.3994 -0.9421 -0.8370
 6328TIP3   OH240474   0.658   0.837  44.526 -0.8270  0.2927 -0.3336
 6328TIP3    H140475   0.564   0.834  44.546 -0.6707  1.0081  0.5826
 6328TIP3    H240476   0.688   0.747  44.538 -1.5999 -0.1845 -1.7495
 6329TIP3   OH240477   0.981   1.596  49.700  0.1007 -0.1562  0.3347
 6329TIP3    H140478   0.923   1.668  49.675 -0.6064 -1.7295 -3.1911
 6329TIP3    H240479   1.045   1.590  49.628  0.2044 -2.8913  0.5275
 6330TIP3   OH240480   2.680   0.765  18.529  0.0513  0.2891  0.5504
 6330TIP3    H140481   2.602   0.806  18.492  0.2413  0.9111  0.8219
 6330TIP3    H240482   2.753   0.805  18.482  0.2107 -0.3756  0.2131
 6331TIP3   OH240483   1.594   0.326  47.155  0.5993  0.7440  0.1725
 6331TIP3    H140484   1.648   0.260  47.198  1.7919  0.7224 -1.2591
 6331TIP3    H240485   1.589   0.398  47.218  0.4021 -0.1459  1.2129
 6332TIP3   OH240486   0.958   0.471  59.799  0.2112 -0.1173  0.0480
 6332TIP3    H140487   0.896   0.513  59.859 -2.3505 -1.2743 -1.6409
 6332TIP3    H240488   1.011   0.415  59.856  0.4945  1.7035  1.6918
 6333TIP3   OH240489   3.123   1.801  20.699  0.9061  0.1979 -0.4840
 6333TIP3    H140490   3.148   1.745  20.772 -0.5854 -1.1576 -0.9796
 6333TIP3    H240491   3.199   1.858  20.687  2.2607 -1.3277  0.3905
 6334TIP3   OH240492   0.388   2.909   0.391 -0.4122  0.1236  0.6841
 6334TIP3    H140493   0.383   2.814   0.376  0.2460  0.1545  0.2003
 6334TIP3    H240494   0.347   2.948   0.314 -1.3128  0.2264  1.2114
 6335TIP3   OH240495   1.036   2.876   1.775  0.1072  0.4827 -0.1095
 6335TIP3    H140496   1.128   2.882   1.802  0.1885  0.8313 -0.4607
 6335TIP3    H240497   1.030   2.931   1.698 -0.1506 -0.4200 -0.7523
 6336TIP3   OH240498   2.130   2.157   4.711 -0.2794  0.1010  0.6301
 6336TIP3    H140499   2.152   2.164   4.804  1.5424 -1.0025  0.3418
 6336TIP3    H240500   2.122   2.063   4.695 -1.3149  0.3008 -0.2027
 6337TIP3   OH240501   0.660   1.816  58.622 -0.3394  0.3615 -0.0179
 6337TIP3    H140502   0.716   1.803  58.546 -0.0073  1.2561  0.0577
 6337TIP3    H240503   0.712   1.788  58.696 -0.0661  0.9699  0.0277
 6338TIP3   OH240504   3.043   3.261  12.111 -0.2203  0.0142 -0.3227
 6338TIP3    H140505   3.082   3.177  12.135  1.9233  1.0105 -0.0733
 6338TIP3    H240506   3.027   3.254  12.017 -0.3522 -0.7834 -0.2429
 6339TIP3   OH240507   2.760   2.303   3.537 -0.0444  1.0264 -0.0462
 6339TIP3    H140508   2.825   2.335   3.476  0.1107  0.4883 -0.1663
 6339TIP3    H240509   2.796   2.321   3.624  0.7783 -0.2501 -0.0953
 6340TIP3   OH240510   2.970   1.405  46.775 -0.1066  0.7775  0.8810
 6340TIP3    H140511   2.876   1.417  46.786  0.0311  0.4036  2.8992
 6340TIP3    H240512   2.995   1.471  46.711 -2.2458 -1.4234 -2.5401
 6341TIP3   OH240513   1.217   1.629  12.283 -0.2238  0.2289 -0.0141
 6341TIP3    H140514   1.280   1.665  12.346 -0.7353  3.8011 -1.3450
 6341TIP3    H240515   1.139   1.611  12.335  0.5929 -0.6143  0.9773
 6342TIP3   OH240516   2.679   1.383  46.568  0.1330 -0.4163 -0.0461
 6342TIP3    H140517   2.620   1.313  46.541  0.5774 -0.7391 -0.2068
 6342TIP3    H240518   2.675   1.447  46.496  0.9340 -1.0389 -0.6598
 6343TIP3   OH240519   1.423   0.423  50.773 -0.4141  0.4177 -0.2498
 6343TIP3    H140520   1.332   0.453  50.768 -0.5454  0.1140  0.2455
 6343TIP3    H240521   1.470   0.476  50.709 -0.9325  0.6161 -0.4659
 6344TIP3   OH240522   1.310   3.134  21.297 -0.4117  0.3583 -0.1187
 6344TIP3    H140523   1.357   3.081  21.233  1.2898  0.8505  0.6804
 6344TIP3    H240524   1.219   3.130  21.268 -0.1264 -1.7410 -0.9433
 6345TIP3   OH240525   0.334   3.272  63.864  0.0050 -0.7485 -0.2098
 6345TIP3    H140526   0.241   3.250  63.865 -0.0050 -0.6947  0.0782
 6345TIP3    H240527   0.351   3.300  63.774 -0.6895  1.0092  0.1599
 6346TIP3   OH240528   0.166   2.073  15.627  0.3242  0.0153  0.1766
 6346TIP3    H140529   0.088   2.067  15.682 -0.2304  1.3332 -0.4205
 6346TIP3    H240530   0.174   1.987  15.587 -0.7899 -0.1600  0.2954
 6347TIP3   OH240531   2.323   3.088   4.027 -0.3904  0.5803 -0.2739
 6347TIP3    H140532   2.390   3.067   4.092  0.8105 -0.1493 -1.6641
 6347TIP3    H240533   2.278   3.006   4.011 -0.9133  0.8335 -0.1138
 6348TIP3   OH240534   3.372   2.082  65.316  0.7832  0.0419 -0.3552
 6348TIP3    H140535   3.415   2.068  65.232  2.1111  1.2470  0.0763
 6348TIP3    H240536   3.280   2.062  65.300  0.7309  1.6116 -2.5007
 6349TIP3   OH240537   1.255   1.640   2.324  0.3483 -0.4117  0.2750
 6349TIP3    H140538   1.321   1.596   2.270  0.4209 -0.4094  0.3619
 6349TIP3    H240539   1.274   1.733   2.313 -0.0182 -0.3863 -0.1808
 6350TIP3   OH240540   0.204   3.317   8.543  0.3432  0.2454  0.0523
 6350TIP3    H140541   0.294   3.310   8.574  0.5100  0.1476 -0.4387
 6350TIP3    H240542   0.151   3.320   8.622  0.5379 -2.4851  0.3516
 6351TIP3   OH240543   2.469   0.015  66.342 -0.2657 -0.3068 -0.6033
 6351TIP3    H140544   2.533   0.077  66.377  0.9803 -1.4830 -0.7402
 6351TIP3    H240545   2.389   0.032  66.392 -0.2477  1.9907 -1.2062
 6352TIP3   OH240546   3.316   0.795  58.338  0.0740 -0.2127 -0.4168
 6352TIP3    H140547   3.283   0.719  58.387  1.5785 -0.0550  0.9222
 6352TIP3    H240548   3.262   0.798  58.259 -1.3077 -1.5060  0.4304
 6353TIP3   OH240549   1.148   1.450  64.256 -0.0094  0.7203 -0.3064
 6353TIP3    H140550   1.145   1.394  64.334  0.6483 -0.3027 -0.9960
 6353TIP3    H240551   1.057   1.479  64.244 -0.7855 -1.7337 -0.9813
 6354TIP3   OH240552   1.039   0.581  64.435 -0.4506 -0.2179 -0.1796
 6354TIP3    H140553   0.990   0.502  64.412  1.1840 -1.0629 -0.8406
 6354TIP3    H240554   1.066   0.618  64.351  0.7722 -0.2523  0.1766
 6355TIP3   OH240555   1.655   3.084  13.204  0.2197 -0.0071  0.4375
 6355TIP3    H140556   1.728   3.120  13.255 -1.3119  0.8924  2.0923
 6355TIP3    H240557   1.604   3.160  13.178 -1.0152 -0.6974  0.7367
 6356TIP3   OH240558   3.200   1.128  13.315  0.3771 -0.3407  0.4166
 6356TIP3    H140559   3.256   1.188  13.365  1.3779 -1.1398  0.2944
 6356TIP3    H240560   3.251   1.047  13.310 -0.7870 -1.0812  0.2546
 6357TIP3   OH240561   1.380   1.228   6.080 -0.3185 -0.2235  0.3237
 6357TIP3    H140562   1.386   1.323   6.067 -0.7571 -0.4548 -1.7959
 6357TIP3    H240563   1.333   1.219   6.163 -0.5536  1.4077  0.4073
 6358TIP3   OH240564   1.983   2.297  17.847 -0.4543 -0.4888 -0.8279
 6358TIP3    H140565   2.012   2.214  17.809 -0.0535 -0.6993 -0.0926
 6358TIP3    H240566   1.910   2.274  17.904  0.8834 -0.6698  0.9147
 6359TIP3   OH240567   1.646   0.863  57.165 -0.9232  1.0522  0.3603
 6359TIP3    H140568   1.696   0.785  57.188  0.7513  1.4616 -1.6070
 6359TIP3    H240569   1.566   0.856  57.217 -1.4944 -2.6761 -0.7161
 6360TIP3   OH240570   3.193   1.797   9.604 -0.6215  0.5939  0.4618
 6360TIP3    H140571   3.277   1.775   9.565 -1.8160 -0.7153 -1.5634
 6360TIP3    H240572   3.150   1.853   9.539 -1.2097  1.5068  1.6000
 6361TIP3   OH240573   1.959   0.426  22.732 -0.5560  0.4081 -0.0771
 6361TIP3    H140574   2.047   0.407  22.699 -0.7208 -0.3881 -0.0814
 6361TIP3    H240575   1.918   0.340  22.740 -2.3931  0.9158 -2.9728
 6362TIP3   OH240576   2.608   0.713   2.929 -0.0707 -0.5430 -0.4896
 6362TIP3    H140577   2.609   0.680   3.019  2.3068  0.9096  0.1084
 6362TIP3    H240578   2.607   0.634   2.875 -0.6377 -1.4619  0.8038
 6363TIP3   OH240579   2.287   2.441  51.428 -0.0336 -0.0694 -0.3012
 6363TIP3    H140580   2.235   2.362  51.439  1.5908 -1.0396  0.8938
 6363TIP3    H240581   2.326   2.433  51.341  1.2209 -1.3411  0.3269
 6364TIP3   OH240582   3.199   2.205  48.625 -0.2178  0.1762 -0.0747
 6364TIP3    H140583   3.254   2.275  48.661  0.9270 -0.1563 -1.0942
 6364TIP3    H240584   3.176   2.237  48.538  1.2753 -1.1584 -1.0132
 6365TIP3   OH240585   0.963   2.555  17.858 -0.4313 -0.3090  0.0406
 6365TIP3    H140586   0.889   2.494  17.860 -0.6892 -0.0094 -0.2888
 6365TIP3    H240587   0.997   2.554  17.948 -0.5335 -0.8171  0.0737
 6366TIP3   OH240588   2.903   0.452   8.797  0.0608  0.1875 -0.5953
 6366TIP3    H140589   2.918   0.486   8.885  0.7150 -1.4051 -0.0705
 6366TIP3    H240590   2.983   0.404   8.775 -0.6856 -0.7070 -1.4494
 6367TIP3   OH240591   0.770   0.029  43.527 -0.2456 -0.3449  0.2245
 6367TIP3    H140592   0.696  -0.000  43.474 -0.9117  0.1895  0.8320
 6367TIP3    H240593   0.740   0.019  43.617 -0.0117  0.9300  0.4651
 6368TIP3   OH240594   0.919   1.812  47.590  0.6035  0.0274 -0.3651
 6368TIP3    H140595   0.945   1.852  47.672  1.2417  0.3135 -0.7008
 6368TIP3    H240596   0.870   1.880  47.544 -2.1352 -0.9657  0.8897
 6369TIP3   OH240597   1.830   0.950  49.394  0.6117  0.1504  0.0772
 6369TIP3    H140598   1.860   0.863  49.420 -0.4847 -0.0745  0.6644
 6369TIP3    H240599   1.762   0.934  49.328 -0.2641  0.5036  0.8693
 6370TIP3   OH240600   3.281   3.072   1.087  0.5512 -0.4095  0.2876
 6370TIP3    H140601   3.212   3.059   1.152  1.0432 -2.1100  0.5442
 6370TIP3    H240602   3.244   3.036   1.006  1.4779 -2.4576  0.6930
 6371TIP3   OH240603   0.071   2.903  44.460 -0.5805  0.3225 -0.1202
 6371TIP3    H140604   0.026   2.955  44.526 -1.3265  1.4824 -1.4640
 6371TIP3    H240605   0.118   2.836  44.509 -0.3414  1.7015  1.6191
 6372TIP3   OH240606   2.110   0.050  65.157 -0.4971  0.2680 -0.5462
 6372TIP3    H140607   2.084   0.077  65.069 -1.2478 -0.5416 -0.5856
 6372TIP3    H240608   2.174  -0.020  65.143 -0.1918  0.5241 -0.4432
 6373TIP3   OH240609   1.476   0.714   7.444 -0.0724 -0.0748 -0.1111
 6373TIP3    H140610   1.477   0.622   7.470 -1.8140 -0.0377  0.1833
 6373TIP3    H240611   1.471   0.713   7.349 -1.3543 -0.3294 -0.0584
 6374TIP3   OH240612   1.180   0.414  49.822 -0.5306  0.2672  1.1709
 6374TIP3    H140613   1.266   0.377  49.804 -0.7159  0.2749  0.2133
 6374TIP3    H240614   1.119   0.343  49.801 -0.8326  0.7609  0.3457
 6375TIP3   OH240615   1.281   0.943  66.174  0.0192 -0.4326 -0.2075
 6375TIP3    H140616   1.191   0.917  66.156  0.1692 -0.8065 -0.4236
 6375TIP3    H240617   1.273   1.027  66.220 -0.4334 -0.4050 -0.3330
 6376TIP3   OH240618   2.508   1.702  19.598 -0.4620 -0.5288 -0.6532
 6376TIP3    H140619   2.436   1.765  19.586 -1.7684 -1.3010  2.2764
 6376TIP3    H240620   2.569   1.723  19.527 -1.2583  3.3925 -0.4371
 6377TIP3   OH240621   3.225   1.801  62.759 -0.1007  0.0590  0.3538
 6377TIP3    H140622   3.167   1.738  62.802 -0.2502  1.0190  1.6227
 6377TIP3    H240623   3.177   1.828  62.681 -1.4633  0.9062  1.4295
 6378TIP3   OH240624   0.162   0.254  10.301  0.2960  0.5741 -0.4963
 6378TIP3    H140625   0.238   0.227  10.352  1.0392 -0.3049 -2.0170
 6378TIP3    H240626   0.142   0.179  10.245  0.5502  2.0173 -2.6731
 6379TIP3   OH240627   2.161   1.770  10.808  0.1091 -1.0445 -0.4259
 6379TIP3    H140628   2.073   1.738  10.828 -0.1645 -0.6798 -1.0452
 6379TIP3    H240629   2.195   1.798  10.893 -0.6408 -0.5204 -0.2877
 6380TIP3   OH240630   2.311   3.435  14.092  0.5098  0.7856 -0.4570
 6380TIP3    H140631   2.280   3.453  14.003  0.7411 -0.6483 -0.8527
 6380TIP3    H240632   2.278   3.347  14.112  2.8250 -0.1028 -0.2205
 6381TIP3   OH240633   1.782   1.079   5.452  0.9158  0.0630  0.3134
 6381TIP3    H140634   1.697   1.113   5.479  1.6554  0.1475  2.7756
 6381TIP3    H240635   1.763   0.996   5.410 -0.5886  1.5150 -2.1075
 6382TIP3   OH240636   2.427   1.299  17.001 -0.5483 -0.5478  0.6863
 6382TIP3    H140637   2.448   1.243  16.926 -0.2425  0.3334  0.0934
 6382TIP3    H240638   2.354   1.254  17.044 -1.6595 -0.4194 -0.9273
 6383TIP3   OH240639   0.622   0.118   0.769  0.0312 -0.0266 -0.3356
 6383TIP3    H140640   0.592   0.131   0.859  0.6594  1.0610 -0.2728
 6383TIP3    H240641   0.715   0.096   0.777 -0.2635 -1.5712 -0.6441
 6384TIP3   OH240642   0.681   2.563  44.188 -0.1333  0.1903 -0.8872
 6384TIP3    H140643   0.647   2.480  44.222 -1.2681  0.6962 -0.7224
 6384TIP3    H240644   0.704   2.544  44.097  0.3857 -0.5066 -0.6118
 6385TIP3   OH240645   1.901   0.572   4.549 -0.2325  0.2022  0.0315
 6385TIP3    H140646   1.964   0.508   4.516 -0.5197 -0.4695  0.7475
 6385TIP3    H240647   1.951   0.653   4.559  0.1131  0.1201 -0.9735
 6386TIP3   OH240648   0.744   1.187   3.957  0.6377 -0.7632 -0.3199
 6386TIP3    H140649   0.711   1.273   3.932  1.6852 -0.2362  0.0372
 6386TIP3    H240650   0.770   1.197   4.049 -0.1324 -1.7485  0.0272
 6387TIP3   OH240651   1.199   0.778   5.737  0.4116 -0.0123 -0.2946
 6387TIP3    H140652   1.196   0.695   5.688  0.5819  0.4105 -1.0360
 6387TIP3    H240653   1.127   0.771   5.800  0.3083 -0.6496 -0.4716
 6388TIP3   OH240654   1.262   1.727   7.475 -0.4182  0.7860  0.0482
 6388TIP3    H140655   1.282   1.784   7.549  1.7206  0.7907 -0.4454
 6388TIP3    H240656   1.302   1.643   7.498 -1.0615  0.3280 -0.4537
 6389TIP3   OH240657   1.485   3.393   5.999 -0.5807  0.2358  0.3525
 6389TIP3    H140658   1.482   3.480   6.039  1.1265  1.5136 -2.0436
 6389TIP3    H240659   1.534   3.340   6.062  0.4624  1.6723  0.8034
 6390TIP3   OH240660   2.011   1.656  18.470 -0.7364  0.2422  0.3616
 6390TIP3    H140661   2.068   1.731  18.484  0.1515 -0.3048 -0.2391
 6390TIP3    H240662   1.982   1.631  18.558  1.7325 -0.8317  0.9696
 6391TIP3   OH240663   1.165   1.109  55.161  0.1224  0.0825 -0.4856
 6391TIP3    H140664   1.101   1.039  55.146 -1.0048  1.5956 -3.4439
 6391TIP3    H240665   1.121   1.170  55.220  0.2692 -0.5964  0.3443
 6392TIP3   OH240666   3.228   2.957  19.684 -0.0898  0.2470  0.0111
 6392TIP3    H140667   3.269   2.871  19.678 -1.3904 -0.3630 -0.3304
 6392TIP3    H240668   3.263   3.006  19.609 -1.2181 -0.8139 -1.2547
 6393TIP3   OH240669   0.506   0.806  20.914 -0.1799 -0.2975 -0.0524
 6393TIP3    H140670   0.545   0.893  20.916  0.3363 -0.3551 -3.1291
 6393TIP3    H240671   0.455   0.801  20.995  1.9435  1.7629  1.5669
 6394TIP3   OH240672   1.508   1.085  52.866 -0.0954 -0.4015  0.1561
 6394TIP3    H140673   1.430   1.035  52.890  0.6554 -1.5336  0.2933
 6394TIP3    H240674   1.501   1.094  52.770 -0.1331 -0.9602  0.1020
 6395TIP3   OH240675   3.162   2.662   5.681  0.2825  0.2211 -0.4007
 6395TIP3    H140676   3.153   2.617   5.597 -0.0195 -1.2508  0.3926
 6395TIP3    H240677   3.152   2.755   5.660  0.8417 -0.0677 -2.0750
 6396TIP3   OH240678   0.314   2.845   2.474 -0.0795 -0.1493  0.0760
 6396TIP3    H140679   0.272   2.784   2.414  0.8712  0.1499 -0.9159
 6396TIP3    H240680   0.241   2.898   2.507 -0.5065  0.5908 -1.8795
 6397TIP3   OH240681   0.358   0.643  14.832  0.5571 -0.1964 -0.0778
 6397TIP3    H140682   0.407   0.606  14.906  0.9594 -0.6323 -0.5535
 6397TIP3    H240683   0.345   0.569  14.773 -0.4672 -0.0334 -0.0781
 6398TIP3   OH240684   0.098   0.976  15.184  0.1460  0.8786 -0.4367
 6398TIP3    H140685   0.096   1.045  15.118 -1.2836  1.4910  0.2091
 6398TIP3    H240686   0.140   1.017  15.260  1.0976  0.4117 -0.7038
 6399TIP3   OH240687   0.623   0.286   5.319 -0.3596 -1.1438 -0.2383
 6399TIP3    H140688   0.718   0.284   5.333 -0.5515  1.2375  2.2013
 6399TIP3    H240689   0.610   0.355   5.254 -0.4419 -1.6550 -0.7765
 6400TIP3   OH240690   2.353   1.389  60.612 -0.5292 -0.0549 -0.3121
 6400TIP3    H140691   2.373   1.313  60.558 -0.4118  0.7144 -1.3797
 6400TIP3    H240692   2.435   1.438  60.616 -1.1168  1.0623 -1.3664
 6401TIP3   OH240693   1.185   0.551  15.050  0.1665  0.1844 -0.0455
 6401TIP3    H140694   1.275   0.579  15.063  0.0043  0.1801  1.2593
 6401TIP3    H240695   1.171   0.557  14.956  1.4407  0.4333 -0.2356
 6402TIP3   OH240696   2.943   2.589  46.909  0.1100 -0.2635 -0.0093
 6402TIP3    H140697   3.030   2.627  46.921 -0.5841  1.1999  0.5552
 6402TIP3    H240698   2.959   2.509  46.858  1.7639  0.0166  0.0159
 6403TIP3   OH240699   2.247   0.137   3.422 -0.4208  0.1925 -0.0159
 6403TIP3    H140700   2.283   0.190   3.351 -0.4695 -0.7250 -0.7530
 6403TIP3    H240701   2.255   0.192   3.500  2.5030  0.0902 -0.1283
 6404TIP3   OH240702   0.456   0.076  15.683  0.1868 -0.0918 -0.3330
 6404TIP3    H140703   0.542   0.047  15.714  0.0022 -0.0701  0.2067
 6404TIP3    H240704   0.395   0.011  15.717 -0.3754  1.4708  1.8801
 6405TIP3   OH240705   2.099   0.615  59.600 -0.8496  0.2272 -0.4918
 6405TIP3    H140706   2.150   0.624  59.519  0.5345 -0.0031  0.3128
 6405TIP3    H240707   2.037   0.544  59.581 -0.3560 -0.0176 -1.2588
 6406TIP3   OH240708   1.238   1.114  18.902 -0.1858 -0.7246  0.1535
 6406TIP3    H140709   1.274   1.112  18.813  0.0436 -0.4288  0.2391
 6406TIP3    H240710   1.147   1.141  18.891 -0.0454 -0.2848  0.0416
 6407TIP3   OH240711   3.155   2.760  58.758 -0.1079  0.4471 -0.0535
 6407TIP3    H140712   3.239   2.715  58.747 -0.7212 -0.2790 -2.4009
 6407TIP3    H240713   3.090   2.690  58.751 -1.0752  1.4904 -3.3931
 6408TIP3   OH240714   1.203   2.817  54.304 -0.4888 -0.0516 -0.1847
 6408TIP3    H140715   1.194   2.756  54.231  0.1437 -1.1644  0.6366
 6408TIP3    H240716   1.208   2.903  54.263 -0.7540 -0.5978 -1.4102
 6409TIP3   OH240717   0.308   3.124   1.670  0.1603 -0.7330  0.5738
 6409TIP3    H140718   0.385   3.132   1.614  0.2628 -3.3713  0.1796
 6409TIP3    H240719   0.281   3.214   1.689  2.3305  0.2362 -0.6443
 6410TIP3   OH240720   0.490   1.177   2.273  0.3412 -0.4167  0.2744
 6410TIP3    H140721   0.503   1.119   2.198  1.8361 -1.3076  1.1759
 6410TIP3    H240722   0.432   1.246   2.240 -1.9211 -2.6240 -0.7300
 6411TIP3   OH240723   1.711   3.064  56.235  0.0334  0.3384 -0.0865
 6411TIP3    H140724   1.804   3.088  56.228  0.0444 -0.0977 -1.7562
 6411TIP3    H240725   1.712   2.969  56.243 -0.3011  0.2105 -1.4034
 6412TIP3   OH240726   0.374   0.156   3.012 -0.0029 -1.0659 -0.2501
 6412TIP3    H140727   0.289   0.169   3.053 -0.1539 -2.0444 -0.2256
 6412TIP3    H240728   0.400   0.243   2.981  0.1278 -0.2976  1.9071
 6413TIP3   OH240729   0.212   0.096  59.177 -0.3976 -0.2486  0.7524
 6413TIP3    H140730   0.123   0.114  59.146  0.1924  0.4438 -0.5840
 6413TIP3    H240731   0.208   0.117  59.271 -2.1219 -2.0926  1.1667
 6414TIP3   OH240732   3.244   2.596  48.266  0.2294 -0.1507  0.0114
 6414TIP3    H140733   3.321   2.587  48.209 -0.4181  1.1045 -1.1238
 6414TIP3    H240734   3.191   2.664  48.224 -1.0079 -0.2533  1.3323
 6415TIP3   OH240735   2.436   2.602  48.995  0.4661  0.3498 -0.0966
 6415TIP3    H140736   2.449   2.508  48.988 -3.3353 -0.4582  1.1598
 6415TIP3    H240737   2.493   2.629  49.067  0.6990 -1.2386  0.3530
 6416TIP3   OH240738   2.040   2.379   0.061 -0.3435  0.2501  0.1771
 6416TIP3    H140739   1.965   2.342   0.014 -0.0872  1.1111 -0.9376
 6416TIP3    H240740   2.002   2.418   0.140 -1.0972  0.9033 -0.5089
 6417TIP3   OH240741   0.234   2.396  14.764  0.2703 -0.0457 -0.5485
 6417TIP3    H140742   0.241   2.306  14.732  3.4004 -0.3825  0.7545
 6417TIP3    H240743   0.198   2.445  14.691  1.2707 -1.8508 -2.3433
 6418TIP3   OH240744   1.344   2.810  47.676 -0.1921 -0.2544 -0.3850
 6418TIP3    H140745   1.416   2.831  47.617  0.4467  0.5160  0.6336
 6418TIP3    H240746   1.287   2.887  47.673  0.2621  0.1357  0.5887
 6419TIP3   OH240747   2.136   1.239  54.749  0.0965 -0.1693 -0.2539
 6419TIP3    H140748   2.126   1.317  54.696  3.2408  0.5089 -0.0548
 6419TIP3    H240749   2.116   1.267  54.838 -1.5701 -0.3839 -0.5280
 6420TIP3   OH240750   1.547   2.741  22.544  0.3081  0.4841 -0.2872
 6420TIP3    H140751   1.535   2.668  22.606  0.4591 -0.2334 -1.0782
 6420TIP3    H240752   1.564   2.698  22.460 -0.7541  1.4334 -1.0108
 6421TIP3   OH240753   1.688   3.017  42.007 -0.4359  0.2187 -0.0893
 6421TIP3    H140754   1.688   2.962  41.929  1.2880  2.8486 -2.1505
 6421TIP3    H240755   1.613   3.075  41.997 -0.3348  0.4319  0.3237
 6422TIP3   OH240756   1.127   2.615  43.752 -0.0120  0.0500  0.4380
 6422TIP3    H140757   1.062   2.655  43.809  1.0603  0.4875  1.4063
 6422TIP3    H240758   1.115   2.521  43.764 -1.3854  0.0745 -0.4982
 6423TIP3   OH240759   2.732   0.179  57.827 -0.5773 -0.3106  0.3561
 6423TIP3    H140760   2.693   0.106  57.875 -2.2405  0.8063  0.7668
 6423TIP3    H240761   2.826   0.159  57.827 -1.0634 -3.1508 -0.7690
 6424TIP3   OH240762   2.282   0.973  62.685 -0.2937  0.0865 -0.1538
 6424TIP3    H140763   2.226   0.902  62.718 -1.0223  0.3075 -0.8681
 6424TIP3    H240764   2.331   0.933  62.613 -0.3316  0.1705 -0.2258
 6425TIP3   OH240765   2.033   2.852  66.310 -0.1279  0.0287 -0.3392
 6425TIP3    H140766   2.053   2.763  66.342  1.2839  0.1505 -0.7957
 6425TIP3    H240767   1.941   2.865  66.330 -0.0925 -1.1554  0.6804
 6426TIP3   OH240768   1.446   0.522  44.935 -0.1150 -0.3823  0.5789
 6426TIP3    H140769   1.381   0.516  45.005 -3.3334 -2.3395 -2.2257
 6426TIP3    H240770   1.459   0.616  44.921 -1.8805  0.0588  1.6887
 6427TIP3   OH240771   2.690   1.674  21.072  0.0715 -0.0460  0.0414
 6427TIP3    H140772   2.661   1.588  21.104 -0.3865  0.1289  0.1065
 6427TIP3    H240773   2.743   1.654  20.996 -0.6805 -0.3628 -0.4164
 6428TIP3   OH240774   0.894   1.588   7.646  0.3812  0.1588  0.0443
 6428TIP3    H140775   0.931   1.606   7.733  0.1834  0.4859  0.0591
 6428TIP3    H240776   0.814   1.539   7.664  0.2118  0.4400  0.0556
 6429TIP3   OH240777   1.354   2.565  51.727  0.3325  0.6779 -0.2674
 6429TIP3    H140778   1.373   2.502  51.657  0.8310  0.4646  0.0532
 6429TIP3    H240779   1.393   2.526  51.805 -2.8686 -0.6288  0.8463
 6430TIP3   OH240780   1.457   0.066  15.761  0.1262  0.1753  0.4158
 6430TIP3    H140781   1.385   0.018  15.802 -1.6748  0.9364 -1.6840
 6430TIP3    H240782   1.534   0.013  15.779 -1.3347 -1.9911  0.6567
 6431TIP3   OH240783   3.095   2.335  18.142  0.2955 -0.5077  0.2698
 6431TIP3    H140784   3.063   2.297  18.060  2.3279 -1.4057 -0.1568
 6431TIP3    H240785   3.101   2.261  18.202 -1.9189  0.2665  1.5437
 6432TIP3   OH240786   1.633   0.125  42.906 -0.3219  0.5276  0.1705
 6432TIP3    H140787   1.717   0.155  42.942  0.8036  0.6480 -2.3822
 6432TIP3    H240788   1.656   0.075  42.828 -2.6580  1.0153 -0.9273
 6433TIP3   OH240789   0.557   0.307  44.743  0.0461  0.4262 -0.0884
 6433TIP3    H140790   0.558   0.230  44.686  0.5687  0.6040 -0.3231
 6433TIP3    H240791   0.464   0.327  44.755 -0.0609  0.6608 -1.2415
 6434TIP3   OH240792   2.850   1.995  61.989 -0.1533 -0.1720  0.2121
 6434TIP3    H140793   2.917   1.953  61.936  2.9024  1.3720  2.5137
 6434TIP3    H240794   2.805   2.054  61.928  2.8509  1.1595 -0.9428
 6435TIP3   OH240795   1.007   1.493  63.228 -0.0608 -0.3582 -0.2433
 6435TIP3    H140796   1.084   1.513  63.174 -0.7389  0.8269 -0.8285
 6435TIP3    H240797   0.984   1.403  63.204  1.7963 -1.1612  0.8041
 6436TIP3   OH240798   0.435   0.736  48.832 -0.6947  0.0406  0.0231
 6436TIP3    H140799   0.347   0.773  48.824 -1.8316 -2.1376  1.4464
 6436TIP3    H240800   0.478   0.791  48.897 -1.5137  0.2927  0.3632
 6437TIP3   OH240801   3.015   0.355  58.660 -0.1453  0.0137 -0.5654
 6437TIP3    H140802   3.042   0.444  58.684 -0.1215 -0.0122 -0.4965
 6437TIP3    H240803   2.919   0.361  58.652 -0.0900  0.1835 -1.1419
 6438TIP3   OH240804   1.070   1.109  58.529 -0.3200  0.5321 -0.4603
 6438TIP3    H140805   1.098   1.199  58.513 -0.4682  0.8618  1.0258
 6438TIP3    H240806   1.149   1.057  58.513  0.0478  1.0329 -0.3124
 6439TIP3   OH240807   2.309   2.298  52.643 -0.0781  0.4371  0.0055
 6439TIP3    H140808   2.328   2.338  52.559 -0.6844  1.0122  0.1341
 6439TIP3    H240809   2.218   2.268  52.636 -0.6646  1.8756  0.9714
 6440TIP3   OH240810   0.251   2.236  44.374  0.1698  0.4886  0.9354
 6440TIP3    H140811   0.253   2.152  44.419  0.9508  1.1218  2.1215
 6440TIP3    H240812   0.158   2.261  44.373 -0.0733 -0.3993  0.5167
 6441TIP3   OH240813   1.326   3.229  47.471 -0.7395 -0.1110 -0.3714
 6441TIP3    H140814   1.273   3.150  47.466 -0.3349 -0.4852  0.7885
 6441TIP3    H240815   1.277   3.288  47.529 -0.1130 -0.3042  0.3772
 6442TIP3   OH240816   1.529   2.401  51.882 -0.3997  0.3883  0.5442
 6442TIP3    H140817   1.500   2.379  51.971 -0.8756 -0.7513  0.1246
 6442TIP3    H240818   1.533   2.317  51.837 -0.9035  1.0361 -0.7401
 6443TIP3   OH240819   0.971   0.044  15.621 -0.2763  0.4545  0.0022
 6443TIP3    H140820   0.950  -0.000  15.703  0.5523 -0.3349 -0.1872
 6443TIP3    H240821   0.896   0.027  15.565 -0.3723  0.0630  0.2423
 6444TIP3   OH240822   3.170   0.441  52.331  0.6382  0.1940  0.2232
 6444TIP3    H140823   3.174   0.462  52.238 -0.1244 -1.1938 -0.1407
 6444TIP3    H240824   3.117   0.512  52.368  0.1207  0.2407 -0.5678
 6445TIP3   OH240825   1.605   1.131  35.902 -0.1671 -0.3012  0.0558
 6445TIP3    H140826   1.568   1.217  35.924  1.0267  0.1133  0.5295
 6445TIP3    H240827   1.533   1.084  35.861 -0.5242  1.3749 -1.3742
 6446TIP3   OH240828   3.077   0.377  48.419 -0.1105 -0.3729 -0.1462
 6446TIP3    H140829   3.155   0.384  48.364 -0.1265  2.0251  0.0602
 6446TIP3    H240830   3.004   0.401  48.361 -0.2645  0.9422  0.5483
 6447TIP3   OH240831   0.619   2.140   5.478 -0.3080  0.6675  0.5009
 6447TIP3    H140832   0.568   2.081   5.424  0.3649  0.9894 -0.5183
 6447TIP3    H240833   0.710   2.127   5.450 -0.1337  2.1055  0.2963
 6448TIP3   OH240834   3.410   0.521  67.076  0.5261  0.3556 -0.1248
 6448TIP3    H140835   3.333   0.512  67.019  1.6440 -1.1102 -1.5049
 6448TIP3    H240836   3.384   0.479  67.158 -0.9695  2.1428  0.3937
 6449TIP3   OH240837   0.849   1.298   7.339  0.0277  0.2146  0.3958
 6449TIP3    H140838   0.928   1.333   7.380 -0.3870  3.2755 -1.2075
 6449TIP3    H240839   0.777   1.342   7.385 -0.6922 -0.9470  0.4182
 6450TIP3   OH240840   2.165   2.511   4.386 -0.0946 -0.3072 -0.0602
 6450TIP3    H140841   2.216   2.546   4.313 -1.2987 -0.0541 -0.8195
 6450TIP3    H240842   2.229   2.496   4.455  0.9618  0.2088 -0.8879
 6451TIP3   OH240843   0.948   3.116   4.074  0.4703  0.3481  0.9965
 6451TIP3    H140844   0.864   3.159   4.060  0.2183 -0.0751  1.2076
 6451TIP3    H240845   0.938   3.030   4.034  1.9134  1.4377 -2.1007
 6452TIP3   OH240846   1.546   2.845   0.708 -0.1499  0.4602  0.3447
 6452TIP3    H140847   1.509   2.933   0.718 -4.1281 -0.9902 -0.0321
 6452TIP3    H240848   1.531   2.803   0.792  1.0139 -0.1245  0.2750
 6453TIP3   OH240849   0.055   1.173  19.403  0.5815  0.0956  0.1382
 6453TIP3    H140850   0.060   1.241  19.470  0.5833  0.6937 -0.4448
 6453TIP3    H240851   0.140   1.175  19.360  0.2300  0.4585 -0.5634
 6454TIP3   OH240852   3.189   3.313  44.610  0.0904 -0.2141  0.4422
 6454TIP3    H140853   3.126   3.382  44.588  0.8547  0.5413  0.5532
 6454TIP3    H240854   3.266   3.334  44.558  0.0257 -1.5179 -0.2076
 6455TIP3   OH240855   3.113   3.070   0.257 -0.0645  0.1960  0.6142
 6455TIP3    H140856   3.162   2.998   0.298 -0.2334  0.5195  1.4068
 6455TIP3    H240857   3.063   3.028   0.187  2.6191  0.0711 -1.4253
 6456TIP3   OH240858   0.820   3.026  13.433  0.1107  0.3931 -0.0975
 6456TIP3    H140859   0.792   2.937  13.412  1.5144 -0.0643 -0.0871
 6456TIP3    H240860   0.770   3.048  13.512  0.0599 -0.5370  0.1439
 6457TIP3   OH240861   2.505   2.323  16.781  0.2146 -0.6322 -0.3703
 6457TIP3    H140862   2.467   2.253  16.835  0.8384  0.8980  2.2007
 6457TIP3    H240863   2.474   2.404  16.822  2.4077  0.6115 -1.0353
 6458TIP3   OH240864   2.622   2.554  62.773 -0.1246 -0.3340  0.4264
 6458TIP3    H140865   2.557   2.484  62.779 -0.4808  0.0366  1.0761
 6458TIP3    H240866   2.569   2.635  62.771  0.3064 -0.0430  0.6613
 6459TIP3   OH240867   2.401   1.858  22.440 -0.0719  0.3106  0.1253
 6459TIP3    H140868   2.471   1.827  22.498 -0.2681  2.1348  1.4214
 6459TIP3    H240869   2.435   1.940  22.405 -0.0663 -0.6145 -2.2396
 6460TIP3   OH240870   0.724   0.941  15.647 -0.2926 -0.5694  0.2123
 6460TIP3    H140871   0.722   0.845  15.648  0.0610 -0.5858  1.7891
 6460TIP3    H240872   0.794   0.964  15.707  0.1899  0.6945 -0.7933
 6461TIP3   OH240873   1.468   1.723  67.003 -0.0021  0.0742 -0.1061
 6461TIP3    H140874   1.510   1.638  66.987  1.9748  0.5907  1.8443
 6461TIP3    H240875   1.375   1.701  67.016  0.3184 -1.6736 -0.4981
 6462TIP3   OH240876   1.814   1.986  21.469 -0.3011 -0.3180 -0.3416
 6462TIP3    H140877   1.757   2.042  21.522  0.0882 -1.9582  1.9781
 6462TIP3    H240878   1.893   2.039  21.455  0.3853 -0.4033  2.4689
 6463TIP3   OH240879   0.224   0.982   7.764 -0.0586  0.3619  0.5125
 6463TIP3    H140880   0.171   1.013   7.690  1.3313 -0.1928 -0.7623
 6463TIP3    H240881   0.250   0.894   7.739  3.1802  1.3184  0.0979
 6464TIP3   OH240882   0.495   0.114  34.725  0.2117 -0.3428  0.2602
 6464TIP3    H140883   0.420   0.056  34.741  0.6042 -1.3808 -1.4151
 6464TIP3    H240884   0.484   0.143  34.634  1.5659 -0.0949  0.1564
 6465TIP3   OH240885   0.735   0.192  67.237 -0.2564  0.2940 -0.3555
 6465TIP3    H140886   0.805   0.172  67.299 -0.6754  0.3436  0.1507
 6465TIP3    H240887   0.708   0.281  67.259 -1.3961 -0.2118  0.3901
 6466TIP3   OH240888   0.071   1.789   8.587  0.0455  0.4602  0.3384
 6466TIP3    H140889   0.073   1.706   8.633 -0.0062  0.2308 -0.0691
 6466TIP3    H240890   0.163   1.816   8.582 -0.0084  0.7919  1.1207
 6467TIP3   OH240891   2.860   2.770   9.666 -0.1943 -0.2246  0.0709
 6467TIP3    H140892   2.943   2.819   9.666  1.4278 -2.7792 -1.2215
 6467TIP3    H240893   2.840   2.758   9.759 -0.1138  1.9057  0.4180
 6468TIP3   OH240894   0.209   0.915   3.932  0.5786  0.0837  0.3524
 6468TIP3    H140895   0.253   0.930   4.016  0.7071 -0.2645  0.3481
 6468TIP3    H240896   0.249   0.835   3.898  0.5995  0.2765 -0.0890
 6469TIP3   OH240897   0.487   2.240  57.264  0.0534  1.0548 -0.1099
 6469TIP3    H140898   0.477   2.197  57.179  1.5200  0.6597 -0.1137
 6469TIP3    H240899   0.404   2.224  57.309 -0.8116  1.4215 -1.5197
 6470TIP3   OH240900   1.528   3.163   4.874  0.0757 -0.3554  0.5942
 6470TIP3    H140901   1.603   3.183   4.819  0.8096  0.1738  1.7480
 6470TIP3    H240902   1.473   3.241   4.868  0.6270  0.1074  1.3462
 6471TIP3   OH240903   1.051   1.779  16.449  0.3745 -0.1165  0.1127
 6471TIP3    H140904   1.061   1.730  16.368  0.8313 -0.1955  0.2109
 6471TIP3    H240905   1.058   1.714  16.519  0.6986  0.0432  0.2335
 6472TIP3   OH240906   2.626   2.749   1.964 -0.2633  0.5509 -0.2045
 6472TIP3    H140907   2.595   2.798   1.888  0.8939  1.2098 -0.2746
 6472TIP3    H240908   2.679   2.679   1.927  0.0411  0.6815 -0.0196
 6473TIP3   OH240909   0.470   1.470   3.801 -0.0748 -0.1185  0.2490
 6473TIP3    H140910   0.564   1.477   3.817  0.3994 -0.9193 -1.7916
 6473TIP3    H240911   0.463   1.438   3.711 -2.3173  0.0532  0.2840
 6474TIP3   OH240912   0.562   0.325  17.200  0.6472  0.3950 -0.9333
 6474TIP3    H140913   0.567   0.421  17.196  1.5196  0.3737 -0.5941
 6474TIP3    H240914   0.617   0.301  17.275  2.8255 -0.5405 -2.7209
 6475TIP3   OH240915   0.780   1.748  35.392  0.5125  0.3348 -0.4185
 6475TIP3    H140916   0.832   1.697  35.329  4.3259  3.3412 -0.0453
 6475TIP3    H240917   0.823   1.732  35.476 -1.9799 -0.4112  0.7912
 6476TIP3   OH240918   2.298   1.047   4.361 -0.2674 -0.0739  0.2473
 6476TIP3    H140919   2.293   0.959   4.398 -2.8291 -0.3185 -0.4761
 6476TIP3    H240920   2.280   1.105   4.435 -1.6584 -0.3518  0.1411
 6477TIP3   OH240921   2.047   2.941  44.648  0.6833 -0.1671 -0.3231
 6477TIP3    H140922   2.063   3.034  44.639  1.8140 -0.2369  0.6216
 6477TIP3    H240923   2.051   2.925  44.742  0.8471 -1.2209 -0.4953
 6478TIP3   OH240924   3.095   0.904  55.769  0.4297  0.1041  0.1524
 6478TIP3    H140925   3.159   0.951  55.716 -0.3702  0.1153 -0.8253
 6478TIP3    H240926   3.058   0.838  55.711  0.1023 -0.4194  0.9294
 6479TIP3   OH240927   1.226   3.430  50.528 -0.0334 -0.2801 -0.1519
 6479TIP3    H140928   1.190   3.514  50.555 -0.4942 -1.3381  2.9376
 6479TIP3    H240929   1.186   3.413  50.443 -1.1819  1.8648 -0.1055
 6480TIP3   OH240930   0.687   0.991  62.401  0.5030 -0.7813  0.4328
 6480TIP3    H140931   0.664   1.061  62.462  0.3273 -0.3646 -0.1015
 6480TIP3    H240932   0.617   0.927  62.410 -0.6392  0.2212 -0.7797
 6481TIP3   OH240933   0.263   2.413  52.428 -0.2214  0.2017  0.0834
 6481TIP3    H140934   0.198   2.457  52.373  0.3660  0.2340 -0.5944
 6481TIP3    H240935   0.233   2.430  52.518 -1.4087 -0.1893 -0.2158
 6482TIP3   OH240936   0.944   1.899  36.212  0.8538 -0.3539  0.3626
 6482TIP3    H140937   0.890   1.973  36.240 -0.3421 -0.5608 -1.2390
 6482TIP3    H240938   0.934   1.835  36.282 -1.4500 -0.5862 -0.0856
 6483TIP3   OH240939   1.029   0.896  43.604 -0.7341 -0.1289  0.3420
 6483TIP3    H140940   0.939   0.868  43.617 -0.6837  0.0916  1.2096
 6483TIP3    H240941   1.078   0.815  43.590 -1.1089 -0.2265 -0.4689
 6484TIP3   OH240942   0.652   1.112   1.104  0.0339 -0.1186  0.4427
 6484TIP3    H140943   0.560   1.098   1.080 -0.2216  1.2947  0.5407
 6484TIP3    H240944   0.699   1.044   1.057 -1.0177 -0.5917  0.0402
 6485TIP3   OH240945   1.578   0.561  65.189 -0.8849 -0.5306  0.5556
 6485TIP3    H140946   1.563   0.520  65.274  0.3786 -0.3715  0.8873
 6485TIP3    H240947   1.636   0.635  65.208 -0.2113 -0.7681 -0.4873
 6486TIP3   OH240948   1.257   0.879   0.566 -0.4425  0.4188 -0.1677
 6486TIP3    H140949   1.295   0.967   0.563  0.2545  0.0950 -0.9115
 6486TIP3    H240950   1.304   0.835   0.637 -0.6711  0.5824  0.0892
 6487TIP3   OH240951   0.995   0.323  15.612 -0.1552 -0.2888  0.4647
 6487TIP3    H140952   0.998   0.228  15.608 -1.0344 -0.3112  0.1665
 6487TIP3    H240953   0.942   0.349  15.537  2.9226  0.6667 -1.5548
 6488TIP3   OH240954   3.214   0.323  17.441 -0.1333  0.3760  0.5509
 6488TIP3    H140955   3.289   0.378  17.461 -1.2148  1.8994  0.6020
 6488TIP3    H240956   3.223   0.303  17.348  0.7072 -0.0841  0.7188
 6489TIP3   OH240957   2.929   1.750  26.474  0.5239 -0.3573 -0.4262
 6489TIP3    H140958   2.849   1.714  26.511  0.0742 -0.0080 -1.0379
 6489TIP3    H240959   2.906   1.774  26.384  1.0147  0.7458 -0.2745
 6490TIP3   OH240960   0.038   2.683   9.646 -0.5128 -0.1111 -0.4893
 6490TIP3    H140961   0.081   2.597   9.652 -0.3881 -0.0995 -1.1341
 6490TIP3    H240962   0.109   2.744   9.627 -0.6981  0.0285 -0.7406
 6491TIP3   OH240963   1.489   0.989  53.861 -0.7232  0.0631 -0.0526
 6491TIP3    H140964   1.522   1.044  53.790 -0.8562  0.8405  0.4719
 6491TIP3    H240965   1.444   0.916  53.817  2.6962 -1.7750 -0.8564
 6492TIP3   OH240966   1.505   2.399  48.091  0.2085  0.2591 -0.7525
 6492TIP3    H140967   1.435   2.373  48.032  1.4490  0.6199 -2.4709
 6492TIP3    H240968   1.551   2.317  48.111 -1.3041 -0.1644  1.3046
 6493TIP3   OH240969   3.071   1.121  60.438  0.3524  0.1935 -0.4346
 6493TIP3    H140970   3.057   1.209  60.473  1.2643  0.5820 -1.0036
 6493TIP3    H240971   3.024   1.064  60.499 -2.4823  1.2335 -1.4500
 6494TIP3   OH240972   2.232   1.267  11.338 -1.0562  0.0988 -0.0563
 6494TIP3    H140973   2.178   1.218  11.275 -0.0551  0.4817 -1.2503
 6494TIP3    H240974   2.240   1.355  11.300  0.7682 -0.0715 -0.1600
 6495TIP3   OH240975   2.004   1.414  18.057 -0.1128  0.6587  0.1089
 6495TIP3    H140976   2.073   1.360  18.018 -1.1407 -1.5132  1.1389
 6495TIP3    H240977   1.972   1.468  17.984  1.0290 -0.0270 -0.9405
 6496TIP3   OH240978   0.751   0.406  42.795 -0.3087 -0.2907  0.4913
 6496TIP3    H140979   0.709   0.491  42.807  1.6344  1.3646 -3.0052
 6496TIP3    H240980   0.777   0.380  42.883 -3.3510  1.3535  2.0277
 6497TIP3   OH240981   0.217   0.481  52.722  0.3734 -0.0214  0.1010
 6497TIP3    H140982   0.221   0.576  52.733 -0.8530 -0.1632  2.4518
 6497TIP3    H240983   0.126   0.458  52.743  1.0935 -1.8761  1.4715
 6498TIP3   OH240984   2.424   1.282  67.035  0.1403  0.4764 -0.1680
 6498TIP3    H140985   2.467   1.361  67.068  0.3539  0.1879  0.2605
 6498TIP3    H240986   2.467   1.264  66.952  0.2333  0.6934 -0.1683
 6499TIP3   OH240987   2.962   0.645  64.187 -0.1754  0.0120 -0.2952
 6499TIP3    H140988   2.885   0.685  64.228  0.2856  2.2346 -1.4034
 6499TIP3    H240989   3.024   0.717  64.179  2.3008 -1.8272  1.0821
 6500TIP3   OH240990   3.021   2.789   0.450  0.0689 -0.0942  0.2772
 6500TIP3    H140991   2.999   2.713   0.503 -0.8813  0.7978  1.1882
 6500TIP3    H240992   3.112   2.809   0.473  0.4706 -1.1816 -0.2844
 6501TIP3   OH240993   0.753   2.338  48.167  0.5743  0.2256  0.1546
 6501TIP3    H140994   0.841   2.319  48.201  0.8264 -0.8654 -1.0140
 6501TIP3    H240995   0.740   2.431  48.185  1.6099  0.2119  1.1246
 6502TIP3   OH240996   0.766   2.694  67.496  0.4759 -0.0240 -0.0364
 6502TIP3    H140997   0.703   2.672  67.565  0.6606  0.9541  0.4539
 6502TIP3    H240998   0.785   2.610  67.454 -2.0080 -0.2112 -0.9564
 6503TIP3   OH240999   0.090   1.072  49.050 -0.6029 -0.3470 -0.4761
 6503TIP3    H141000   0.163   1.014  49.071 -1.4268 -1.3348 -0.2399
 6503TIP3    H241001   0.095   1.085  48.955 -1.3032 -2.0971 -0.7827
 6504TIP3   OH241002   1.193   0.025   0.228  1.1689  0.0071  0.0389
 6504TIP3    H141003   1.166   0.106   0.272  1.3520 -0.4462  1.0128
 6504TIP3    H241004   1.218  -0.034   0.299 -0.9547 -1.6550 -0.4880
 6505TIP3   OH241005   0.828   3.339  61.076  0.2310 -0.4544 -0.4074
 6505TIP3    H141006   0.920   3.320  61.054 -0.1070 -0.5476 -1.8821
 6505TIP3    H241007   0.781   3.260  61.049 -0.5457  0.4326 -1.7450
 6506TIP3   OH241008   1.220   0.834   7.928  0.1956  0.0378 -0.3313
 6506TIP3    H141009   1.289   0.791   7.978 -1.5834 -1.7652  0.7019
 6506TIP3    H241010   1.191   0.767   7.866  0.1081  1.1524 -1.5320
 6507TIP3   OH241011   2.888   3.437  62.155  0.1581  0.5218 -0.3797
 6507TIP3    H141012   2.796   3.415  62.165  0.2205 -0.1228 -1.1043
 6507TIP3    H241013   2.909   3.490  62.232  0.1390 -2.4051  1.8320
 6508TIP3   OH241014   1.756   1.706  51.829  0.4407  0.0939 -0.1121
 6508TIP3    H141015   1.830   1.735  51.776  0.2509 -2.1607 -1.7507
 6508TIP3    H241016   1.682   1.758  51.797  0.8298  0.5988 -0.2049
 6509TIP3   OH241017   1.447   1.596  19.912 -0.1020  0.3179 -0.3032
 6509TIP3    H141018   1.462   1.527  19.847  0.8519  1.0472 -0.8774
 6509TIP3    H241019   1.532   1.610  19.953 -0.8627 -0.7583  1.7819
 6510TIP3   OH241020   1.561   2.470  57.453 -0.0358  0.2385  0.3323
 6510TIP3    H141021   1.530   2.397  57.399  1.8891 -0.1924 -0.2851
 6510TIP3    H241022   1.592   2.535  57.390 -0.5683  1.0645  0.9021
 6511TIP3   OH241023   3.086   1.356   3.880  0.6270 -0.1313 -0.1927
 6511TIP3    H141024   3.180   1.376   3.879  0.4226  0.9186 -2.1755
 6511TIP3    H241025   3.064   1.336   3.790 -0.6694 -2.5466  0.5725
 6512TIP3   OH241026   0.431   1.360   4.556 -0.8263  0.2861 -0.0565
 6512TIP3    H141027   0.437   1.319   4.470 -0.2748  0.5041 -0.1292
 6512TIP3    H241028   0.516   1.404   4.567 -0.5716 -0.4136  0.9434
 6513TIP3   OH241029   1.233   0.124  52.182 -0.2859 -0.4809 -0.8444
 6513TIP3    H141030   1.243   0.057  52.114  3.1199  0.6953 -1.6722
 6513TIP3    H241031   1.267   0.082  52.261 -0.1732 -0.4316 -0.8660
 6514TIP3   OH241032   2.304   1.082   6.575  0.0863 -0.1667  0.4175
 6514TIP3    H141033   2.321   0.988   6.563  0.3598 -0.0335 -0.2894
 6514TIP3    H241034   2.216   1.095   6.539  0.6632  0.1210 -0.9514
 6515TIP3   OH241035   0.778   1.401  57.291 -0.1384 -0.5979  0.4319
 6515TIP3    H141036   0.758   1.482  57.244 -1.6767 -0.7401  0.7891
 6515TIP3    H241037   0.857   1.368  57.249 -0.6338  0.0437 -1.0706
 6516TIP3   OH241038   2.219   0.338  55.357  0.5393  0.2943 -0.2636
 6516TIP3    H141039   2.298   0.286  55.343  1.5009  0.8376  2.5804
 6516TIP3    H241040   2.151   0.274  55.378  0.9780  0.0118  0.2969
 6517TIP3   OH241041   2.591   1.159   3.134 -0.4769  0.0529  0.2905
 6517TIP3    H141042   2.584   1.248   3.099 -1.5314 -0.0761  0.1568
 6517TIP3    H241043   2.622   1.107   3.060  2.0266  0.6136  0.8646
 6518TIP3   OH241044   2.102   0.486  60.685  0.2778 -0.2344 -0.1814
 6518TIP3    H141045   2.123   0.576  60.710  0.7282 -0.3017 -0.3080
 6518TIP3    H241046   2.052   0.495  60.603 -1.5696  0.0058  0.9165
 6519TIP3   OH241047   0.682   1.342  13.688  0.1473  0.0889 -0.2150
 6519TIP3    H141048   0.606   1.288  13.709 -0.1670  0.2675 -0.8485
 6519TIP3    H241049   0.743   1.283  13.643  1.3180 -0.5841  2.0911
 6520TIP3   OH241050   3.316   0.307   3.770 -0.4478  0.0748 -0.2513
 6520TIP3    H141051   3.238   0.256   3.750 -0.7469  0.2259  0.5311
 6520TIP3    H241052   3.362   0.256   3.836  1.2027 -1.0683 -2.1591
 6521TIP3   OH241053   3.209   0.473  66.109  0.0690  0.0021  0.1658
 6521TIP3    H141054   3.171   0.431  66.186  0.5110 -0.3951  0.1704
 6521TIP3    H241055   3.247   0.401  66.059  0.1361  0.3063 -0.2240
 6522TIP3   OH241056   1.062   2.875  50.731  0.1889  0.4267 -0.2448
 6522TIP3    H141057   1.115   2.797  50.744  0.3184  0.5446 -0.0668
 6522TIP3    H241058   1.099   2.917  50.653  0.1895  0.3734 -0.2721
 6523TIP3   OH241059   3.121   1.664  10.640 -0.0293 -0.0093 -0.1367
 6523TIP3    H141060   3.205   1.696  10.608  0.5136 -0.8026  0.4256
 6523TIP3    H241061   3.124   1.570  10.624 -1.1307  0.0569 -0.7926
 6524TIP3   OH241062   3.241   2.583  58.057 -0.0395 -0.2078 -0.3687
 6524TIP3    H141063   3.279   2.670  58.075 -1.3580  0.3335 -0.1257
 6524TIP3    H241064   3.314   2.534  58.019  0.8832  0.8342 -0.0312
 6525TIP3   OH241065   1.592   2.687   4.621 -0.2832 -0.4900  0.5333
 6525TIP3    H141066   1.594   2.656   4.711  1.2990  0.0572  0.7158
 6525TIP3    H241067   1.649   2.626   4.574  1.2436  0.9204  0.5020
 6526TIP3   OH241068   2.149   2.825  45.847  0.2216 -0.5351  0.3703
 6526TIP3    H141069   2.177   2.826  45.939  1.0817 -1.3534  0.1350
 6526TIP3    H241070   2.061   2.788  45.849 -0.3618  0.7881  0.9885
 6527TIP3   OH241071   0.294   0.557  46.910 -0.5848 -0.1203 -0.9034
 6527TIP3    H141072   0.350   0.500  46.963 -0.5297 -0.8706 -1.7582
 6527TIP3    H241073   0.352   0.591  46.842 -0.8477  0.1929 -0.9706
 6528TIP3   OH241074   0.440   0.902  21.509 -0.0898 -0.7148  0.9049
 6528TIP3    H141075   0.361   0.858  21.478 -0.5564 -0.0323  1.1099
 6528TIP3    H241076   0.408   0.983  21.549  0.6717 -0.6575  1.4095
 6529TIP3   OH241077   1.861   0.475  55.629  0.1535 -0.3580  0.2566
 6529TIP3    H141078   1.844   0.562  55.665  0.4454  0.2787 -1.0805
 6529TIP3    H241079   1.788   0.422  55.659 -1.4412  1.0016 -1.0745
 6530TIP3   OH241080   0.090   0.725  48.992 -0.0203  0.4084  0.8914
 6530TIP3    H141081   0.083   0.663  49.065  0.9563  1.6819  2.1287
 6530TIP3    H241082   0.001   0.761  48.983 -1.0690 -2.3067 -1.0057
 6531TIP3   OH241083   0.622   1.040  54.369 -0.0218  0.1227  0.7374
 6531TIP3    H141084   0.678   1.024  54.445  2.1805 -0.2899 -0.8636
 6531TIP3    H241085   0.627   0.959  54.318 -0.1516  0.9164 -0.5930
 6532TIP3   OH241086   1.467   1.790  56.498  0.2785  0.0861  0.1177
 6532TIP3    H141087   1.441   1.705  56.534 -0.3868  1.2326  2.5331
 6532TIP3    H241088   1.561   1.782  56.483  0.2534 -1.0330  0.4555
 6533TIP3   OH241089   0.976   2.156   2.330 -0.3082  0.3262  0.2147
 6533TIP3    H141090   0.954   2.071   2.367  0.3170 -0.3539 -0.9239
 6533TIP3    H241091   0.892   2.192   2.302 -0.4926 -0.2199  0.0579
 6534TIP3   OH241092   2.405   1.348  56.036  0.3837  0.7212 -0.3556
 6534TIP3    H141093   2.438   1.428  56.076  0.7047  0.3825  0.0718
 6534TIP3    H241094   2.403   1.285  56.108  0.2155  0.3230 -0.7067
 6535TIP3   OH241095   0.866   0.685  10.901 -0.4004 -0.1674 -0.5249
 6535TIP3    H141096   0.943   0.693  10.957 -1.3840 -2.8088  1.4147
 6535TIP3    H241097   0.901   0.683  10.812  1.8614 -1.5238  0.3155
 6536TIP3   OH241098   0.699   3.167  13.652 -0.2079 -0.0227  0.2436
 6536TIP3    H141099   0.744   3.214  13.721 -0.3917 -0.0611  0.3913
 6536TIP3    H241100   0.609   3.156  13.685 -0.8326  1.6488 -0.8073
 6537TIP3   OH241101   1.098   1.641  46.140  0.2012  0.4337  0.3535
 6537TIP3    H141102   1.085   1.556  46.098  0.3170  0.5457  0.0861
 6537TIP3    H241103   1.127   1.619  46.228  0.7850  0.1872  0.1129
 6538TIP3   OH241104   2.387   0.940  52.577  0.7530 -0.1388 -0.3131
 6538TIP3    H141105   2.382   0.858  52.627 -1.6458 -0.4752 -1.0069
 6538TIP3    H241106   2.436   0.917  52.498 -0.1557 -1.0024 -0.6440
 6539TIP3   OH241107   0.069   3.409  56.541 -0.9089 -0.1591 -0.0715
 6539TIP3    H141108   0.057   3.347  56.613 -2.5998  1.4325  1.1255
 6539TIP3    H241109   0.151   3.454  56.561 -0.1848 -1.2907 -0.4151
 6540TIP3   OH241110   0.658   1.415  18.829  0.4228  0.2548 -0.2821
 6540TIP3    H141111   0.743   1.413  18.873 -0.2027  1.1942  1.0374
 6540TIP3    H241112   0.674   1.375  18.744  1.8836 -0.8449  0.4567
 6541TIP3   OH241113   3.422   0.254   7.076  0.3040 -0.4701  0.2021
 6541TIP3    H141114   3.486   0.184   7.063  0.3852 -0.5300  0.8820
 6541TIP3    H241115   3.371   0.255   6.995  1.8569  0.3074 -0.8025
 6542TIP3   OH241116   1.625   1.845  55.683  0.2784 -0.0740  0.2085
 6542TIP3    H141117   1.587   1.775  55.737  1.0717 -0.1560  0.6766
 6542TIP3    H241118   1.626   1.922  55.741  0.7953 -0.0641  0.1864
 6543TIP3   OH241119   2.403   3.341  51.483  0.1794  0.1337 -0.0884
 6543TIP3    H141120   2.402   3.412  51.547 -0.1971 -1.5610  1.9125
 6543TIP3    H241121   2.458   3.273  51.524  0.3151 -0.8481 -1.7947
 6544TIP3   OH241122   3.105   0.454  10.037 -0.4125 -0.0129  0.0143
 6544TIP3    H141123   3.108   0.464  10.132 -0.8080 -0.4377  0.0721
 6544TIP3    H241124   3.183   0.500  10.006 -0.8397  1.0407  0.4631
 6545TIP3   OH241125   1.107   3.103  20.893  0.1476 -0.4965 -0.4409
 6545TIP3    H141126   1.104   3.118  20.799 -0.7303 -0.1914 -0.3763
 6545TIP3    H241127   1.138   3.013  20.902  1.4379 -0.1311 -0.9678
 6546TIP3   OH241128   1.563   3.313  63.002  0.2852  0.2782  0.0192
 6546TIP3    H141129   1.573   3.241  63.065  0.6503  0.5694  0.2975
 6546TIP3    H241130   1.618   3.383  63.037 -1.1687  1.2155  0.5100
 6547TIP3   OH241131   3.079   2.728  22.389 -0.0661  0.5050  0.4386
 6547TIP3    H141132   3.095   2.821  22.372 -0.4865  0.8701  1.8888
 6547TIP3    H241133   3.125   2.710  22.471 -1.7484 -0.0039  1.3156
 6548TIP3   OH241134   2.859   1.255   6.034 -0.3269  0.1471  0.2147
 6548TIP3    H141135   2.836   1.348   6.035 -0.8282  0.0195  0.9183
 6548TIP3    H241136   2.811   1.220   5.958 -0.1212  0.4614 -0.0646
 6549TIP3   OH241137   2.915   3.113  27.634  0.2376  0.1258  0.1049
 6549TIP3    H141138   2.902   3.194  27.585 -1.7863 -0.8771 -1.1291
 6549TIP3    H241139   2.829   3.071  27.634  1.7294 -3.2605 -1.5795
 6550TIP3   OH241140   0.055   2.455  19.928 -0.4805  0.1175  0.4062
 6550TIP3    H141141  -0.040   2.464  19.926 -0.5551 -0.6658  0.2352
 6550TIP3    H241142   0.077   2.411  19.846  0.0925  0.7736  0.1925
 6551TIP3   OH241143   0.010   3.442  51.732  0.4127  0.2555 -0.2279
 6551TIP3    H141144  -0.022   3.490  51.808  0.3857  0.9431 -0.6595
 6551TIP3    H241145   0.062   3.506  51.684  2.8616 -0.9326  0.6767
 6552TIP3   OH241146   0.084   2.108  17.842  0.7089  0.0007 -0.1275
 6552TIP3    H141147   0.039   2.069  17.766  0.7367  0.3805 -0.3403
 6552TIP3    H241148   0.021   2.170  17.879  1.4688  1.4668 -1.1693
 6553TIP3   OH241149   0.147   1.285  59.717 -0.7077 -0.5776  0.2596
 6553TIP3    H141150   0.133   1.341  59.793  0.5986  0.2370 -0.0636
 6553TIP3    H241151   0.073   1.303  59.660 -0.1441  1.1340  0.0015
 6554TIP3   OH241152   2.635   1.680  20.511 -0.2131 -0.4230  0.0207
 6554TIP3    H141153   2.587   1.761  20.492  0.2237 -0.1458  0.0678
 6554TIP3    H241154   2.644   1.638  20.426  0.6390  0.1960 -0.2074
 6555TIP3   OH241155   2.672   3.259  66.295  0.6174 -0.3559  0.4800
 6555TIP3    H141156   2.622   3.182  66.266  0.7264 -0.7776  1.3970
 6555TIP3    H241157   2.605   3.323  66.318  0.4964  0.6209 -2.2183
 6556TIP3   OH241158   1.304   0.824  19.084  0.3335 -0.0116  0.2776
 6556TIP3    H141159   1.220   0.779  19.092  0.5952 -0.6345 -0.4381
 6556TIP3    H241160   1.281   0.912  19.055 -0.0378 -0.3613 -0.5223
 6557TIP3   OH241161   2.028   1.951  65.693  0.1806 -0.2777  0.0013
 6557TIP3    H141162   2.048   1.997  65.774  0.9744 -0.9567  0.2031
 6557TIP3    H241163   1.968   2.010  65.646 -2.0048 -0.7525  1.9831
 6558TIP3   OH241164   0.259   0.271   9.708  0.0113 -0.0240 -0.1955
 6558TIP3    H141165   0.235   0.191   9.754  0.1509 -0.5464 -0.9900
 6558TIP3    H241166   0.324   0.313   9.764 -1.5169  0.5595  1.1726
 6559TIP3   OH241167   3.139   0.742  43.067 -0.4449 -0.2108 -1.0210
 6559TIP3    H141168   3.185   0.740  42.983  0.6370 -2.4436 -0.4540
 6559TIP3    H241169   3.155   0.655  43.105 -3.1181 -0.2249  0.3122
 6560TIP3   OH241170   0.054   1.401  52.291  0.7151  0.0764 -0.0414
 6560TIP3    H141171   0.148   1.400  52.311  0.6031  0.1672  0.5043
 6560TIP3    H241172   0.014   1.447  52.364  0.3387  0.8720 -0.7313
 6561TIP3   OH241173   1.955   0.165  64.973 -0.3298 -1.0344 -0.0448
 6561TIP3    H141174   1.966   0.197  64.883  1.7362 -0.0747  0.4980
 6561TIP3    H241175   1.869   0.198  65.000 -1.3531 -2.0252 -1.9092
 6562TIP3   OH241176   2.715   1.323  14.040 -0.3839  0.5104  0.3047
 6562TIP3    H141177   2.771   1.293  14.111  0.4507 -1.7823 -1.1808
 6562TIP3    H241178   2.632   1.344  14.081  0.2664 -0.1240  2.0182
 6563TIP3   OH241179   0.110   1.135  52.043  0.0575 -0.2365  0.5826
 6563TIP3    H141180   0.036   1.119  51.985  0.7689 -0.4229 -0.2880
 6563TIP3    H241181   0.089   1.217  52.087  0.3744  0.9659 -1.3819
 6564TIP3   OH241182   3.378   2.106  57.905  0.1861 -0.3829 -0.0870
 6564TIP3    H141183   3.424   2.030  57.870  0.0608 -0.1723 -0.7099
 6564TIP3    H241184   3.321   2.135  57.834  0.9088  0.8631 -0.1897
 6565TIP3   OH241185   1.679   1.244   2.952  0.5146  0.0478  0.3461
 6565TIP3    H141186   1.659   1.185   3.024  2.0446 -1.1974 -0.1880
 6565TIP3    H241187   1.775   1.245   2.947  0.4857  1.5754 -0.4911
 6566TIP3   OH241188   0.685   3.426  44.944  0.7032 -0.3322 -0.1010
 6566TIP3    H141189   0.647   3.424  44.856  2.8085  0.0422 -1.0928
 6566TIP3    H241190   0.627   3.483  44.994  1.0618  1.9835 -2.1064
 6567TIP3   OH241191   1.170   3.081  66.424  0.5972  0.8538  0.0200
 6567TIP3    H141192   1.150   2.995  66.387  0.0234  0.8226  0.3828
 6567TIP3    H241193   1.266   3.083  66.430  0.6239  0.3134 -0.1603
 6568TIP3   OH241194   1.108   3.395  61.519  0.1440  0.0755 -0.3078
 6568TIP3    H141195   1.181   3.388  61.581 -1.3833 -1.1892  1.4534
 6568TIP3    H241196   1.072   3.306  61.515 -3.3082  1.2470  1.4650
 6569TIP3   OH241197   0.253   3.214   5.572  0.5261 -0.4173  0.3288
 6569TIP3    H141198   0.218   3.135   5.613  0.5382  0.1508  1.4786
 6569TIP3    H241199   0.333   3.233   5.621  0.9582 -0.1370 -0.4607
 6570TIP3   OH241200   0.111   0.004  44.297  0.2117 -0.2785 -0.3461
 6570TIP3    H141201   0.143  -0.001  44.387 -0.2300  0.6160 -0.1159
 6570TIP3    H241202   0.143   0.089  44.265 -0.8313  0.0627 -0.5322
 6571TIP3   OH241203   0.405   0.604   6.084 -0.3773  0.2485  0.2116
 6571TIP3    H141204   0.475   0.641   6.031 -1.1328 -0.2479 -1.1755
 6571TIP3    H241205   0.347   0.678   6.102  0.2527  0.5671  0.9879
 6572TIP3   OH241206   2.951   0.988  64.689  0.2389  0.4490  0.5392
 6572TIP3    H141207   2.992   0.967  64.606  0.7397  1.6570  0.4553
 6572TIP3    H241208   3.001   0.938  64.754 -0.5286 -0.9672  0.0963
 6573TIP3   OH241209   2.650   3.401  58.513  0.0985  0.0786 -0.0069
 6573TIP3    H141210   2.720   3.339  58.494  0.4183  0.0191  1.2616
 6573TIP3    H241211   2.668   3.431  58.602 -1.6993 -0.2240  0.5049
 6574TIP3   OH241212   0.739   3.133   8.209 -0.2842  0.1404  0.2182
 6574TIP3    H141213   0.692   3.060   8.168  2.2498 -1.5333  0.0376
 6574TIP3    H241214   0.767   3.188   8.137 -1.5397  0.9037  0.2940
 6575TIP3   OH241215   2.072   1.491  46.752  0.4887  0.5228  0.9004
 6575TIP3    H141216   2.164   1.490  46.781  0.6400  1.2903  0.4613
 6575TIP3    H241217   2.045   1.399  46.757  1.7466  0.0402 -0.4095
 6576TIP3   OH241218   0.632   2.786   6.291  0.5992 -0.0772 -0.2389
 6576TIP3    H141219   0.673   2.714   6.243  0.9723 -0.3442  0.4651
 6576TIP3    H241220   0.572   2.826   6.228  2.4527  0.7841 -1.5430
 6577TIP3   OH241221   0.711   1.687  61.714 -0.7855 -0.0380  0.1166
 6577TIP3    H141222   0.804   1.707  61.720 -0.1658 -1.8602 -1.9371
 6577TIP3    H241223   0.672   1.764  61.673 -0.0674  0.4741  0.3818
 6578TIP3   OH241224   0.167   2.092  11.502  0.8824  0.1710  0.2799
 6578TIP3    H141225   0.169   2.085  11.406  1.3656 -0.1700  0.3147
 6578TIP3    H241226   0.082   2.133  11.521  0.3462 -0.6686 -0.2331
 6579TIP3   OH241227   1.893   0.949  45.444 -0.3483 -0.5341 -0.4033
 6579TIP3    H141228   1.935   0.887  45.385  0.1075 -0.7373  0.1208
 6579TIP3    H241229   1.965   0.990  45.492 -0.7232 -0.7966  0.4204
 6580TIP3   OH241230   1.281   2.471  60.734  0.1840  0.3261  0.6237
 6580TIP3    H141231   1.341   2.398  60.749  0.4539  0.2063 -0.9069
 6580TIP3    H241232   1.325   2.525  60.668 -0.6195  1.1576  0.7583
 6581TIP3   OH241233   1.810   1.647   6.873 -0.1712 -0.2268 -0.4172
 6581TIP3    H141234   1.807   1.743   6.881 -0.3933 -0.1315 -1.5229
 6581TIP3    H241235   1.856   1.631   6.791 -1.8532 -1.0092 -1.2689
 6582TIP3   OH241236   0.802   1.022  53.822  0.6965  0.2334  0.3024
 6582TIP3    H141237   0.762   1.043  53.737 -0.4184 -1.6723  0.3105
 6582TIP3    H241238   0.855   0.945  53.804  0.0192 -0.5151  1.4475
 6583TIP3   OH241239   1.266   0.186  62.652  0.4661 -0.5504  0.2267
 6583TIP3    H141240   1.322   0.178  62.729  0.1278 -1.0390  0.4326
 6583TIP3    H241241   1.231   0.098  62.639  0.4854 -0.4642 -0.4596
 6584TIP3   OH241242   2.062   2.562  54.877  0.3311 -0.4916 -0.3186
 6584TIP3    H141243   1.971   2.586  54.865  0.0103 -1.5029  0.0285
 6584TIP3    H241244   2.070   2.543  54.971  1.8301  3.3661  0.5246
 6585TIP3   OH241245   2.654   1.830  13.679 -0.0750 -0.2816 -0.1087
 6585TIP3    H141246   2.736   1.862  13.715 -0.1112 -0.6262  0.2907
 6585TIP3    H241247   2.589   1.846  13.747 -0.1573 -0.8775 -0.0358
 6586TIP3   OH241248   0.033   1.878  12.751  0.0076  0.0111  0.6289
 6586TIP3    H141249  -0.040   1.861  12.692 -0.6633  0.9263  1.1725
 6586TIP3    H241250   0.042   1.798  12.803  1.4019 -1.3032 -1.4851
 6587TIP3   OH241251   1.239   2.077   8.633  0.1487 -0.0645 -0.0747
 6587TIP3    H141252   1.304   2.007   8.623 -0.7619 -1.5796  3.2067
 6587TIP3    H241253   1.276   2.135   8.699  0.4820  2.1832 -2.1187
 6588TIP3   OH241254   0.691   1.300  20.271  0.2766  0.1464 -0.4378
 6588TIP3    H141255   0.743   1.375  20.299  0.6587 -0.5329  0.7644
 6588TIP3    H241256   0.625   1.336  20.213  0.3583  1.4363  0.2439
 6589TIP3   OH241257   2.990   2.122  48.091 -0.0510 -0.0621  0.2386
 6589TIP3    H141258   2.960   2.068  48.018 -1.8326  0.5080  0.5133
 6589TIP3    H241259   2.971   2.212  48.065 -0.8411  0.1391  1.4373
 6590TIP3   OH241260   1.578   3.318  21.612 -0.4429  0.6691  0.0442
 6590TIP3    H141261   1.581   3.307  21.517 -1.6158 -0.7326  0.1314
 6590TIP3    H241262   1.669   3.308  21.640 -0.4051 -1.7362 -0.7055
 6591TIP3   OH241263   0.069   1.219  42.930  0.3849  0.7504 -0.5429
 6591TIP3    H141264   0.086   1.287  42.994  1.8664 -2.4258  2.8399
 6591TIP3    H241265  -0.005   1.252  42.879 -2.0638  3.0622  3.8393
 6592TIP3   OH241266   3.314   0.880  63.509 -0.2133  0.5635 -0.0230
 6592TIP3    H141267   3.233   0.896  63.461  0.3646  0.4432 -1.0532
 6592TIP3    H241268   3.370   0.954  63.487  0.2567  0.2299  0.0378
 6593TIP3   OH241269   3.211   1.406  12.236 -0.0355 -0.2372 -0.1954
 6593TIP3    H141270   3.123   1.401  12.198  0.1536  0.1547 -0.7109
 6593TIP3    H241271   3.255   1.473  12.183  0.9065 -1.1755 -0.6329
 6594TIP3   OH241272   0.631   0.135  16.356 -0.6769  0.8374 -0.1284
 6594TIP3    H141273   0.706   0.185  16.324 -0.7982  0.0716 -1.7262
 6594TIP3    H241274   0.589   0.102  16.277 -0.1255 -2.4821  0.7877
 6595TIP3   OH241275   1.627   0.795  59.469  0.5342  0.2060 -0.2753
 6595TIP3    H141276   1.665   0.851  59.401  0.3391  2.9255  1.6914
 6595TIP3    H241277   1.681   0.812  59.547 -1.6734  0.3580  1.3051
 6596TIP3   OH241278   3.102   2.823   9.888  0.2492  0.2838  0.1598
 6596TIP3    H141279   3.139   2.764   9.954  0.0221  0.9151  0.8732
 6596TIP3    H241280   3.070   2.897   9.939 -2.0915 -0.2643 -0.4091
 6597TIP3   OH241281   3.190   2.831  29.530 -0.1074  0.2578 -0.1033
 6597TIP3    H141282   3.263   2.792  29.482 -0.4081 -1.6427  0.9041
 6597TIP3    H241283   3.165   2.907  29.477  4.0446  2.4273  0.6497
 6598TIP3   OH241284   2.368   3.236  59.112  0.2016  0.4130 -0.0095
 6598TIP3    H141285   2.436   3.301  59.097  0.2150  0.4968  0.4076
 6598TIP3    H241286   2.291   3.272  59.068  0.4886  0.2044 -0.6779
 6599TIP3   OH241287   3.418   1.302   5.214  0.7818 -0.1178 -0.4211
 6599TIP3    H141288   3.508   1.329   5.196  1.4071 -2.7710 -1.8004
 6599TIP3    H241289   3.425   1.243   5.289  0.1142  0.0646 -0.2086
 6600TIP3   OH241290   0.376   0.936  56.285  0.0675  0.0935  0.3034
 6600TIP3    H141291   0.411   0.974  56.366 -0.3124  0.6668  0.2055
 6600TIP3    H241292   0.387   0.842  56.297  1.3111  0.2319  0.4320
 6601TIP3   OH241293   2.850   1.858   8.567 -0.0101 -0.1067 -0.0958
 6601TIP3    H141294   2.887   1.842   8.654 -4.0242 -1.9890  1.5091
 6601TIP3    H241295   2.881   1.785   8.514  1.3093  0.2756  0.1056
 6602TIP3   OH241296   2.847   1.429  13.443  0.1782 -0.3838 -0.2073
 6602TIP3    H141297   2.927   1.436  13.390 -0.2197 -2.6481 -1.2307
 6602TIP3    H241298   2.781   1.476  13.392  0.5549  0.3811 -0.0019
 6603TIP3   OH241299   0.904   1.682   4.840  0.2129  0.3703  0.6320
 6603TIP3    H141300   0.931   1.601   4.795 -0.7181 -1.0170  2.4392
 6603TIP3    H241301   0.862   1.734   4.772 -0.1595 -1.1604 -0.3701
 6604TIP3   OH241302   3.194   2.952   0.838  0.1629  0.0394 -0.2322
 6604TIP3    H141303   3.253   2.979   0.767  0.0032 -1.0010 -0.7945
 6604TIP3    H241304   3.188   2.857   0.828  0.3403 -0.1635  1.3494
 6605TIP3   OH241305   1.379   0.524  46.068 -0.3331 -0.4324 -0.4964
 6605TIP3    H141306   1.293   0.537  46.108  0.1444 -0.0533  0.4365
 6605TIP3    H241307   1.391   0.429  46.067 -1.5107 -0.6135 -2.3103
 6606TIP3   OH241308   1.001   2.071  47.362  0.4043  0.2256  0.0499
 6606TIP3    H141309   0.951   2.145  47.328 -1.9192 -0.9387  0.7527
 6606TIP3    H241310   0.970   1.996  47.312  0.9412 -0.6448  0.9944
 6607TIP3   OH241311   3.391   2.765  12.488  0.6305 -0.0321  0.0739
 6607TIP3    H141312   3.416   2.778  12.397 -3.1358 -1.0321 -1.2925
 6607TIP3    H241313   3.380   2.670  12.497 -1.1342  0.2093  0.8744
 6608TIP3   OH241314   2.471   2.499   5.547  0.5534 -0.0380  0.1263
 6608TIP3    H141315   2.532   2.471   5.614  1.5903  1.7564 -0.0045
 6608TIP3    H241316   2.513   2.575   5.506 -1.6856  1.1827 -0.0675
 6609TIP3   OH241317   2.001   2.949  12.030 -0.4246 -1.0278  0.1709
 6609TIP3    H141318   2.007   2.990  12.117 -1.8899 -0.5278  0.0543
 6609TIP3    H241319   2.091   2.921  12.011  0.2862  0.5085  1.0549
 6610TIP3   OH241320   1.260   0.263  48.286  0.9322  0.3605 -0.2783
 6610TIP3    H141321   1.335   0.203  48.283 -1.4657 -2.9994  0.3952
 6610TIP3    H241322   1.211   0.236  48.363 -1.7536  1.3376 -1.5093
 6611TIP3   OH241323   0.589   2.277  62.045 -0.4452  0.7086  0.0008
 6611TIP3    H141324   0.553   2.198  62.087 -2.2212  1.9796  0.9675
 6611TIP3    H241325   0.665   2.299  62.099 -0.4495  0.1679  0.2430
 6612TIP3   OH241326   0.011   1.878  17.987  0.1409 -0.2015  0.0928
 6612TIP3    H141327  -0.068   1.920  18.020 -0.9415 -0.7019 -1.7235
 6612TIP3    H241328   0.060   1.949  17.945 -0.1477 -0.1993 -0.2367
 6613TIP3   OH241329   2.185   2.566   8.845  0.2687  0.7935 -0.1442
 6613TIP3    H141330   2.231   2.510   8.783 -1.3624 -0.4038 -0.3463
 6613TIP3    H241331   2.253   2.623   8.881  1.5732  0.2906 -1.6803
 6614TIP3   OH241332   0.564   3.365  57.641 -0.2713  0.0364  0.2047
 6614TIP3    H141333   0.655   3.391  57.625  0.0057  0.3787  2.0383
 6614TIP3    H241334   0.512   3.438  57.609  0.2619  0.9447  1.3510
 6615TIP3   OH241335   2.007   0.116   4.324 -0.1126 -0.2153 -0.3906
 6615TIP3    H141336   2.009   0.031   4.280  1.0609 -0.5408  0.2513
 6615TIP3    H241337   2.033   0.097   4.414 -0.4881  0.7353 -0.0699
 6616TIP3   OH241338   3.400   2.210  14.467 -0.2166  0.3856  0.6070
 6616TIP3    H141339   3.444   2.265  14.403  1.6859 -0.0075  1.4750
 6616TIP3    H241340   3.312   2.245  14.474  0.6387  2.7305  0.4470
 6617TIP3   OH241341   1.696   1.172  66.914 -0.6279 -0.2378 -0.3223
 6617TIP3    H141342   1.762   1.115  66.872 -1.4455 -1.9080  0.5548
 6617TIP3    H241343   1.636   1.195  66.843 -0.9128 -1.4265 -0.4897
 6618TIP3   OH241344   2.717   2.341  13.726 -0.2502 -0.0745 -0.1050
 6618TIP3    H141345   2.630   2.354  13.762 -0.2424  1.1796 -0.4644
 6618TIP3    H241346   2.723   2.405  13.654  1.5395  1.0720  0.9657
 6619TIP3   OH241347   1.955   0.273   3.685  0.7440  0.4953 -0.3920
 6619TIP3    H141348   1.938   0.219   3.763  0.4593  1.3391  0.1407
 6619TIP3    H241349   1.908   0.228   3.615  1.0398 -0.3010 -0.1002
 6620TIP3   OH241350   0.409   1.339  18.300  0.8536  0.3279 -0.3180
 6620TIP3    H141351   0.442   1.292  18.377 -1.1358  0.3261  0.6052
 6620TIP3    H241352   0.465   1.415  18.292  1.7052 -0.1850  0.5429
 6621TIP3   OH241353   2.266   0.583  53.363 -0.1426 -0.6426 -0.8321
 6621TIP3    H141354   2.290   0.526  53.290  0.9621 -1.4246  0.1204
 6621TIP3    H241355   2.321   0.660  53.352  0.1120 -0.8128 -0.7497
 6622TIP3   OH241356   0.539   2.421   9.889 -0.1790  0.1294  0.0513
 6622TIP3    H141357   0.445   2.419   9.906 -0.4839 -0.6381 -1.5816
 6622TIP3    H241358   0.567   2.507   9.922 -1.6754  0.8865 -0.5604
 6623TIP3   OH241359   3.231   0.393  57.077  0.0085  0.2778  0.6709
 6623TIP3    H141360   3.188   0.416  56.994  0.5326 -1.5887 -0.1622
 6623TIP3    H241361   3.164   0.348  57.128  0.6226 -1.8193 -0.2620
 6624TIP3   OH241362   1.502   2.776  22.133 -0.4073 -0.1006  0.1769
 6624TIP3    H141363   1.480   2.868  22.120  1.2902  0.5390  1.3884
 6624TIP3    H241364   1.542   2.749  22.050 -1.0177  0.2133 -0.2242
 6625TIP3   OH241365   3.367   2.328  61.408 -0.5237  0.6300  0.0334
 6625TIP3    H141366   3.304   2.314  61.479  2.4816 -0.9303  2.6605
 6625TIP3    H241367   3.427   2.393  61.443  0.2020  0.9936 -1.7838
 6626TIP3   OH241368   3.408   3.373  14.554 -0.0610 -0.1011 -0.0703
 6626TIP3    H141369   3.484   3.419  14.519  0.2872 -0.8219 -0.2614
 6626TIP3    H241370   3.336   3.436  14.545  0.5485  0.6608  0.3033
 6627TIP3   OH241371   1.394   3.068  12.191 -0.1949 -1.2864  0.4993
 6627TIP3    H141372   1.301   3.088  12.198  0.2674  1.9854 -0.6299
 6627TIP3    H241373   1.414   3.080  12.098  1.9692  2.2273  1.2076
 6628TIP3   OH241374   1.740   0.849  48.628  0.5681  0.5037 -0.2041
 6628TIP3    H141375   1.654   0.872  48.664  0.5996  0.4658 -0.1057
 6628TIP3    H241376   1.758   0.762  48.664  1.4976  1.2777  1.3011
 6629TIP3   OH241377   1.046   2.449  53.167 -0.3513  0.0615  0.3379
 6629TIP3    H141378   0.968   2.488  53.128  0.0234  0.1650 -0.3090
 6629TIP3    H241379   1.115   2.460  53.102  0.0346 -0.6733  0.6036
 6630TIP3   OH241380   0.421   2.409  44.708  0.6099  0.1734  0.5696
 6630TIP3    H141381   0.508   2.447  44.721  0.1166  0.8391  2.3068
 6630TIP3    H241382   0.373   2.475  44.658  0.8777  0.1404  0.2669
 6631TIP3   OH241383   3.410   1.351  52.758 -0.3798  0.1423  0.0295
 6631TIP3    H141384   3.476   1.397  52.809 -0.5406 -0.1663  0.5176
 6631TIP3    H241385   3.336   1.339  52.818 -0.1153 -1.2764  0.1075
 6632TIP3   OH241386   1.637   2.720  61.328 -0.3061  0.2274 -0.0765
 6632TIP3    H141387   1.625   2.743  61.236  0.2999 -1.2913 -0.5774
 6632TIP3    H241388   1.719   2.763  61.353 -1.1812  1.7957  0.1895
 6633TIP3   OH241389   2.341   0.384  45.622  0.7576 -0.2068 -0.2071
 6633TIP3    H141390   2.396   0.390  45.700 -1.2112  1.6467  1.1540
 6633TIP3    H241391   2.317   0.291  45.617  1.4638 -0.4846  1.0118
 6634TIP3   OH241392   3.078   0.386  62.644  0.0180  0.1168 -0.4284
 6634TIP3    H141393   3.171   0.400  62.633  0.0725  0.9936  0.9300
 6634TIP3    H241394   3.037   0.468  62.619 -0.3112  0.0406 -0.1617
 6635TIP3   OH241395   0.429   3.412  53.027  0.1528  0.3519 -0.1756
 6635TIP3    H141396   0.369   3.481  52.999 -0.6446 -0.1496  0.2508
 6635TIP3    H241397   0.448   3.432  53.119  0.3654  0.3150 -0.2113
 6636TIP3   OH241398   0.743   0.910  43.124 -0.2254 -0.2577 -0.3488
 6636TIP3    H141399   0.722   0.839  43.185  0.0259 -0.1716 -0.1590
 6636TIP3    H241400   0.838   0.916  43.126 -0.2523  0.1629 -0.2685
 6637TIP3   OH241401   2.732   2.023  66.863 -0.7861 -0.1661  0.2442
 6637TIP3    H141402   2.711   1.963  66.935 -0.3195 -1.3637 -0.5668
 6637TIP3    H241403   2.686   1.985  66.787 -0.1765  0.2988 -0.3688
 6638TIP3   OH241404   0.501   0.676   7.933  0.1578 -0.1770 -0.1030
 6638TIP3    H141405   0.494   0.720   7.849 -0.0890  0.2539  0.1428
 6638TIP3    H241406   0.589   0.638   7.933 -0.7623 -2.5537 -1.7074
 6639TIP3   OH241407   1.238   0.579   6.501 -0.2651 -0.2367  0.1539
 6639TIP3    H141408   1.179   0.560   6.428 -0.1265 -0.0410 -0.0080
 6639TIP3    H241409   1.234   0.674   6.512 -1.3491 -0.3919  1.2936
 6640TIP3   OH241410   1.511   0.320   4.550 -0.0592  0.0539  0.3080
 6640TIP3    H141411   1.556   0.264   4.487  0.4245 -0.2810  0.9376
 6640TIP3    H241412   1.481   0.259   4.618 -0.6268  0.4019  0.3715
 6641TIP3   OH241413   2.583   2.296  26.109  0.6091 -0.2423  0.2397
 6641TIP3    H141414   2.660   2.317  26.163 -0.1241  0.5129  1.0392
 6641TIP3    H241415   2.512   2.286  26.173  0.1513 -1.4962 -0.4480
 6642TIP3   OH241416   3.331   0.323   4.644  0.2228 -0.7090  0.6492
 6642TIP3    H141417   3.359   0.327   4.553 -1.0265 -0.1030  0.2757
 6642TIP3    H241418   3.255   0.265   4.643 -1.3551  1.2662  0.8592
 6643TIP3   OH241419   2.509   0.406  14.234 -0.1009  0.5258 -0.3382
 6643TIP3    H141420   2.469   0.417  14.320  1.3988 -2.8409  0.9388
 6643TIP3    H241421   2.599   0.437  14.245  0.0418  0.2712 -0.7457
 6644TIP3   OH241422   1.382   0.405  21.289  0.1448  0.7664  0.0756
 6644TIP3    H141423   1.433   0.324  21.301  0.4148  1.1576  1.9251
 6644TIP3    H241424   1.438   0.460  21.234  0.4658  0.1134 -0.2612
 6645TIP3   OH241425   0.912   3.205  66.720 -0.1852  0.0309  0.0641
 6645TIP3    H141426   0.855   3.131  66.697 -0.8093 -0.1880  2.1634
 6645TIP3    H241427   0.853   3.281  66.721  0.3475  0.5045 -1.5371
 6646TIP3   OH241428   0.980   1.979  47.816 -0.0044 -0.4200  0.0519
 6646TIP3    H141429   0.969   2.074  47.813  2.1293 -0.1217  0.2734
 6646TIP3    H241430   0.961   1.955  47.907  0.5465 -0.0416  0.2687
 6647TIP3   OH241431   2.186   2.664  50.809 -0.2057 -0.0857 -0.3294
 6647TIP3    H141432   2.240   2.646  50.886 -0.7843  0.4511  0.2162
 6647TIP3    H241433   2.200   2.757  50.791 -2.3648  0.5622  0.9783
 6648TIP3   OH241434   2.994   0.925  47.655 -0.5128 -0.2103  0.1607
 6648TIP3    H141435   2.936   0.934  47.579  0.5393  0.0290 -0.6300
 6648TIP3    H241436   2.988   1.009  47.699 -0.6808 -0.1442  0.0134
 6649TIP3   OH241437   2.485   3.414  15.254 -0.3652 -0.6201  0.1270
 6649TIP3    H141438   2.511   3.503  15.279  0.5362 -0.6636 -0.6195
 6649TIP3    H241439   2.567   3.368  15.239 -0.8337 -1.4910  0.1736
 6650TIP3   OH241440   0.750   2.804  44.521 -0.3834 -0.0847  0.3964
 6650TIP3    H141441   0.741   2.881  44.576 -0.5057 -1.6277  2.6411
 6650TIP3    H241442   0.660   2.777  44.502 -0.4040  1.4792 -2.2533
 6651TIP3   OH241443   1.794   2.000   6.546 -0.1213  0.1945 -0.4137
 6651TIP3    H141444   1.792   1.904   6.539  1.7973  0.1687 -1.4084
 6651TIP3    H241445   1.831   2.029   6.463  0.4264  1.7165  0.3235
 6652TIP3   OH241446   3.123   2.820  48.804 -0.3121  0.1581  0.4632
 6652TIP3    H141447   3.086   2.774  48.728 -1.4257  2.1863 -0.3151
 6652TIP3    H241448   3.162   2.899  48.767  0.5580  0.4090  1.8543
 6653TIP3   OH241449   1.493   1.665   4.091 -0.1613  0.3268 -0.1537
 6653TIP3    H141450   1.542   1.726   4.146  0.0903 -1.2852  1.4986
 6653TIP3    H241451   1.559   1.617   4.041 -0.1248 -0.5895  0.7350
 6654TIP3   OH241452   1.761   1.841   4.055  0.1586 -0.3364  0.1311
 6654TIP3    H141453   1.728   1.931   4.053 -0.9479 -0.7299 -0.7328
 6654TIP3    H241454   1.846   1.848   4.099 -0.3270  0.9749  0.9370
 6655TIP3   OH241455   1.287   1.830  18.579 -0.1887  0.1913  0.2052
 6655TIP3    H141456   1.336   1.770  18.635  0.8365  0.0696 -0.7920
 6655TIP3    H241457   1.220   1.867  18.636  0.0451 -0.8537  1.1908
 6656TIP3   OH241458   0.102   1.058  45.410  0.7644 -1.2974  0.4970
 6656TIP3    H141459   0.067   0.999  45.477  1.1040 -0.9884  0.9489
 6656TIP3    H241460   0.182   1.093  45.449 -0.6738  1.3832  1.2852
 6657TIP3   OH241461   3.392   1.800  59.512 -0.3192  0.1662 -0.1157
 6657TIP3    H141462   3.454   1.749  59.562  1.4200  1.4524 -0.8662
 6657TIP3    H241463   3.378   1.750  59.432 -0.5525 -0.3028  0.2144
 6658TIP3   OH241464   2.105   2.967  14.089 -0.1249 -0.1893  0.2545
 6658TIP3    H141465   2.162   2.920  14.028 -0.4739 -0.5431  0.1966
 6658TIP3    H241466   2.065   2.899  14.142  0.9886  0.1773  1.6175
 6659TIP3   OH241467   2.568   1.560  60.717 -0.2789 -0.2178 -0.3124
 6659TIP3    H141468   2.564   1.632  60.655 -1.9016  0.1785  0.2097
 6659TIP3    H241469   2.640   1.584  60.776 -0.8349  1.0471 -0.1034
 6660TIP3   OH241470   2.610   0.904  22.080  0.0406 -0.5723 -0.0947
 6660TIP3    H141471   2.562   0.831  22.118  0.4774 -0.8457 -0.0597
 6660TIP3    H241472   2.547   0.976  22.078 -1.5392 -1.8592 -3.3227
 6661TIP3   OH241473   0.115   1.588  53.423  0.3817 -0.0161 -0.2729
 6661TIP3    H141474   0.203   1.609  53.392  0.4483  0.5600  0.2830
 6661TIP3    H241475   0.130   1.540  53.505  0.1732  0.2994 -0.0517
 6662TIP3   OH241476   0.755   2.900  22.658  0.4044  0.4827 -0.3600
 6662TIP3    H141477   0.664   2.925  22.673 -0.0560  0.0777 -2.2482
 6662TIP3    H241478   0.804   2.982  22.658  0.2167  0.6409  1.4825
 6663TIP3   OH241479   1.131   2.199  17.963 -0.0768 -0.4083 -0.4815
 6663TIP3    H141480   1.214   2.170  17.926 -1.3694 -3.1239 -1.5060
 6663TIP3    H241481   1.080   2.228  17.887 -0.4498  0.2262  0.0064
 6664TIP3   OH241482   2.078   2.781  42.327 -0.1366 -0.5617 -0.3844
 6664TIP3    H141483   2.060   2.771  42.420  1.8974 -3.8256 -0.1527
 6664TIP3    H241484   2.023   2.715  42.285  0.8151 -0.8969 -1.1512
 6665TIP3   OH241485   2.692   1.987  14.401  0.0943  0.0875 -0.7240
 6665TIP3    H141486   2.729   1.970  14.487 -2.1104 -1.0365  0.0628
 6665TIP3    H241487   2.601   1.960  14.407 -0.7520  2.0664 -2.7529
 6666TIP3   OH241488   2.315   0.525  59.756  0.0452  0.0890 -0.3400
 6666TIP3    H141489   2.314   0.562  59.844  1.8971  0.7485 -0.5584
 6666TIP3    H241490   2.226   0.537  59.724 -0.0365  2.0924  0.5332
 6667TIP3   OH241491   0.110   2.949  52.781 -0.0213 -0.0648  0.6235
 6667TIP3    H141492   0.062   2.919  52.704 -0.5928 -0.6037  1.1823
 6667TIP3    H241493   0.136   2.868  52.826  0.5662  0.2393  0.8416
 6668TIP3   OH241494   1.826   1.426  65.727 -0.3721 -1.1592 -0.3918
 6668TIP3    H141495   1.801   1.345  65.771 -2.6530 -0.5727 -0.4549
 6668TIP3    H241496   1.793   1.417  65.638 -1.5392  0.1475 -0.1457
 6669TIP3   OH241497   0.164   2.931  54.785  0.0365 -0.4666  0.1077
 6669TIP3    H141498   0.130   3.014  54.819 -0.5457  0.0640 -1.6517
 6669TIP3    H241499   0.109   2.865  54.827 -0.4916  0.1339  0.3890
 6670TIP3   OH241500   1.598   2.057  59.139  0.0443 -0.0966  0.1349
 6670TIP3    H141501   1.558   2.118  59.077 -2.0621 -1.6993 -0.2067
 6670TIP3    H241502   1.536   2.052  59.212  0.8551 -0.7533  0.8062
 6671TIP3   OH241503   3.294   1.064  51.026 -0.1648  0.0811 -0.1058
 6671TIP3    H141504   3.290   1.019  50.941 -0.1020  1.7086 -1.0188
 6671TIP3    H241505   3.261   1.152  51.008 -2.1042 -0.1317  2.0171
 6672TIP3   OH241506   3.072   1.919  66.717 -0.1206 -0.1152  0.5501
 6672TIP3    H141507   3.157   1.959  66.703 -0.1017 -0.7962 -1.7002
 6672TIP3    H241508   3.009   1.985  66.690 -0.4060  0.6515  2.8798
 6673TIP3   OH241509   1.659   3.029  47.827  0.3827 -0.1439 -0.3841
 6673TIP3    H141510   1.734   3.046  47.769  1.2447 -1.1184  0.4030
 6673TIP3    H241511   1.625   2.944  47.798 -1.8521  1.2732 -2.1814
 6674TIP3   OH241512   0.530   2.185  66.205 -0.7375  0.3201 -0.0963
 6674TIP3    H141513   0.441   2.220  66.205 -0.8748 -0.0280 -0.0977
 6674TIP3    H241514   0.530   2.118  66.137 -1.0868 -1.1986  1.3367
 6675TIP3   OH241515   1.870   1.108   6.790 -0.5212  0.3812  0.6881
 6675TIP3    H141516   1.935   1.176   6.810  1.9349 -1.4790 -0.3372
 6675TIP3    H241517   1.917   1.026   6.806 -1.4618 -1.1233 -3.2652
 6676TIP3   OH241518   2.043   0.679  22.839  0.1996  0.6203  0.6745
 6676TIP3    H141519   2.091   0.611  22.887  2.5113  0.4117 -1.7045
 6676TIP3    H241520   1.955   0.643  22.826 -0.2973  0.3938  3.9405
 6677TIP3   OH241521   0.855   1.094  20.887  0.0236 -0.0663 -0.2592
 6677TIP3    H141522   0.874   1.151  20.812 -1.0695 -0.9452 -1.2334
 6677TIP3    H241523   0.893   1.140  20.962 -2.0003  2.6642 -0.7575
 6678TIP3   OH241524   1.542   2.247  22.932  0.3111 -0.1221 -0.0334
 6678TIP3    H141525   1.635   2.267  22.922  0.4441 -1.3488 -1.8021
 6678TIP3    H241526   1.540   2.157  22.963 -0.2482 -0.6609 -1.5377
 6679TIP3   OH241527   3.286   0.997   4.381 -0.4035 -0.2084 -0.7340
 6679TIP3    H141528   3.343   0.929   4.418  1.7400  2.3001  0.9051
 6679TIP3    H241529   3.207   0.994   4.434 -0.0683 -0.9923 -0.2693
 6680TIP3   OH241530   2.707   1.749   4.021 -0.5526 -0.0931 -0.4898
 6680TIP3    H141531   2.748   1.692   3.956 -1.9421  0.6482 -2.1031
 6680TIP3    H241532   2.687   1.691   4.095  0.3290 -1.1333 -1.0377
 6681TIP3   OH241533   0.942   0.510  21.942 -0.2528 -0.0920 -0.0932
 6681TIP3    H141534   0.906   0.523  21.855  1.5241 -1.4883 -1.1012
 6681TIP3    H241535   0.901   0.429  21.973  0.7336 -0.8132 -0.5930
 6682TIP3   OH241536   2.711   1.655  64.839  0.0992  0.3569 -0.6962
 6682TIP3    H141537   2.720   1.728  64.900 -0.0698 -0.4176  0.2667
 6682TIP3    H241538   2.792   1.606  64.846 -0.3244 -0.3081 -0.3303
 6683TIP3   OH241539   2.849   0.865  66.909 -0.6099 -0.1887 -0.4456
 6683TIP3    H141540   2.909   0.829  66.974 -0.1392 -1.9851 -1.7700
 6683TIP3    H241541   2.906   0.890  66.836 -1.3079 -0.3348 -1.0475
 6684TIP3   OH241542   0.494   2.124  54.846  0.2516 -0.5715  0.4422
 6684TIP3    H141543   0.581   2.084  54.841  0.3265 -0.2662 -1.2367
 6684TIP3    H241544   0.445   2.082  54.775 -0.9386 -0.6355  1.2887
 6685TIP3   OH241545   2.507   3.395   2.110 -0.1945  0.4757 -0.5250
 6685TIP3    H141546   2.568   3.460   2.076  0.0911  0.6795  0.3579
 6685TIP3    H241547   2.553   3.354   2.183 -0.0035 -1.3696 -1.6116
 6686TIP3   OH241548   0.477   0.969   7.881  0.7536 -0.1684  0.5229
 6686TIP3    H141549   0.452   0.910   7.952  1.9460  0.8761  1.8643
 6686TIP3    H241550   0.394   1.003   7.847  0.1321 -1.3427  0.8154
 6687TIP3   OH241551   2.070   0.361   4.220 -0.4214 -0.3303  0.5160
 6687TIP3    H141552   1.981   0.391   4.243 -0.6161  0.3773 -1.0275
 6687TIP3    H241553   2.071   0.268   4.244 -1.8629 -0.5530 -0.1836
 6688TIP3   OH241554   2.876   2.039  66.505  0.1119  0.2605 -0.3601
 6688TIP3    H141555   2.795   2.087  66.489  0.4646  1.0653  0.2368
 6688TIP3    H241556   2.886   1.982  66.428 -0.2270  1.2588 -1.1593
 6689TIP3   OH241557   0.852   2.746  44.807 -0.3814 -0.0278 -0.0218
 6689TIP3    H141558   0.837   2.697  44.887 -0.7578 -0.6099 -0.4386
 6689TIP3    H241559   0.766   2.782  44.784  0.2697  2.7459  1.4698
 6690TIP3   OH241560   1.305   3.249   4.490  0.0365  0.8890 -0.0074
 6690TIP3    H141561   1.213   3.234   4.513  0.3757 -2.6248 -0.3096
 6690TIP3    H241562   1.302   3.306   4.414 -2.0556 -0.4325 -1.0089
 6691TIP3   OH241563   1.926   2.438  49.748 -0.5210 -0.6720 -0.7105
 6691TIP3    H141564   1.981   2.494  49.693  1.0298  0.1042  1.4568
 6691TIP3    H241565   1.988   2.382  49.795 -1.4353  0.4716  2.1074
 6692TIP3   OH241566   3.054   2.562  22.967  0.4192  0.0118  0.7964
 6692TIP3    H141567   3.138   2.517  22.962  0.5363  0.3298 -0.6189
 6692TIP3    H241568   3.012   2.544  22.883 -0.1102  1.4049  0.7304
 6693TIP3   OH241569   2.800   0.175  19.388 -0.5096 -0.1447  0.0217
 6693TIP3    H141570   2.771   0.086  19.407 -1.1274 -0.3363 -1.6606
 6693TIP3    H241571   2.726   0.230  19.411 -1.2992 -0.3869 -1.7464
 6694TIP3   OH241572   2.465   1.752  58.759 -0.5559  0.0546  0.2588
 6694TIP3    H141573   2.504   1.817  58.818  2.1432  0.2073 -1.4867
 6694TIP3    H241574   2.478   1.668  58.804 -0.1743  0.3398  0.6917
 6695TIP3   OH241575   1.688   0.083  17.792  0.1086 -0.3129 -0.2501
 6695TIP3    H141576   1.616   0.020  17.794 -2.2007  2.1388  0.8292
 6695TIP3    H241577   1.759   0.040  17.838 -1.8362 -1.6531  1.7144
 6696TIP3   OH241578   2.051   1.772   0.052  0.0004  0.8736  0.1735
 6696TIP3    H141579   2.025   1.683   0.076 -0.5367  0.5212 -1.5823
 6696TIP3    H241580   1.974   1.825   0.070  0.5035  1.1247  1.7614
 6697TIP3   OH241581   1.407   2.641  11.963  0.0440 -0.0738 -0.0984
 6697TIP3    H141582   1.351   2.719  11.965  2.4244  1.7236  0.4045
 6697TIP3    H241583   1.425   2.622  12.055  1.2468  0.1842 -0.2579
 6698TIP3   OH241584   3.121   1.178  19.528  0.5892  0.1314 -0.1974
 6698TIP3    H141585   3.162   1.184  19.615  0.1653  0.4033 -0.0116
 6698TIP3    H241586   3.046   1.238  19.533 -1.2035 -1.9979  0.2480
 6699TIP3   OH241587   2.842   0.033  17.422 -0.2855 -0.1786 -0.4940
 6699TIP3    H141588   2.887  -0.012  17.350 -0.7251  0.0709 -0.9329
 6699TIP3    H241589   2.912   0.059  17.482  0.0513 -0.7135 -0.6484
 6700TIP3   OH241590   0.001   0.487  14.342  0.8249  0.2837  0.2793
 6700TIP3    H141591   0.057   0.543  14.289  1.2896 -1.1572 -0.8307
 6700TIP3    H241592   0.061   0.422  14.380  0.2625  0.3061  1.2312
 6701TIP3   OH241593   0.201   0.220   6.110  0.3045  0.4712  0.5648
 6701TIP3    H141594   0.133   0.260   6.165  1.0048  1.6330  0.6068
 6701TIP3    H241595   0.157   0.203   6.027  0.1620  1.9789  0.3069
 6702TIP3   OH241596   0.016   0.531  18.584 -0.2154 -0.6407  0.2565
 6702TIP3    H141597  -0.074   0.535  18.552 -0.2695 -0.7810  0.3906
 6702TIP3    H241598   0.050   0.448  18.549  0.9573  0.9208 -2.6848
 6703TIP3   OH241599   2.670   2.520  44.053 -0.5917  0.2894 -0.1679
 6703TIP3    H141600   2.649   2.483  43.967 -0.0101 -1.0307  0.2289
 6703TIP3    H241601   2.757   2.485  44.073  0.0826  2.0723  0.1659
 6704TIP3   OH241602   1.893   0.738   1.512  0.2109 -0.0434 -0.6871
 6704TIP3    H141603   1.934   0.679   1.576 -1.2335 -0.9546 -0.5537
 6704TIP3    H241604   1.877   0.683   1.435 -0.5708  0.3150 -0.7946
 6705TIP3   OH241605   1.677   1.391  56.671 -0.6888  0.0314  0.5035
 6705TIP3    H141606   1.647   1.466  56.722  1.0604  1.3340 -0.2591
 6705TIP3    H241607   1.599   1.337  56.659 -1.8602  1.3765  1.6658
 6706TIP3   OH241608   2.261   2.937  17.799  0.2490 -0.6236 -0.7418
 6706TIP3    H141609   2.342   2.925  17.750  0.9759  1.0496 -0.0206
 6706TIP3    H241610   2.266   3.026  17.833 -2.0674 -0.3396 -0.9681
 6707TIP3   OH241611   2.018   2.377  11.875  0.4933 -0.4853  0.0023
 6707TIP3    H141612   2.044   2.308  11.814 -1.1861 -2.1421  1.0701
 6707TIP3    H241613   1.941   2.343  11.920 -0.0191  1.8316  1.0684
 6708TIP3   OH241614   2.306   0.476   8.396 -0.7604  0.2689  0.2181
 6708TIP3    H141615   2.219   0.516   8.390 -0.1115  1.6832 -0.1550
 6708TIP3    H241616   2.299   0.414   8.469 -2.1376  0.1758  0.0365
 6709TIP3   OH241617   2.073   1.032   2.377 -0.8338  0.0463  0.1027
 6709TIP3    H141618   2.072   0.945   2.337 -0.0148  0.0831 -0.0311
 6709TIP3    H241619   2.045   1.019   2.467 -1.2461 -0.2678 -0.0680
 6710TIP3   OH241620   0.598   0.158  14.127  0.0872  0.2852  0.6287
 6710TIP3    H141621   0.689   0.143  14.101 -0.6905 -1.1590 -1.5196
 6710TIP3    H241622   0.560   0.209  14.056 -1.2148 -0.6401  0.6305
 6711TIP3   OH241623   0.473   0.301  45.975 -0.2679  0.3893 -0.0995
 6711TIP3    H141624   0.429   0.217  45.959 -1.1524  0.8382 -0.0589
 6711TIP3    H241625   0.513   0.290  46.061  0.8569 -0.4945 -0.7000
 6712TIP3   OH241626   3.244   2.431  52.260 -0.0682  0.6596 -0.3271
 6712TIP3    H141627   3.199   2.450  52.178 -1.1562 -1.0118 -0.1512
 6712TIP3    H241628   3.268   2.339  52.253  0.4006  0.6722  0.9670
 6713TIP3   OH241629   1.508   0.003   0.558  0.3388  0.0302 -0.3471
 6713TIP3    H141630   1.580   0.016   0.496  0.0319  0.7875 -0.5493
 6713TIP3    H241631   1.443  -0.048   0.509 -0.4505  1.6754 -1.0985
 6714TIP3   OH241632   1.522   0.158  21.551 -0.0612 -0.2967  0.0436
 6714TIP3    H141633   1.431   0.164  21.578  0.3070 -0.9227  1.4736
 6714TIP3    H241634   1.532   0.068  21.520 -0.8669  0.7703 -3.8517
 6715TIP3   OH241635   1.423   0.267  57.861  0.8642  0.0718  0.0921
 6715TIP3    H141636   1.372   0.308  57.791  1.6694  1.8880  0.5082
 6715TIP3    H241637   1.496   0.224  57.816  0.2885 -0.5026 -0.3161
 6716TIP3   OH241638   3.110   1.597   2.766  0.1643 -0.3755  1.0685
 6716TIP3    H141639   3.061   1.536   2.821 -0.3848 -0.7599  0.1660
 6716TIP3    H241640   3.048   1.623   2.698  0.2481  1.5331  1.6726
 6717TIP3   OH241641   0.415   3.154   2.352  0.0762 -0.0100  0.2772
 6717TIP3    H141642   0.437   3.068   2.316 -0.3584 -0.6352  1.4629
 6717TIP3    H241643   0.499   3.199   2.360  0.3632 -0.5308  0.1905
 6718TIP3   OH241644   0.960   1.434  15.823 -0.0888  0.1032 -0.0037
 6718TIP3    H141645   0.938   1.459  15.913  0.2080  0.7945 -0.1145
 6718TIP3    H241646   1.025   1.364  15.833 -0.1345  0.1062  0.3229
 6719TIP3   OH241647   1.312   2.039  53.784 -0.2513  0.2929  0.2858
 6719TIP3    H141648   1.348   1.971  53.841 -0.5991 -1.5702 -1.5994
 6719TIP3    H241649   1.329   2.121  53.831  0.9624 -0.9984  2.2499
 6720TIP3   OH241650   0.050   0.057   7.350  0.0226  0.5081 -0.4331
 6720TIP3    H141651   0.039   0.011   7.434  0.8479 -0.2440 -0.7194
 6720TIP3    H241652   0.116   0.124   7.368  1.1432 -0.4705 -0.7642
 6721TIP3   OH241653   1.130   2.700   7.184  0.4006 -0.5628 -0.0791
 6721TIP3    H141654   1.209   2.754   7.183  0.6540 -0.8142  1.8638
 6721TIP3    H241655   1.084   2.723   7.103  2.9408 -1.1859 -1.8200
 6722TIP3   OH241656   2.528   2.726  19.601  0.5854 -0.0382 -0.1678
 6722TIP3    H141657   2.490   2.811  19.619 -0.5594 -0.1147 -1.9324
 6722TIP3    H241658   2.463   2.663  19.632  1.2624 -0.2819  0.7966
 6723TIP3   OH241659   1.941   1.392  20.194  0.4708  0.0759  0.1641
 6723TIP3    H141660   1.898   1.444  20.262  1.0450 -1.1735  1.5391
 6723TIP3    H241661   1.941   1.448  20.117 -0.6640  1.3466  1.0499
 6724TIP3   OH241662   2.859   2.776  57.580 -0.1331 -0.5519 -0.1214
 6724TIP3    H141663   2.876   2.759  57.672 -0.7321 -2.5053 -0.3405
 6724TIP3    H241664   2.777   2.825  57.579 -0.1931 -0.6385  0.3816
 6725TIP3   OH241665   3.167   3.075   1.489 -0.2339 -0.1298 -0.4234
 6725TIP3    H141666   3.127   3.103   1.407 -1.0044 -2.2075 -0.8081
 6725TIP3    H241667   3.093   3.062   1.548 -0.0059 -1.8643 -0.4639
 6726TIP3   OH241668   0.456   0.037  48.855 -0.6620 -0.5367 -0.2996
 6726TIP3    H141669   0.499  -0.014  48.924  1.4200  0.7241 -0.5746
 6726TIP3    H241670   0.397   0.096  48.901 -0.1449 -0.4954  0.3310
 6727TIP3   OH241671   0.701   3.079  60.018  0.6568  0.1062 -0.3720
 6727TIP3    H141672   0.792   3.108  60.014  0.7526 -0.0694  0.3087
 6727TIP3    H241673   0.667   3.093  59.930  0.7398  2.1484 -0.1193
 6728TIP3   OH241674   0.772   0.362  53.988 -0.6569  0.0714 -0.1074
 6728TIP3    H141675   0.764   0.277  54.033 -0.1056  0.3905  0.6077
 6728TIP3    H241676   0.794   0.424  54.057 -0.0306  0.6219 -0.7824
 6729TIP3   OH241677   2.751   2.269   4.110 -0.2317  0.5192  0.2495
 6729TIP3    H141678   2.736   2.278   4.016  4.9462  0.0440 -0.9105
 6729TIP3    H241679   2.735   2.176   4.128 -0.0928  0.3542 -0.4563
 6730TIP3   OH241680   0.034   1.473  55.775  0.6104  0.3340 -0.2686
 6730TIP3    H141681  -0.038   1.455  55.835  0.2155 -1.4849 -1.2245
 6730TIP3    H241682   0.089   1.395  55.780  1.1182  0.6009 -1.4942
 6731TIP3   OH241683   1.685   0.415  61.222 -0.2503 -0.2748 -0.0589
 6731TIP3    H141684   1.762   0.443  61.173 -0.0757  1.1837  0.9891
 6731TIP3    H241685   1.720   0.365  61.296 -0.4275 -1.0696 -0.4951
 6732TIP3   OH241686   2.152   0.713  47.999  0.3641  0.4156 -0.2043
 6732TIP3    H141687   2.233   0.695  48.046 -0.9375 -0.1270  1.9535
 6732TIP3    H241688   2.090   0.738  48.067 -2.3816 -2.9219 -1.2114
 6733TIP3   OH241689   0.942   1.905  18.986  0.3815  0.1040  0.5171
 6733TIP3    H141690   0.879   1.837  18.962  0.5499  0.0334  0.2602
 6733TIP3    H241691   0.985   1.871  19.065  0.8283 -0.3308  0.0952
 6734TIP3   OH241692   0.289   1.877   1.764  0.6638  0.2886 -0.7415
 6734TIP3    H141693   0.216   1.815   1.757 -0.0483  1.1311 -0.8995
 6734TIP3    H241694   0.335   1.870   1.681  0.0830  0.5820 -1.0931
 6735TIP3   OH241695   0.237   2.654  66.626 -0.3520  0.1009  0.4746
 6735TIP3    H141696   0.176   2.725  66.605 -0.4248  0.3122  1.3563
 6735TIP3    H241697   0.181   2.581  66.651 -0.2982 -0.5421 -1.2025
 6736TIP3   OH241698   2.309   2.904   4.673  0.3831 -0.0442 -0.1244
 6736TIP3    H141699   2.243   2.845   4.637 -0.6948  1.4516 -0.7039
 6736TIP3    H241700   2.263   2.988   4.684  1.9950  0.8478  0.1486
 6737TIP3   OH241701   1.748   1.012  51.023  1.2315  0.1843 -0.1302
 6737TIP3    H141702   1.694   0.977  51.094  1.4044 -1.1482 -0.6313
 6737TIP3    H241703   1.761   0.938  50.964  4.5419  0.1364  0.4824
 6738TIP3   OH241704   1.220   0.520  22.254  0.2452 -0.5900  0.0825
 6738TIP3    H141705   1.230   0.512  22.349  0.6708 -0.5635  0.0424
 6738TIP3    H241706   1.201   0.431  22.225  2.2339 -1.0194 -0.0421
 6739TIP3   OH241707   1.310   2.478  49.602 -0.0418 -0.3014 -0.1841
 6739TIP3    H141708   1.341   2.408  49.544 -2.6804 -0.9118 -1.0050
 6739TIP3    H241709   1.300   2.554  49.544  3.9424  1.3368  0.9035
 6740TIP3   OH241710   3.288   2.991  15.556  0.3805  0.4112  0.2567
 6740TIP3    H141711   3.300   2.962  15.646  1.1786 -0.8944 -0.2443
 6740TIP3    H241712   3.324   2.920  15.503 -2.0676  0.1409 -1.1624
 6741TIP3   OH241713   3.173   3.275  56.175  0.2547 -0.1306  0.1083
 6741TIP3    H141714   3.114   3.335  56.220  1.0404  1.3794 -0.8118
 6741TIP3    H241715   3.245   3.262  56.237  0.1355 -0.0333  0.2692
 6742TIP3   OH241716   2.267   0.185  52.250 -0.0802  0.2381  0.5518
 6742TIP3    H141717   2.260   0.237  52.170  1.7607 -2.4059 -1.5360
 6742TIP3    H241718   2.190   0.128  52.248  0.7719 -0.9399 -0.3060
 6743TIP3   OH241719   1.933   1.374  42.925 -0.2490 -0.1343 -0.0653
 6743TIP3    H141720   1.953   1.371  42.831 -0.9213 -1.9340 -0.1933
 6743TIP3    H241721   2.010   1.415  42.964  1.2149 -1.6774 -1.1659
 6744TIP3   OH241722   3.155   1.716  66.904  0.2353  0.1020  0.2449
 6744TIP3    H141723   3.079   1.670  66.940  0.6915  0.4101  1.6670
 6744TIP3    H241724   3.119   1.778  66.841 -0.5868 -0.5401  0.0803
 6745TIP3   OH241725   2.758   1.127   4.503  0.3990  0.7521 -0.2309
 6745TIP3    H141726   2.820   1.197   4.484  0.1072  1.1738  0.3311
 6745TIP3    H241727   2.679   1.173   4.534 -0.2290  0.2381 -1.0173
 6746TIP3   OH241728   1.883   0.119  50.334 -0.3025 -0.7792 -0.7014
 6746TIP3    H141729   1.904   0.145  50.424 -0.0734 -0.5740 -0.8136
 6746TIP3    H241730   1.789   0.133  50.326  0.0441  1.6497 -1.2816
 6747TIP3   OH241731   2.657   0.910  58.893  0.0496  0.0024 -0.3352
 6747TIP3    H141732   2.585   0.933  58.952 -0.2280  1.7980 -1.3142
 6747TIP3    H241733   2.718   0.983  58.901 -0.3336  0.6698 -2.7576
 6748TIP3   OH241734   1.910   1.264  15.532  0.0587 -0.1950 -0.1042
 6748TIP3    H141735   1.998   1.233  15.509  1.9787  3.4085  1.6250
 6748TIP3    H241736   1.879   1.309  15.453  0.9198  0.7041  0.0480
 6749TIP3   OH241737   1.432   0.666  21.425 -0.4303  0.5522 -0.3517
 6749TIP3    H141738   1.415   0.573  21.408 -0.3304  0.4307  0.1923
 6749TIP3    H241739   1.385   0.684  21.506  1.5539  0.3474  0.9115
 6750TIP3   OH241740   0.862   2.560  52.086 -0.8066  0.2174 -0.0715
 6750TIP3    H141741   0.832   2.643  52.048  0.3781  1.4698  1.6054
 6750TIP3    H241742   0.955   2.572  52.101 -0.4977 -1.6356 -0.2456
 6751TIP3   OH241743   1.339   0.036  61.307 -0.2563 -0.0234 -1.0126
 6751TIP3    H141744   1.283   0.048  61.231 -2.1001 -0.4862  0.2042
 6751TIP3    H241745   1.286   0.067  61.381  1.2105 -0.2034  0.1722
 6752TIP3   OH241746   0.531   2.306  13.990  0.2910  0.2308 -0.1591
 6752TIP3    H141747   0.621   2.338  13.997  0.0508  0.9814 -0.4420
 6752TIP3    H241748   0.534   2.218  14.028  0.7726  0.9192  1.5146
 6753TIP3   OH241749   0.580   1.753  53.579 -0.4490  0.1274  0.0199
 6753TIP3    H141750   0.629   1.784  53.655 -0.7367 -0.1145  0.3065
 6753TIP3    H241751   0.559   1.833  53.530  0.3435  0.2240 -0.1869
 6754TIP3   OH241752   2.979   0.543  27.785  0.2955  0.4076  0.7400
 6754TIP3    H141753   3.070   0.549  27.814  0.9458 -0.9739 -0.8926
 6754TIP3    H241754   2.966   0.451  27.766 -0.5852  0.9744 -1.6848
 6755TIP3   OH241755   1.419   2.437  67.241 -0.2966  0.3486 -0.4225
 6755TIP3    H141756   1.476   2.389  67.301 -0.3414 -0.6216 -1.1343
 6755TIP3    H241757   1.455   2.525  67.238 -0.7154  0.6457  1.5928
 6756TIP3   OH241758   1.961   1.981   7.072 -0.1093 -0.0476 -0.3833
 6756TIP3    H141759   1.911   2.059   7.096  1.0972  0.8089 -0.5966
 6756TIP3    H241760   1.975   1.989   6.978 -0.5931 -0.9002 -0.5389
 6757TIP3   OH241761   2.184   2.644  13.699  0.0335 -1.0567 -0.4225
 6757TIP3    H141762   2.135   2.711  13.652  1.7072 -0.0717 -0.8480
 6757TIP3    H241763   2.145   2.561  13.669 -1.6466 -0.3277 -0.3625
 6758TIP3   OH241764   2.710   2.858  10.475  0.4434  0.3050 -0.4295
 6758TIP3    H141765   2.772   2.824  10.410  0.1887 -1.0291  0.0025
 6758TIP3    H241766   2.736   2.950  10.486 -0.2670  0.9638 -3.3212
 6759TIP3   OH241767   2.121   0.801  21.106  0.6874  0.3747 -0.0430
 6759TIP3    H141768   2.132   0.800  21.011  0.3114  1.7216 -0.1134
 6759TIP3    H241769   2.026   0.792  21.119  0.8972 -2.1778  0.3078
 6760TIP3   OH241770   0.458   2.476  56.011  0.4890  0.0364 -0.2104
 6760TIP3    H141771   0.495   2.451  55.927  0.5776 -0.1224 -0.1224
 6760TIP3    H241772   0.397   2.547  55.990  1.5832  1.0050 -0.2262
 6761TIP3   OH241773   0.498   2.993  43.085 -1.3544 -0.2561 -0.0334
 6761TIP3    H141774   0.498   2.991  43.181 -2.2246 -0.1477 -0.0218
 6761TIP3    H241775   0.407   3.008  43.062 -0.8033  2.5590 -0.8081
 6762TIP3   OH241776   2.587   1.757  14.935 -0.4354 -0.4709  0.2408
 6762TIP3    H141777   2.542   1.795  14.859 -0.4429 -0.5797  0.1904
 6762TIP3    H241778   2.613   1.670  14.906 -0.5510 -0.5620  0.4062
 6763TIP3   OH241779   1.028   0.753  64.867  0.1090 -0.2619 -0.3137
 6763TIP3    H141780   1.096   0.738  64.802 -2.0930 -1.1435 -2.5818
 6763TIP3    H241781   0.979   0.671  64.870 -0.8259  0.2972  1.3376
 6764TIP3   OH241782   0.220   2.332  21.543  0.2260  0.3386  0.1931
 6764TIP3    H141783   0.161   2.266  21.505 -0.9341  0.9955  0.7916
 6764TIP3    H241784   0.176   2.415  21.525  0.0749  0.7301  2.2022
 6765TIP3   OH241785   3.040   0.116  61.629 -0.0557 -0.5711 -0.1032
 6765TIP3    H141786   2.996   0.201  61.634 -1.1350 -0.9467 -2.3288
 6765TIP3    H241787   2.970   0.053  61.615  0.8431 -1.7313  0.3843
 6766TIP3   OH241788   1.642   3.065  65.082 -0.3707  0.2387  0.0327
 6766TIP3    H141789   1.547   3.072  65.076 -0.4739 -0.1663  0.9972
 6766TIP3    H241790   1.659   3.049  65.175  0.6465  0.3992 -0.1118
 6767TIP3   OH241791   1.123   2.907  56.532  0.1916 -0.8342 -0.1906
 6767TIP3    H141792   1.157   2.977  56.589 -1.2064  0.1815 -0.5589
 6767TIP3    H241793   1.190   2.897  56.465  0.1527  0.6196 -0.4892
 6768TIP3   OH241794   2.268   2.845  21.226 -0.5599 -0.7009  0.3030
 6768TIP3    H141795   2.180   2.882  21.218 -0.5419 -0.8505 -0.8091
 6768TIP3    H241796   2.264   2.789  21.304 -1.6976 -1.3702 -0.2093
 6769TIP3   OH241797   2.702   2.073   4.803  0.0184 -0.1402 -0.6388
 6769TIP3    H141798   2.630   2.097   4.745 -1.2470 -0.8724  0.5696
 6769TIP3    H241799   2.708   1.978   4.794  0.8463 -0.0861 -0.7237
 6770TIP3   OH241800   0.162   2.079  42.491  0.3619 -0.0442  0.1466
 6770TIP3    H141801   0.108   2.047  42.563  1.5177  0.1688  1.1512
 6770TIP3    H241802   0.156   2.175  42.498  1.4597 -0.0023  0.7729
 6771TIP3   OH241803   1.388   2.023  59.967  0.1496 -0.2566 -0.6277
 6771TIP3    H141804   1.350   1.935  59.968  2.3568 -1.3404  2.4233
 6771TIP3    H241805   1.364   2.060  60.052  0.9446  1.3479 -1.0606
 6772TIP3   OH241806   1.477   1.089  66.686 -0.4801  0.7597 -0.2641
 6772TIP3    H141807   1.465   0.998  66.660  0.3369  0.3774  0.6657
 6772TIP3    H241808   1.413   1.103  66.756  1.1691  0.0797  1.4584
 6773TIP3   OH241809   2.636   2.866  54.753 -0.1139 -0.2201 -0.3688
 6773TIP3    H141810   2.615   2.944  54.805  0.1517 -0.1395 -0.3850
 6773TIP3    H241811   2.645   2.797  54.819 -1.3786 -0.4614 -0.4235
 6774TIP3   OH241812   3.392   3.373  55.941  0.1147 -0.2180  0.5777
 6774TIP3    H141813   3.359   3.453  55.900  2.9175  1.3793  1.1799
 6774TIP3    H241814   3.341   3.364  56.021 -1.2997  0.0483 -0.2561
 6775TIP3   OH241815   1.885   0.666  58.368 -0.0365 -0.1228  0.8474
 6775TIP3    H141816   1.851   0.604  58.433 -1.1753 -0.6543 -0.2148
 6775TIP3    H241817   1.808   0.698  58.323  0.7862 -1.3130 -1.6065
 6776TIP3   OH241818   0.786   0.156  14.856 -0.0818  0.3255  0.4259
 6776TIP3    H141819   0.875   0.185  14.879 -0.1692 -0.2832  1.6050
 6776TIP3    H241820   0.787   0.062  14.871 -1.3872  0.5298  2.1260
 6777TIP3   OH241821   1.048   2.636  59.222  0.0791 -0.4519 -0.0512
 6777TIP3    H141822   1.122   2.692  59.244 -0.4953  0.1780  0.3104
 6777TIP3    H241823   1.021   2.598  59.306 -0.9593  0.5195  0.0753
 6778TIP3   OH241824   0.807   0.636  64.568 -0.5677 -0.3235 -0.8008
 6778TIP3    H141825   0.791   0.594  64.653  0.5088  0.2014 -0.3088
 6778TIP3    H241826   0.900   0.621  64.552 -0.9774 -1.3482 -2.4422
 6779TIP3   OH241827   3.225   3.175  22.787  0.1873 -0.9236  0.3792
 6779TIP3    H141828   3.200   3.172  22.880  0.8559 -1.7053  0.5469
 6779TIP3    H241829   3.310   3.131  22.784 -0.1267 -1.4771 -0.7037
 6780TIP3   OH241830   1.364   1.895  54.427  0.0765  0.4573 -0.0257
 6780TIP3    H141831   1.365   1.810  54.384 -0.0293  1.7071 -2.7858
 6780TIP3    H241832   1.449   1.903  54.469  0.0649 -1.0189  0.2955
 6781TIP3   OH241833   1.417   0.089  12.586  0.4309 -0.2833  0.0116
 6781TIP3    H141834   1.410  -0.006  12.590  0.9475 -0.3616 -0.6906
 6781TIP3    H241835   1.463   0.106  12.504  0.8044  0.5520  0.3806
 6782TIP3   OH241836   2.008   0.843  46.626  0.1642 -0.4232  0.3162
 6782TIP3    H141837   2.095   0.862  46.662  0.4747  0.0033 -0.6297
 6782TIP3    H241838   1.957   0.815  46.702  0.5653  1.2405  1.2703
 6783TIP3   OH241839   2.522   2.414  54.156  0.1319  0.6199 -0.3477
 6783TIP3    H141840   2.538   2.362  54.235  0.8282  1.1324 -0.1355
 6783TIP3    H241841   2.605   2.459  54.141 -0.1725  0.9538 -1.0597
 6784TIP3   OH241842   1.844   2.899  62.138  0.1092  0.3231  0.4442
 6784TIP3    H141843   1.779   2.906  62.069  2.7806 -1.2958 -2.4813
 6784TIP3    H241844   1.874   2.989  62.153 -0.0202  0.6320 -1.0840
 6785TIP3   OH241845   1.617   1.125  65.487 -0.1464  0.2014 -0.0697
 6785TIP3    H141846   1.629   1.080  65.570  0.1909  0.2706 -0.0846
 6785TIP3    H241847   1.522   1.135  65.479 -0.2535 -0.8526 -0.2508
 6786TIP3   OH241848   3.034   0.720  62.492 -0.0252  0.2703  0.2051
 6786TIP3    H141849   3.099   0.742  62.558  0.0037  1.0577 -0.0826
 6786TIP3    H241850   3.085   0.703  62.413 -0.1614  0.7160  0.0252
 6787TIP3   OH241851   2.410   1.329  45.818 -0.0761  0.3094 -0.0822
 6787TIP3    H141852   2.401   1.405  45.761  2.5620  0.0661 -0.9731
 6787TIP3    H241853   2.482   1.279  45.780 -1.0861 -2.1684  1.0251
 6788TIP3   OH241854   2.319   2.095  59.390  0.3592  0.4586 -0.4290
 6788TIP3    H141855   2.365   2.017  59.419  0.4562  0.8951  0.6176
 6788TIP3    H241856   2.239   2.061  59.347  1.0759 -0.2482 -1.2516
 6789TIP3   OH241857   2.448   1.126  21.846 -0.3389  0.1502  0.6004
 6789TIP3    H141858   2.460   1.219  21.828  0.1845  0.3208  1.7401
 6789TIP3    H241859   2.383   1.124  21.916 -3.0340 -0.5343 -1.7305
 6790TIP3   OH241860   2.087   3.390   3.573 -0.1649  0.0830 -0.0496
 6790TIP3    H141861   2.115   3.470   3.528  0.5236  0.2030  0.5570
 6790TIP3    H241862   2.004   3.414   3.615 -1.3330 -0.3276 -2.0232
 6791TIP3   OH241863   3.037   3.258   6.213 -0.3753  0.1641  0.4797
 6791TIP3    H141864   3.111   3.306   6.251  0.1670 -0.8693  0.7625
 6791TIP3    H241865   3.067   3.234   6.126  0.0353 -1.1479  0.9677
 6792TIP3   OH241866   3.209   3.062  66.349  0.1048  0.3370 -0.0301
 6792TIP3    H141867   3.151   3.123  66.303 -0.4598  0.6529  1.0679
 6792TIP3    H241868   3.180   2.976  66.320  0.2247  0.5533 -0.8017
 6793TIP3   OH241869   1.095   2.697  18.551 -1.0561  0.6360  0.1329
 6793TIP3    H141870   1.025   2.699  18.485 -0.5056 -0.5982 -0.5281
 6793TIP3    H241871   1.056   2.736  18.629 -2.5220 -0.1289 -0.1914
 6794TIP3   OH241872   2.059   1.326   8.752 -0.5999  0.1862 -0.4135
 6794TIP3    H141873   2.023   1.303   8.838  1.1313  0.5058  0.4620
 6794TIP3    H241874   2.140   1.373   8.773 -0.8633  1.5260 -2.2292
 6795TIP3   OH241875   0.163   1.522  55.081  0.6343  0.4080  0.3566
 6795TIP3    H141876   0.162   1.616  55.063  1.0115  0.5657  1.1224
 6795TIP3    H241877   0.203   1.483  55.002  2.3456  1.0936  0.8341
 6796TIP3   OH241878   2.805   0.817   6.791  0.6044  0.0217 -0.2254
 6796TIP3    H141879   2.710   0.820   6.798  0.6106  0.6625 -0.3731
 6796TIP3    H241880   2.824   0.855   6.705  0.7520 -4.0887 -2.2899
 6797TIP3   OH241881   0.788   1.112  61.724 -0.2458  0.5032 -0.4365
 6797TIP3    H141882   0.866   1.116  61.668 -0.2904  0.6749 -0.4886
 6797TIP3    H241883   0.755   1.023  61.712  0.5882  0.0623  0.4685
 6798TIP3   OH241884   1.620   1.280  43.236 -0.1142  0.1098 -0.2464
 6798TIP3    H141885   1.651   1.192  43.257  0.1083  0.2769  0.1398
 6798TIP3    H241886   1.525   1.270  43.222  0.1456 -0.4484 -1.6888
 6799TIP3   OH241887   2.685   2.347  14.416 -0.2938 -0.1458 -0.2331
 6799TIP3    H141888   2.771   2.390  14.427  0.9952 -2.6414  0.1263
 6799TIP3    H241889   2.648   2.345  14.504 -0.0294 -0.3934 -0.1245
 6800TIP3   OH241890   2.397   1.720   2.930 -0.3682  0.0671  0.0262
 6800TIP3    H141891   2.409   1.675   2.846  1.1176  0.4450  0.0068
 6800TIP3    H241892   2.471   1.689   2.984 -1.3662 -0.2693  1.2519
 6801TIP3   OH241893   1.310   2.875  53.177  0.2999 -0.8128 -0.1184
 6801TIP3    H141894   1.299   2.912  53.090 -0.1384  1.6660  0.8959
 6801TIP3    H241895   1.222   2.846  53.202  0.4188 -1.4884 -0.4380
 6802TIP3   OH241896   2.536   0.748  12.918  0.0818  0.3856  0.6203
 6802TIP3    H141897   2.609   0.695  12.886 -0.5490  0.0318 -0.2650
 6802TIP3    H241898   2.499   0.789  12.840 -0.4869  0.7901  1.0912
 6803TIP3   OH241899   2.989   0.429  43.219 -0.2705  0.2671 -0.3462
 6803TIP3    H141900   2.929   0.393  43.284 -1.3063  0.9373 -0.9142
 6803TIP3    H241901   2.977   0.373  43.142  0.0356  0.2435 -0.3797
 6804TIP3   OH241902   3.431   1.478  43.001  0.2777 -0.1304 -0.0379
 6804TIP3    H141903   3.420   1.554  42.943 -1.4665 -0.5334 -0.3015
 6804TIP3    H241904   3.437   1.517  43.089 -0.2940  0.3518 -0.1975
 6805TIP3   OH241905   1.618   2.338  35.996 -0.6038 -0.0660  0.8642
 6805TIP3    H141906   1.647   2.283  35.923  1.3804  0.4251  1.2305
 6805TIP3    H241907   1.567   2.279  36.051  2.2331 -1.9101  1.7258
 6806TIP3   OH241908   0.940   2.247  19.722 -0.0788  0.4424  0.3569
 6806TIP3    H141909   0.955   2.152  19.715 -1.3609  0.1977  0.7004
 6806TIP3    H241910   0.922   2.261  19.815 -1.1238  0.8176  0.1095
 6807TIP3   OH241911   0.730   2.047  19.959  0.2378 -0.0107 -0.4896
 6807TIP3    H141912   0.765   1.962  19.935 -0.5476 -1.0403  1.7958
 6807TIP3    H241913   0.718   2.092  19.875  0.0657 -2.3667 -1.8135
 6808TIP3   OH241914   0.577   1.758   7.821 -0.3687 -0.6354 -0.6437
 6808TIP3    H141915   0.490   1.737   7.854  0.5486 -0.3348  2.2523
 6808TIP3    H241916   0.564   1.831   7.761 -2.0053  0.0827  0.5278
 6809TIP3   OH241917   2.190   0.556   8.041  0.1991 -0.1152 -0.1634
 6809TIP3    H141918   2.144   0.496   7.982  0.1452 -1.2871  1.0384
 6809TIP3    H241919   2.134   0.562   8.118  0.4051  1.1893 -0.0844
 6810TIP3   OH241920   1.104   2.863  46.592  0.6232 -0.8699 -0.1447
 6810TIP3    H141921   1.142   2.886  46.507  1.3367  2.6291  0.9735
 6810TIP3    H241922   1.011   2.883  46.583  0.7805 -0.0233 -0.0103
 6811TIP3   OH241923   2.205   1.962  61.263 -0.4140  0.4653 -0.0851
 6811TIP3    H141924   2.116   1.979  61.231 -0.3380  0.6120 -0.2214
 6811TIP3    H241925   2.244   1.905  61.197 -1.0816 -1.3028  0.9829
 6812TIP3   OH241926   0.490   3.019  46.099 -0.0334 -0.4406 -0.4344
 6812TIP3    H141927   0.427   2.960  46.141  0.9810 -1.3020 -0.0614
 6812TIP3    H241928   0.572   3.002  46.145  0.3786  1.0046 -0.5855
 6813TIP3   OH241929   0.056   1.567   7.051  0.4826  0.1564  0.0519
 6813TIP3    H141930   0.051   1.474   7.071  0.3417  0.3120  0.7455
 6813TIP3    H241931   0.047   1.571   6.955  1.4613 -0.6112 -0.0953
 6814TIP3   OH241932   3.429   3.227   6.954 -0.4740 -0.4201 -0.2661
 6814TIP3    H141933   3.515   3.268   6.952 -0.6594  0.0274  0.3845
 6814TIP3    H241934   3.397   3.243   7.043 -0.4121 -2.2693  0.1191
 6815TIP3   OH241935   1.890   1.833  21.037  0.2305  0.5974 -0.8370
 6815TIP3    H141936   1.977   1.862  21.063  0.1748  1.6537 -1.7269
 6815TIP3    H241937   1.841   1.825  21.119  1.5183 -1.3034 -0.2082
 6816TIP3   OH241938   2.094   3.264  57.326 -0.3181 -0.3333  0.4011
 6816TIP3    H141939   2.184   3.240  57.345  0.4462  2.1318  0.2794
 6816TIP3    H241940   2.051   3.263  57.412  0.4210  0.5905  0.8044
 6817TIP3   OH241941   0.365   0.165  66.691  0.6251  0.7761 -0.3889
 6817TIP3    H141942   0.336   0.109  66.763 -0.4236  1.6427 -0.1275
 6817TIP3    H241943   0.451   0.130  66.667  0.6899  0.0555  0.8236
 6818TIP3   OH241944   3.114   0.456  56.823 -0.3043  0.0791 -0.2684
 6818TIP3    H141945   3.174   0.491  56.757  0.6613 -0.3431  0.3534
 6818TIP3    H241946   3.028   0.460  56.782  0.2173  0.1971 -1.3989
 6819TIP3   OH241947   0.738   1.138  51.284  0.9087 -0.3687  0.9094
 6819TIP3    H141948   0.813   1.135  51.344  0.3819 -0.2764  1.5920
 6819TIP3    H241949   0.773   1.175  51.203  1.2736  1.2365  1.7452
 6820TIP3   OH241950   2.381   1.465  11.641 -0.3176 -0.2944 -0.8419
 6820TIP3    H141951   2.319   1.537  11.632 -1.4963 -0.9301  1.3564
 6820TIP3    H241952   2.465   1.507  11.660 -0.7012  0.5153 -0.8989
 6821TIP3   OH241953   1.958   3.063  19.593 -0.1247  0.0949 -0.0117
 6821TIP3    H141954   1.924   2.979  19.622  1.3594 -0.2893  0.7470
 6821TIP3    H241955   2.053   3.053  19.599  0.0772  1.8905  0.2945
 6822TIP3   OH241956   1.512   0.981  46.049  0.4585 -0.1254  0.2052
 6822TIP3    H141957   1.514   0.950  46.139  1.4467  0.9910  0.5941
 6822TIP3    H241958   1.603   1.000  46.027 -0.0115  1.9463 -0.1726
 6823TIP3   OH241959   0.969   1.523   9.546  0.0390  0.0703 -0.0606
 6823TIP3    H141960   0.949   1.614   9.521  1.0013 -0.0701 -1.5076
 6823TIP3    H241961   0.943   1.517   9.638  0.9325  2.1387  0.4019
 6824TIP3   OH241962   0.278   2.297   8.696  0.2087  0.3317  0.7898
 6824TIP3    H141963   0.286   2.311   8.791 -0.9126 -1.0230  1.1004
 6824TIP3    H241964   0.188   2.320   8.676 -0.6813 -2.7806  0.7272
 6825TIP3   OH241965   2.241   2.110  60.726 -0.3020  0.1211  0.2908
 6825TIP3    H141966   2.281   2.025  60.706  1.3273  0.5223  1.5839
 6825TIP3    H241967   2.234   2.112  60.821 -2.1838  0.6677  0.1844
 6826TIP3   OH241968   1.971   0.335   2.005 -0.6042 -0.1382 -0.3842
 6826TIP3    H141969   1.974   0.414   2.059  0.3959  0.8514 -1.8141
 6826TIP3    H241970   2.026   0.272   2.052 -2.3318 -0.4225  1.3611
 6827TIP3   OH241971   0.301   0.796  12.832  0.2650  0.3997 -0.9588
 6827TIP3    H141972   0.301   0.848  12.752  0.1994 -0.8159 -1.7690
 6827TIP3    H241973   0.386   0.814  12.873 -0.0806  1.7599 -0.7922
 6828TIP3   OH241974   0.726   0.407   7.855  0.0308  0.2712 -0.3100
 6828TIP3    H141975   0.659   0.342   7.833 -0.9283  1.8072 -2.2390
 6828TIP3    H241976   0.789   0.402   7.782  1.3629 -0.2168  0.8116
 6829TIP3   OH241977   2.593   0.034  47.774  0.3095  0.3391 -0.1353
 6829TIP3    H141978   2.667   0.038  47.835  0.7871  0.5796 -0.7224
 6829TIP3    H241979   2.590   0.120  47.734  2.1342 -0.7483 -2.9098
 6830TIP3   OH241980   1.457   0.337  34.204 -0.2994  0.5697 -0.3101
 6830TIP3    H141981   1.426   0.308  34.118  0.8866  0.1311 -0.6030
 6830TIP3    H241982   1.444   0.432  34.203 -3.0572  0.3033  0.1908
 6831TIP3   OH241983   0.339   1.707  61.564 -0.1323  0.3574 -0.2328
 6831TIP3    H141984   0.381   1.793  61.570 -1.4291  1.0520 -0.8162
 6831TIP3    H241985   0.379   1.667  61.487  1.2957 -0.0428  0.6880
 6832TIP3   OH241986   1.245   0.443  15.644 -0.5532  0.4711  0.1318
 6832TIP3    H141987   1.298   0.365  15.627  1.6878  1.7950  0.6322
 6832TIP3    H241988   1.155   0.410  15.651  0.3089 -2.0482  0.3523
 6833TIP3   OH241989   0.681   1.493  45.918 -0.1945  0.5116  0.2150
 6833TIP3    H141990   0.684   1.588  45.923 -1.6117  0.5374  1.5592
 6833TIP3    H241991   0.595   1.470  45.955  0.9734 -1.3608  2.0113
 6834TIP3   OH241992   0.340   1.289  59.338  0.3210  0.8193  0.0765
 6834TIP3    H141993   0.337   1.306  59.244 -1.7180 -1.4493 -0.3720
 6834TIP3    H241994   0.410   1.225  59.349 -1.4755 -1.3633 -0.4726
 6835TIP3   OH241995   0.478   0.450  29.463  1.0888 -0.0945  0.2232
 6835TIP3    H141996   0.501   0.358  29.453 -1.3469 -0.8455  0.7295
 6835TIP3    H241997   0.461   0.460  29.557 -0.8535  0.2386 -0.1249
 6836TIP3   OH241998   1.904   2.164  56.897 -0.0780 -1.5470 -0.0283
 6836TIP3    H141999   1.888   2.105  56.823  0.7491  0.3196 -1.7885
 6836TIP3    H242000   1.992   2.198  56.881 -0.2476 -0.4118  1.3400
 6837TIP3   OH242001   1.463   0.877   4.486 -0.1547 -0.1931 -0.0539
 6837TIP3    H142002   1.491   0.790   4.515  0.8573  0.1951  0.1405
 6837TIP3    H242003   1.517   0.938   4.535 -2.4404  0.6722  1.5998
 6838TIP3   OH242004   1.840   0.427  48.413  1.0688 -0.7142  0.2118
 6838TIP3    H142005   1.890   0.444  48.333 -0.3217 -1.7961 -0.9562
 6838TIP3    H242006   1.890   0.360  48.459  0.6272 -1.9952 -1.0812
 6839TIP3   OH242007   3.213   0.427  46.166  0.0483  0.5477  0.1488
 6839TIP3    H142008   3.196   0.429  46.072 -0.3309  0.4348  0.2125
 6839TIP3    H242009   3.186   0.514  46.197 -1.3767  0.0484  0.4019
 6840TIP3   OH242010   1.351   1.116  64.470 -0.2482  0.3946 -0.7365
 6840TIP3    H142011   1.370   1.206  64.496 -0.6315  0.1964  0.2855
 6840TIP3    H242012   1.419   1.095  64.405  0.9311  0.8212  0.3132
 6841TIP3   OH242013   1.733   1.830   7.820  0.4045  0.4115 -0.1337
 6841TIP3    H142014   1.790   1.826   7.743  0.1208 -0.4025 -0.3084
 6841TIP3    H242015   1.645   1.840   7.784  0.3423  0.7866  0.1141
 6842TIP3   OH242016   1.657   1.707  57.333  0.1835 -0.4807 -0.1802
 6842TIP3    H142017   1.596   1.637  57.357  3.4141 -2.8573  2.0546
 6842TIP3    H242018   1.714   1.668  57.268  0.8517  0.8003 -0.3948
 6843TIP3   OH242019   3.409   3.039  51.527 -0.6488  0.9373  0.2064
 6843TIP3    H142020   3.476   3.078  51.583  1.3879 -0.7823 -0.8980
 6843TIP3    H242021   3.446   3.042  51.439 -1.4354 -1.2214 -0.2742
 6844TIP3   OH242022   0.971   1.898   7.606 -0.1382 -0.4279  0.3871
 6844TIP3    H142023   0.894   1.944   7.571  0.9034 -0.2521 -1.8853
 6844TIP3    H242024   0.965   1.810   7.570  0.2932 -0.6536  0.8567
 6845TIP3   OH242025   0.484   2.970  43.604 -0.1092  0.2384  0.2574
 6845TIP3    H142026   0.512   2.883  43.632 -2.3860 -1.0296 -1.0222
 6845TIP3    H242027   0.452   2.957  43.515  0.4813  2.6577 -0.3948
 6846TIP3   OH242028   0.261   1.791  61.183 -0.1279  0.2098  0.0531
 6846TIP3    H142029   0.205   1.821  61.255 -1.1078 -2.5174  0.5325
 6846TIP3    H242030   0.318   1.725  61.222  0.5381 -0.0789 -1.3409
 6847TIP3   OH242031   0.640   2.311  62.415 -0.5207  0.0670 -0.3360
 6847TIP3    H142032   0.589   2.307  62.496  1.3672  1.7864  1.0601
 6847TIP3    H242033   0.663   2.404  62.407 -0.5755 -0.0894 -2.8242
 6848TIP3   OH242034   0.639   0.097  66.936 -0.1248  0.2688  0.1440
 6848TIP3    H142035   0.633   0.192  66.942 -0.3524  0.1948  1.1853
 6848TIP3    H242036   0.584   0.064  67.007 -0.6806 -0.6629 -0.6726
 6849TIP3   OH242037   3.241   3.101  49.570 -0.3559 -0.1015 -0.1094
 6849TIP3    H142038   3.207   3.132  49.654  1.4514  0.1296  0.5637
 6849TIP3    H242039   3.271   3.180  49.526 -2.0124 -0.1128 -1.3731
 6850TIP3   OH242040   2.546   2.006   2.480 -0.2575 -0.2733 -0.5663
 6850TIP3    H142041   2.575   2.075   2.420  0.2793  0.1985  0.2059
 6850TIP3    H242042   2.614   2.004   2.547 -2.5694  1.8490  2.0992
 6851TIP3   OH242043   3.026   3.095  17.011  0.0586  0.0874  0.0205
 6851TIP3    H142044   2.971   3.039  17.065 -1.3463  0.8242 -0.5692
 6851TIP3    H242045   2.992   3.082  16.922 -0.4563  1.9686 -0.1084
 6852TIP3   OH242046   0.689   3.305  54.907  0.7282 -0.4616 -0.1226
 6852TIP3    H142047   0.744   3.259  54.971  1.9909  0.5662 -0.4278
 6852TIP3    H242048   0.735   3.295  54.824  2.4384  3.3094  0.1575
 6853TIP3   OH242049   0.502   0.530  49.071 -0.1169 -0.0410  0.1386
 6853TIP3    H142050   0.527   0.586  49.145  2.6108  0.6139 -1.1354
 6853TIP3    H242051   0.553   0.564  48.997  1.8211 -4.2012 -0.7155
 6854TIP3   OH242052   2.674   2.167  16.999 -0.8251 -0.0570  0.0764
 6854TIP3    H142053   2.606   2.112  16.959 -2.4911  1.3243  0.8750
 6854TIP3    H242054   2.660   2.157  17.094  0.8604 -0.6250  0.3027
 6855TIP3   OH242055   0.967   0.260  47.462 -1.1611 -0.4307  0.2055
 6855TIP3    H142056   0.876   0.232  47.461 -1.2207 -0.2383 -0.5385
 6855TIP3    H242057   0.967   0.342  47.511 -1.0423 -1.4980  2.0677
 6856TIP3   OH242058   1.047   1.653  53.752 -0.2674  0.3258 -0.1793
 6856TIP3    H142059   1.047   1.660  53.847  0.7884 -0.4791 -0.1053
 6856TIP3    H242060   1.066   1.561  53.735  0.3153  0.6188 -1.1723
 6857TIP3   OH242061   0.398   1.516  56.711  1.1130 -0.3309  0.1533
 6857TIP3    H142062   0.360   1.429  56.725  0.9818 -0.3758 -0.4518
 6857TIP3    H242063   0.378   1.536  56.619  1.7622  0.0358  0.0902
 6858TIP3   OH242064   0.563   2.681  65.887 -0.4389 -0.1513  0.6063
 6858TIP3    H142065   0.555   2.771  65.855 -0.8971 -0.1246  0.7805
 6858TIP3    H242066   0.531   2.685  65.978  2.2602  0.0922  1.6484
 6859TIP3   OH242067   0.457   2.379   6.569 -0.4121 -0.1093  0.0981
 6859TIP3    H142068   0.531   2.438   6.586 -0.6113 -0.2123  1.4259
 6859TIP3    H242069   0.395   2.432   6.520 -0.7504  0.9283  1.6020
 6860TIP3   OH242070   2.002   1.468  66.055  0.4030 -0.6659  0.4168
 6860TIP3    H142071   2.065   1.444  65.987 -0.0895 -1.3229  0.1743
 6860TIP3    H242072   1.974   1.384  66.092 -0.6436 -0.4148  0.2286
 6861TIP3   OH242073   0.050   3.269   5.856 -0.7908 -0.0080 -0.8163
 6861TIP3    H142074  -0.000   3.217   5.793  0.9650  0.5190 -2.7507
 6861TIP3    H242075   0.002   3.352   5.862 -0.9856 -0.0648 -1.4648
 6862TIP3   OH242076   2.211   2.298  62.649  0.1630  0.2034 -0.1244
 6862TIP3    H142077   2.232   2.303  62.742 -1.6163  0.0742  0.3169
 6862TIP3    H242078   2.124   2.258  62.645 -0.3833  1.4026 -1.7523
 6863TIP3   OH242079   1.001   0.716  34.423  0.3135 -0.2810  0.1717
 6863TIP3    H142080   1.041   0.658  34.358  0.2767  0.6966 -0.7542
 6863TIP3    H242081   1.050   0.798  34.415  0.4002 -0.1789  1.4927
 6864TIP3   OH242082   2.288   0.846  22.674 -0.2281 -0.2485  0.3594
 6864TIP3    H142083   2.235   0.853  22.595 -1.1040 -2.3670  0.7157
 6864TIP3    H242084   2.271   0.758  22.707  3.5024 -1.0855  0.4898
 6865TIP3   OH242085   1.397   2.637   3.245 -0.0755  0.0358 -0.3568
 6865TIP3    H142086   1.403   2.632   3.150  1.1972  2.3798 -0.4732
 6865TIP3    H242087   1.337   2.709   3.262 -0.3995 -0.4486  0.6327
 6866TIP3   OH242088   1.091   1.856  55.190  0.1171  0.2523 -0.1662
 6866TIP3    H142089   1.165   1.858  55.128  2.3196 -1.1863  2.2103
 6866TIP3    H242090   1.032   1.923  55.158  2.5375  1.6367 -2.1418
 6867TIP3   OH242091   0.453   0.244   4.976 -0.1299 -0.1629  0.0012
 6867TIP3    H142092   0.381   0.241   4.913 -1.1300 -1.0238  1.1403
 6867TIP3    H242093   0.517   0.304   4.937 -1.4653  0.6389 -1.0331
 6868TIP3   OH242094   2.311   1.523  51.331 -0.0902 -0.0093 -0.5239
 6868TIP3    H142095   2.278   1.524  51.421  0.8660  0.1690 -0.1699
 6868TIP3    H242096   2.253   1.583  51.284 -0.6241 -0.1359 -0.0390
 6869TIP3   OH242097   1.935   0.709  61.313 -0.1787  0.0365  0.4758
 6869TIP3    H142098   1.868   0.771  61.283  0.0283  0.4613  0.8764
 6869TIP3    H242099   1.931   0.714  61.408 -0.6406 -1.0914  0.5305
 6870TIP3   OH242100   0.891   1.419  17.477 -0.2710  0.2332 -0.2811
 6870TIP3    H142101   0.976   1.461  17.493 -0.4605  0.2360  0.8683
 6870TIP3    H242102   0.906   1.361  17.403  1.5563 -1.9520  1.6234
 6871TIP3   OH242103   2.845   2.243  18.645 -0.1522 -0.0369 -0.7814
 6871TIP3    H142104   2.872   2.300  18.573 -0.0128 -0.5043 -1.1077
 6871TIP3    H242105   2.750   2.234  18.633  0.0454 -1.2065 -1.7428
 6872TIP3   OH242106   1.471   1.722  20.988 -0.9445  0.5416 -0.2845
 6872TIP3    H142107   1.495   1.772  21.067 -2.5262 -1.1651  1.3791
 6872TIP3    H242108   1.486   1.631  21.012  0.3218  0.0351 -2.6813
 6873TIP3   OH242109   2.404   2.775  63.540  0.0610 -0.6401  0.0070
 6873TIP3    H142110   2.385   2.867  63.523  3.5883  0.0963 -0.7292
 6873TIP3    H242111   2.369   2.729  63.463 -1.0934  0.1248  0.0408
 6874TIP3   OH242112   1.950   0.468   0.509  0.0514 -0.5459  0.6700
 6874TIP3    H142113   1.925   0.411   0.582 -0.8725 -0.4479  0.4508
 6874TIP3    H242114   2.020   0.421   0.465 -0.1160 -1.1116  0.9950
 6875TIP3   OH242115   0.531   3.095   6.395  0.5284  0.1093  0.2918
 6875TIP3    H142116   0.492   3.080   6.308 -0.8750  1.5577  0.6263
 6875TIP3    H242117   0.623   3.111   6.378  0.3337  0.0462 -0.8971
 6876TIP3   OH242118   1.940   2.918  62.426 -0.8588 -0.0104 -0.5451
 6876TIP3    H142119   1.977   2.935  62.513  0.3815  1.0328 -1.2492
 6876TIP3    H242120   2.012   2.880  62.376 -1.8354 -1.5119 -0.8723
 6877TIP3   OH242121   3.083   0.115  17.557 -0.2911  0.5389 -0.0160
 6877TIP3    H142122   3.117   0.135  17.644 -0.3774  1.9101 -0.2842
 6877TIP3    H242123   3.126   0.178  17.499 -0.2908 -0.3080 -0.9602
 6878TIP3   OH242124   2.344   2.333   0.715 -0.3615  0.0734  0.6329
 6878TIP3    H142125   2.266   2.330   0.659 -2.0483 -2.7372  2.8793
 6878TIP3    H242126   2.325   2.404   0.777 -0.1059  0.8239 -0.1292
 6879TIP3   OH242127   2.013   2.837   9.891  0.0343  0.3030  0.2638
 6879TIP3    H142128   2.103   2.832   9.860  0.8068 -1.5344  2.4979
 6879TIP3    H242129   2.001   2.756   9.942 -3.7798 -0.9678 -2.2244
 6880TIP3   OH242130   2.538   1.374  10.427 -0.1185 -0.0327 -0.0434
 6880TIP3    H142131   2.591   1.366  10.348 -1.4356  1.5698 -1.1700
 6880TIP3    H242132   2.590   1.429  10.486  0.3372 -0.1807 -0.3060
 6881TIP3   OH242133   0.138   0.183  54.842 -0.0366 -0.9651 -0.1349
 6881TIP3    H142134   0.165   0.272  54.865 -0.8181 -1.3357  2.6630
 6881TIP3    H242135   0.051   0.193  54.805 -0.1940 -0.5612  0.3292
 6882TIP3   OH242136   0.300   1.508  17.855  0.5670  0.4614  0.2832
 6882TIP3    H142137   0.294   1.474  17.944  2.5987  0.8466  0.6338
 6882TIP3    H242138   0.226   1.470  17.809 -0.7143  0.4969  2.2152
 6883TIP3   OH242139   3.055   0.496  13.018 -0.7174 -0.1225 -0.1366
 6883TIP3    H142140   3.050   0.405  13.045 -1.7161  0.3125  1.2390
 6883TIP3    H242141   3.110   0.539  13.083  2.6395 -0.2988 -2.5767
 6884TIP3   OH242142   1.919   0.906   6.177 -0.7791 -0.0036  0.1258
 6884TIP3    H142143   1.871   0.988   6.166 -0.9144 -0.1885 -0.7551
 6884TIP3    H242144   2.006   0.925   6.141 -1.3114 -0.7088 -1.6210
 6885TIP3   OH242145   2.536   0.188  17.982  0.0455 -0.0653 -0.0008
 6885TIP3    H142146   2.503   0.146  18.061  1.5542 -1.6143 -0.1321
 6885TIP3    H242147   2.566   0.116  17.927  0.9906  1.0913 -1.0695
 6886TIP3   OH242148   1.955   2.853  50.356  0.0945 -0.3312  0.1000
 6886TIP3    H142149   2.050   2.867  50.361  0.2913 -0.8099 -1.6752
 6886TIP3    H242150   1.938   2.782  50.418  1.0703 -0.8663 -0.2120
 6887TIP3   OH242151   1.538   2.569   3.657  0.2582  0.6163 -0.6330
 6887TIP3    H142152   1.538   2.555   3.752  0.6990  3.0006 -0.2116
 6887TIP3    H242153   1.629   2.550   3.631  0.4576  1.1632 -0.3521
 6888TIP3   OH242154   0.623   3.355  53.810 -0.3765 -0.1117 -0.0197
 6888TIP3    H142155   0.568   3.294  53.860  0.6063 -1.5962 -0.6932
 6888TIP3    H242156   0.630   3.316  53.723 -0.1289  1.2330 -0.6261
 6889TIP3   OH242157   2.971   1.217  18.309 -0.4120 -0.0960 -0.1281
 6889TIP3    H142158   3.000   1.175  18.228 -0.4174 -1.0692  0.3523
 6889TIP3    H242159   2.882   1.247  18.291 -0.5177 -0.5591 -0.3969
 6890TIP3   OH242160   3.322   1.408  15.705  0.4738 -0.1665 -0.1220
 6890TIP3    H142161   3.393   1.427  15.644  0.0902 -1.1641 -0.9133
 6890TIP3    H242162   3.268   1.486  15.705 -0.8287 -0.9370 -2.9376
 6891TIP3   OH242163   2.965   2.512  61.407  0.0403  0.5402 -0.3279
 6891TIP3    H142164   2.913   2.563  61.345 -0.7019 -0.7469 -0.7967
 6891TIP3    H242165   3.014   2.578  61.457 -0.6619  1.6845 -1.1028
 6892TIP3   OH242166   2.699   2.957  47.201 -0.3409  0.2786 -0.2296
 6892TIP3    H142167   2.656   2.871  47.197 -2.1132  1.1109  0.2802
 6892TIP3    H242168   2.686   2.995  47.114  1.2468 -0.3018 -0.7583
 6893TIP3   OH242169   1.639   2.968   6.239  0.0813 -0.0026  0.0440
 6893TIP3    H142170   1.693   2.930   6.309  1.4525  1.1830 -0.3263
 6893TIP3    H242171   1.672   2.927   6.159 -1.5986 -1.4836  0.0640
 6894TIP3   OH242172   2.179   2.539  27.138  0.0740  0.5020 -0.0343
 6894TIP3    H142173   2.243   2.594  27.184  0.5036  1.2226 -1.4344
 6894TIP3    H242174   2.147   2.479  27.205  1.5588  0.7146  0.9193
 6895TIP3   OH242175   0.773   3.302  21.722  0.0222 -0.0875 -0.3995
 6895TIP3    H142176   0.779   3.245  21.799 -2.1102  0.0125 -0.0943
 6895TIP3    H242177   0.862   3.307  21.689  0.4286 -2.9748  0.0019
 6896TIP3   OH242178   2.268   1.375  44.782 -0.2401 -0.2937  0.5441
 6896TIP3    H142179   2.239   1.429  44.855 -2.1315  1.6268 -1.4785
 6896TIP3    H242180   2.194   1.317  44.764 -0.4140  0.2713 -0.7083
 6897TIP3   OH242181   1.605   1.474  49.217 -0.5907  0.1399 -0.1556
 6897TIP3    H142182   1.553   1.553  49.206 -0.9398 -0.0265  0.2640
 6897TIP3    H242183   1.654   1.487  49.298 -0.3471  0.0932 -0.2951
 6898TIP3   OH242184   1.820   1.343  21.526  0.8346 -0.1963  0.0770
 6898TIP3    H142185   1.740   1.295  21.505  0.6402  0.8971 -1.8094
 6898TIP3    H242186   1.819   1.420  21.470  3.1009 -0.0150  0.1687
 6899TIP3   OH242187   0.132   2.036  62.768 -0.0190 -0.4369 -0.0283
 6899TIP3    H142188   0.192   2.065  62.700  0.8024 -1.5257  0.1974
 6899TIP3    H242189   0.044   2.050  62.731  0.3741  0.7194 -0.5490
 6900TIP3   OH242190   0.615   2.408  63.127 -0.1098 -0.3419  0.9998
 6900TIP3    H142191   0.624   2.352  63.204 -1.2904 -0.2808  1.1952
 6900TIP3    H242192   0.536   2.460  63.143 -1.0853 -1.1805 -0.7584
 6901TIP3   OH242193   0.542   0.675  47.277 -0.7583 -0.5472  0.1134
 6901TIP3    H142194   0.582   0.660  47.191  0.8378 -1.6914  1.0149
 6901TIP3    H242195   0.611   0.656  47.340 -1.5270  1.4308  1.6646
 6902TIP3   OH242196   0.838   0.025   5.143  0.4112 -0.1790  0.0354
 6902TIP3    H142197   0.758   0.031   5.196  0.2026 -2.6691  0.1015
 6902TIP3    H242198   0.806   0.028   5.053  0.3058 -0.6350  0.0587
 6903TIP3   OH242199   1.903   3.348  64.596  0.1287 -0.2472  0.1031
 6903TIP3    H142200   1.810   3.351  64.573  0.4482 -0.4581 -1.2646
 6903TIP3    H242201   1.949   3.334  64.513  1.3333 -0.9694  0.8529
 6904TIP3   OH242202   0.145   2.507  56.096 -0.4477  0.1730 -0.0981
 6904TIP3    H142203   0.149   2.432  56.035  1.8127  0.2411 -0.1145
 6904TIP3    H242204   0.141   2.467  56.183  1.5012 -0.0488 -0.0625
 6905TIP3   OH242205   2.070   1.341  54.996 -0.3464  0.4428 -0.1578
 6905TIP3    H142206   2.092   1.377  55.082  1.9867  0.7414 -0.8139
 6905TIP3    H242207   2.040   1.252  55.014  0.7499  0.2664  0.9550
 6906TIP3   OH242208   2.183   0.429  16.005  0.3063  0.6125 -0.1871
 6906TIP3    H142209   2.168   0.363  15.938 -1.2237  0.8559 -0.1202
 6906TIP3    H242210   2.199   0.379  16.085  1.5197  0.3291 -0.5873
 6907TIP3   OH242211   1.946   2.401  18.342  0.0533 -0.2366 -0.6239
 6907TIP3    H142212   1.977   2.466  18.279 -2.3656  0.2849 -1.3710
 6907TIP3    H242213   1.878   2.353  18.295  0.5845 -2.1783  0.4885
 6908TIP3   OH242214   2.290   0.513  17.905  0.3717 -0.1927 -1.3548
 6908TIP3    H142215   2.331   0.507  17.991  1.5495 -0.0984 -1.8964
 6908TIP3    H242216   2.308   0.428  17.865 -3.1488 -1.6367 -0.2743
 6909TIP3   OH242217   1.258   0.508  53.139 -0.5702  0.4169  0.4925
 6909TIP3    H142218   1.304   0.481  53.060  1.2880 -0.1894  1.7112
 6909TIP3    H242219   1.258   0.431  53.195  1.4284  1.7815  2.5139
 6910TIP3   OH242220   2.590   1.643  50.558  0.5087 -0.0248 -0.6012
 6910TIP3    H142221   2.563   1.552  50.569  0.1401  0.2109  0.5358
 6910TIP3    H242222   2.522   1.682  50.504 -0.9101  0.2738  1.2957
 6911TIP3   OH242223   1.822   1.162   9.876 -0.1238 -0.0716 -0.0411
 6911TIP3    H142224   1.814   1.195   9.787  2.1937 -0.5109 -0.4647
 6911TIP3    H242225   1.915   1.146   9.888 -0.4591 -0.7138  2.2311
 6912TIP3   OH242226   0.547   3.181  66.376 -0.4447  0.4361  0.2409
 6912TIP3    H142227   0.525   3.162  66.467 -0.1894 -0.1882  0.1859
 6912TIP3    H242228   0.639   3.206  66.379  0.3177 -2.0021 -0.1002
 6913TIP3   OH242229   2.584   2.909  64.770 -0.5516 -0.0706  0.2000
 6913TIP3    H142230   2.665   2.958  64.779 -0.5897 -0.1090  0.7913
 6913TIP3    H242231   2.515   2.975  64.780 -0.6015  0.1768 -1.5529
 6914TIP3   OH242232   1.465   1.690  46.817  0.1954  0.5670  0.5638
 6914TIP3    H142233   1.514   1.662  46.740 -2.5923 -1.2344 -0.7225
 6914TIP3    H242234   1.487   1.783  46.828  0.8654  0.8080 -2.2423
 6915TIP3   OH242235   3.035   3.049   3.250  0.3106  0.0471  0.2425
 6915TIP3    H142236   2.963   3.057   3.188  2.1254 -1.4612 -2.2684
 6915TIP3    H242237   2.998   3.002   3.325 -1.6028  0.5289 -0.3484
 6916TIP3   OH242238   1.589   2.106   9.385 -0.0616  0.1627 -0.0486
 6916TIP3    H142239   1.522   2.162   9.424 -1.6433 -1.5125 -0.2424
 6916TIP3    H242240   1.661   2.108   9.448 -0.0357  2.3772 -0.0642
 6917TIP3   OH242241   1.013   0.698   2.610 -0.1218  0.3667 -0.4594
 6917TIP3    H142242   0.918   0.706   2.618 -0.1807 -1.4226  1.2290
 6917TIP3    H242243   1.041   0.661   2.694  1.9461 -0.1022 -1.3112
 6918TIP3   OH242244   0.382   2.664   4.186 -0.2627  0.2032 -0.5980
 6918TIP3    H142245   0.430   2.727   4.239 -0.3533  0.8369 -1.2703
 6918TIP3    H242246   0.291   2.674   4.214 -0.2299  0.1136 -0.4549
 6919TIP3   OH242247   1.478   0.936   6.654 -0.1773 -0.3127 -0.0004
 6919TIP3    H142248   1.545   1.004   6.650 -1.7386  1.2278 -1.7126
 6919TIP3    H242249   1.460   0.925   6.747  1.5957  0.0463  0.4194
 6920TIP3   OH242250   1.644   0.104  58.683  0.0832  0.4828 -0.2524
 6920TIP3    H142251   1.692   0.037  58.731  0.5529 -0.1160 -1.4969
 6920TIP3    H242252   1.578   0.056  58.633 -0.9211  1.1648  0.3777
 6921TIP3   OH242253   0.774   0.339  58.899 -0.3870  0.0770 -0.3914
 6921TIP3    H142254   0.690   0.298  58.917 -1.4350  2.0461 -0.4784
 6921TIP3    H242255   0.838   0.286  58.946 -1.9831 -0.0503  1.7631
 6922TIP3   OH242256   0.351   3.169   1.173  0.3197 -0.0349  0.7388
 6922TIP3    H142257   0.326   3.215   1.093 -0.1571 -0.9756  0.3309
 6922TIP3    H242258   0.304   3.214   1.243  1.8128  1.6789  0.7127
 6923TIP3   OH242259   1.335   0.659  15.767 -0.7039  0.3129 -0.5181
 6923TIP3    H142260   1.290   0.577  15.747 -1.0362  0.0902  0.9755
 6923TIP3    H242261   1.421   0.650  15.726 -0.7375 -0.8015 -0.3861
 6924TIP3   OH242262   1.120   2.625  10.982 -0.1051 -0.0181  0.3334
 6924TIP3    H142263   1.066   2.590  11.053 -0.4834  0.4068  0.2639
 6924TIP3    H242264   1.057   2.645  10.912  0.2772 -0.5535 -0.1710
 6925TIP3   OH242265   3.242   1.665  10.191  0.4564 -0.3136  0.1208
 6925TIP3    H142266   3.295   1.738  10.224 -1.2776  1.2969 -0.5347
 6925TIP3    H242267   3.300   1.621  10.128  1.7124  0.1481  0.9011
 6926TIP3   OH242268   0.895   1.550  50.393  0.0734 -0.6226  0.3688
 6926TIP3    H142269   0.885   1.466  50.347  0.1375 -0.5974  0.3092
 6926TIP3    H242270   0.949   1.603  50.335  0.6565 -0.7969  0.7393
 6927TIP3   OH242271   2.064   2.796   9.074 -0.1059  0.0186  0.4281
 6927TIP3    H142272   2.098   2.712   9.105  0.4925 -0.6853 -1.9102
 6927TIP3    H242273   2.137   2.857   9.083  0.2435 -0.3154 -0.0698
 6928TIP3   OH242274   1.470   1.943  48.079 -0.8277  0.2386  0.3589
 6928TIP3    H142275   1.423   1.903  48.151  0.9305 -1.7876  0.4772
 6928TIP3    H242276   1.559   1.908  48.085 -0.6254 -0.1059 -2.8195
 6929TIP3   OH242277   1.830   1.749  67.277  0.6682  0.0078 -0.5343
 6929TIP3    H142278   1.901   1.688  67.297 -0.5203 -1.0746  0.5154
 6929TIP3    H242279   1.751   1.705  67.307 -0.2196  2.1762  0.4780
 6930TIP3   OH242280   1.989   1.940   8.940  0.1494  0.2083 -0.3209
 6930TIP3    H142281   1.949   2.026   8.948  1.3946  0.8282 -0.4909
 6930TIP3    H242282   1.927   1.889   8.887  0.1799  1.5301 -1.6969
 6931TIP3   OH242283   2.331   0.939  10.680 -0.3174  0.0533  0.4998
 6931TIP3    H142284   2.368   1.022  10.647 -2.0274  1.7236  2.4766
 6931TIP3    H242285   2.263   0.916  10.617  0.6016 -0.2404 -0.4101
 6932TIP3   OH242286   3.087   2.378  52.491 -0.1892  0.6237  0.4230
 6932TIP3    H142287   3.139   2.419  52.421  0.0241  1.3753  1.0022
 6932TIP3    H242288   3.007   2.351  52.447  1.4507 -2.4888 -0.9665
 6933TIP3   OH242289   2.952   1.717  42.741  0.3087  0.0515  0.0983
 6933TIP3    H142290   2.976   1.808  42.722  1.2246  0.4118  2.5993
 6933TIP3    H242291   2.970   1.670  42.660 -0.6049  2.1400 -1.4136
 6934TIP3   OH242292   0.381   3.334  46.822  0.6104 -0.0127 -0.1372
 6934TIP3    H142293   0.404   3.241  46.825 -0.9713 -0.4364 -0.2063
 6934TIP3    H242294   0.384   3.362  46.913 -0.0309 -0.4488  0.0326
 6935TIP3   OH242295   1.036   0.812  33.904  0.2370  0.0178 -0.3924
 6935TIP3    H142296   1.068   0.862  33.829 -0.4605  0.0660 -0.6636
 6935TIP3    H242297   1.003   0.878  33.965 -1.1271 -0.1018 -0.9550
 6936TIP3   OH242298   0.255   2.890   9.644 -0.4822  0.3955  0.8854
 6936TIP3    H142299   0.321   2.822   9.658  0.1215  0.9115  0.5469
 6936TIP3    H242300   0.240   2.927   9.731  0.0358  0.6132  0.8818
 6937TIP3   OH242301   0.960   1.685   1.540  0.2711  0.0923  0.3543
 6937TIP3    H142302   0.936   1.758   1.482 -1.1102  0.4823  1.3717
 6937TIP3    H242303   0.888   1.680   1.603  1.0266 -1.2747  1.1447
 6938TIP3   OH242304   0.046   3.430  48.157 -0.3004 -0.0876 -0.5602
 6938TIP3    H142305   0.122   3.425  48.216 -1.0104 -1.0722  0.3290
 6938TIP3    H242306  -0.003   3.507  48.187  0.0600  0.2175 -0.7594
 6939TIP3   OH242307   1.762   0.331  44.745 -1.0827  0.5751 -0.1745
 6939TIP3    H142308   1.786   0.268  44.676 -2.0180 -0.8179  0.7256
 6939TIP3    H242309   1.700   0.391  44.702 -1.8502 -0.4281 -0.5074
 6940TIP3   OH242310   0.157   0.958   7.293 -1.1068  0.4051  0.5779
 6940TIP3    H142311   0.133   0.985   7.204 -1.2296 -0.0998  0.4566
 6940TIP3    H242312   0.253   0.968   7.296 -1.1111  0.5026  0.4205
 6941TIP3   OH242313   1.721   0.581  62.157 -0.5954  0.2834  0.3134
 6941TIP3    H142314   1.649   0.537  62.203 -0.2274  0.7525  1.3733
 6941TIP3    H242315   1.800   0.552  62.203  0.0302 -0.9606 -1.4150
 6942TIP3   OH242316   0.767   2.939  59.364 -0.5905 -0.6237  0.3790
 6942TIP3    H142317   0.785   2.966  59.454 -0.8284 -0.4003  0.3577
 6942TIP3    H242318   0.692   2.992  59.337 -0.9330 -1.1566  0.2732
 6943TIP3   OH242319   2.516   0.814  45.677 -0.3712 -0.1788  0.0804
 6943TIP3    H142320   2.545   0.732  45.718 -1.3563 -0.2735  0.6272
 6943TIP3    H242321   2.585   0.836  45.615  0.6674 -0.5845  1.0665
 6944TIP3   OH242322   1.415   3.347   2.686  0.8353 -0.3390  0.2474
 6944TIP3    H142323   1.378   3.411   2.627 -0.9818 -1.2989  0.2847
 6944TIP3    H242324   1.510   3.353   2.671  0.5014  0.0334 -2.1060
 6945TIP3   OH242325   2.609   1.824  22.621 -0.5928  0.4851 -0.2683
 6945TIP3    H142326   2.588   1.732  22.639 -0.6108 -0.1391 -3.0372
 6945TIP3    H242327   2.696   1.837  22.659 -1.3313 -0.0867  1.7504
 6946TIP3   OH242328   2.839   2.371   0.155 -0.0942  0.3185 -0.4737
 6946TIP3    H142329   2.835   2.429   0.231 -1.1104 -0.3581  0.0142
 6946TIP3    H242330   2.763   2.396   0.102  1.0861  1.3840 -1.7486
 6947TIP3   OH242331   1.699   0.702  13.328 -0.0195  0.1502 -0.0005
 6947TIP3    H142332   1.679   0.625  13.273 -0.3287 -0.1510  0.5285
 6947TIP3    H242333   1.678   0.777  13.272  0.0845 -0.1464 -0.4498
 6948TIP3   OH242334   2.994   2.998  10.068 -0.3454 -0.6634  0.5581
 6948TIP3    H142335   2.928   2.979  10.135  1.8663 -2.0119  2.4846
 6948TIP3    H242336   3.036   3.079  10.098  1.9268 -2.2602  1.9812
 6949TIP3   OH242337   1.376   0.849  54.806  0.1425  0.4849  0.1440
 6949TIP3    H142338   1.411   0.934  54.832 -1.1720  0.6930  1.3653
 6949TIP3    H242339   1.418   0.786  54.865  1.1580  0.2426 -0.7957
 6950TIP3   OH242340   1.315   2.412  11.021 -0.1047  0.4946  0.1891
 6950TIP3    H142341   1.260   2.487  10.999 -1.0002  0.6742  2.6702
 6950TIP3    H242342   1.384   2.449  11.077  1.4161 -0.0620 -1.2333
 6951TIP3   OH242343   0.056   3.000  17.627 -0.7442 -0.4689  0.2076
 6951TIP3    H142344   0.040   2.964  17.714  1.4664  0.8696  1.2472
 6951TIP3    H242345   0.092   3.087  17.642 -1.6382  0.3922 -2.1064
 6952TIP3   OH242346   1.521   3.110  62.749 -0.3474  0.1192 -0.1684
 6952TIP3    H142347   1.534   3.172  62.822 -1.1261  0.4286 -0.2837
 6952TIP3    H242348   1.528   3.024  62.790  0.8160  0.2691 -0.0161
 6953TIP3   OH242349   0.823   1.683  54.927  0.4369  0.2930  0.1174
 6953TIP3    H142350   0.908   1.684  54.971 -0.2772 -1.1859  1.6343
 6953TIP3    H242351   0.765   1.731  54.987 -0.5361 -1.6880  0.8473
 6954TIP3   OH242352   0.503   3.233  55.740 -0.0856 -0.2410  0.1659
 6954TIP3    H142353   0.514   3.220  55.646  0.1864  1.1106 -0.0039
 6954TIP3    H242354   0.490   3.327  55.750  0.7168 -0.2608  1.5628
 6955TIP3   OH242355   0.998   1.762  61.704  0.2305  0.0002 -0.5520
 6955TIP3    H142356   1.088   1.736  61.682 -0.1136 -3.9842  1.8020
 6955TIP3    H242357   1.005   1.799  61.792 -0.4447 -0.0823 -0.4641
 6956TIP3   OH242358   1.756   0.363  20.048 -0.6069  0.1427 -0.4682
 6956TIP3    H142359   1.741   0.457  20.052  1.0398  0.3761  1.6027
 6956TIP3    H242360   1.707   0.327  20.122  0.7485 -0.3008  0.2386
 6957TIP3   OH242361   1.045   1.726  15.847 -0.3058  0.3739 -0.6331
 6957TIP3    H142362   0.970   1.746  15.902  1.4808  2.2945  1.3066
 6957TIP3    H242363   1.027   1.638  15.813 -2.7811  0.2463  0.7849
 6958TIP3   OH242364   2.609   2.726  64.999 -0.6258 -0.0563 -0.7510
 6958TIP3    H142365   2.700   2.706  65.017 -1.2362 -2.5274 -0.0663
 6958TIP3    H242366   2.604   2.734  64.904  0.3096  0.2391 -0.7828
 6959TIP3   OH242367   1.585   0.449  11.087 -0.0812 -0.0173  0.7135
 6959TIP3    H142368   1.642   0.523  11.066  0.3774 -0.9997 -1.8926
 6959TIP3    H242369   1.633   0.373  11.054 -2.5294 -0.9527 -0.8965
 6960TIP3   OH242370   3.118   0.521   2.682  0.4329 -0.0378  0.0315
 6960TIP3    H142371   3.186   0.475   2.731  0.1077 -0.3322  0.2079
 6960TIP3    H242372   3.153   0.610   2.671  0.0318  0.3786  1.7896
 6961TIP3   OH242373   2.466   1.263   6.680 -0.3488  0.5724 -0.1774
 6961TIP3    H142374   2.407   1.203   6.634 -1.4289 -0.1364  2.0238
 6961TIP3    H242375   2.551   1.221   6.677 -0.7806 -0.3374  0.0281
 6962TIP3   OH242376   3.282   2.528  12.555  0.5019  0.4592 -0.1372
 6962TIP3    H142377   3.200   2.530  12.505  1.2792  0.1145 -1.4597
 6962TIP3    H242378   3.293   2.437  12.580 -0.1893  0.7188  1.2485
 6963TIP3   OH242379   1.244   0.700  17.324 -0.3229  0.5010 -0.5684
 6963TIP3    H142380   1.290   0.783  17.315 -0.2027  0.5151  0.1599
 6963TIP3    H242381   1.305   0.635  17.290  0.3359  0.4931  0.5859
 6964TIP3   OH242382   2.863   1.268  64.784  0.2423 -0.3253  0.3200
 6964TIP3    H142383   2.881   1.175  64.768 -0.4073 -0.4303  0.1875
 6964TIP3    H242384   2.814   1.296  64.707  1.2368  0.3743 -0.0791
 6965TIP3   OH242385   2.957   2.042   6.324 -0.1707 -0.3836  0.0058
 6965TIP3    H142386   3.018   2.107   6.290 -1.4329  0.9038  0.1398
 6965TIP3    H242387   2.917   2.003   6.246  0.5646 -1.0031 -0.0732
 6966TIP3   OH242388   2.394   3.343  53.899 -0.5466  0.1910  0.2496
 6966TIP3    H142389   2.467   3.285  53.919  0.1270  1.2401  0.9210
 6966TIP3    H242390   2.337   3.337  53.976  0.1081  1.2758  0.8439
 6967TIP3   OH242391   1.403   3.153  61.846  0.6682 -0.0789  0.1570
 6967TIP3    H142392   1.445   3.093  61.909  0.7909  0.2567  0.3964
 6967TIP3    H242393   1.428   3.240  61.876  0.4594  0.0941 -0.1732
 6968TIP3   OH242394   3.361   1.520  17.915  0.2648 -0.1336  0.0045
 6968TIP3    H142395   3.306   1.474  17.978 -1.5297  2.4173  0.4203
 6968TIP3    H242396   3.439   1.545  17.964  0.6304 -1.4342  0.1343
 6969TIP3   OH242397   0.691   2.031  55.210 -0.0911  0.2647  0.1454
 6969TIP3    H142398   0.681   2.125  55.195  0.7676 -0.0219 -2.7820
 6969TIP3    H242399   0.770   2.024  55.264  0.7581  1.1852 -0.9346
 6970TIP3   OH242400   1.635   1.183  59.995 -0.1039  0.4257 -0.3418
 6970TIP3    H142401   1.585   1.117  59.946 -0.4079  0.6061 -0.2766
 6970TIP3    H242402   1.668   1.136  60.072  2.7097 -0.6251 -2.0285
 6971TIP3   OH242403   1.011   0.055   3.532 -0.0248 -0.3065  0.5471
 6971TIP3    H142404   1.048  -0.019   3.579  0.7783  1.3453  2.7130
 6971TIP3    H242405   1.085   0.094   3.485  0.0770  0.4269  1.2891
 6972TIP3   OH242406   2.334   0.357  45.141 -0.1266 -0.4211  0.0831
 6972TIP3    H142407   2.240   0.351  45.124 -0.6629 -1.9641  3.0661
 6972TIP3    H242408   2.341   0.418  45.214  1.0453 -1.3527  0.7713
 6973TIP3   OH242409   1.473   0.709   5.860 -0.3177 -0.0108  0.2583
 6973TIP3    H142410   1.427   0.793   5.862 -0.5383 -0.1278  0.1675
 6973TIP3    H242411   1.411   0.649   5.817 -0.6172 -0.4890  1.3169
 6974TIP3   OH242412   0.857   3.103  19.412 -0.2097 -0.3578 -0.2453
 6974TIP3    H142413   0.793   3.052  19.362  0.8833 -2.3697  0.2900
 6974TIP3    H242414   0.807   3.141  19.484 -1.0323 -0.8555 -0.5474
 6975TIP3   OH242415   2.661   0.641  48.697 -0.8933 -0.3768 -0.2534
 6975TIP3    H142416   2.708   0.675  48.621  0.0422  1.4801  1.0717
 6975TIP3    H242417   2.569   0.650  48.675 -0.6328  0.4910 -1.0268
 6976TIP3   OH242418   0.113   3.263  44.095 -0.2394 -0.1795 -0.4313
 6976TIP3    H142419   0.105   3.331  44.162 -1.3957 -0.4476 -0.2799
 6976TIP3    H242420   0.054   3.291  44.024 -0.4115 -0.8015 -0.5458
 6977TIP3   OH242421   1.467   3.095  61.537  0.3073  0.1414 -0.3138
 6977TIP3    H142422   1.476   3.005  61.569  0.0025 -0.3207 -1.4882
 6977TIP3    H242423   1.415   3.139  61.604  0.6188 -0.5039  0.3620
 6978TIP3   OH242424   2.113   1.038  22.511  0.0261 -0.5311  0.0760
 6978TIP3    H142425   2.064   0.961  22.543 -0.6899  0.0214  0.3476
 6978TIP3    H242426   2.111   1.099  22.585  0.4353 -0.1808 -0.2027
 6979TIP3   OH242427   1.341   0.954  43.282  0.2315 -0.2472  0.2456
 6979TIP3    H142428   1.306   1.034  43.321 -1.1497 -0.4147 -0.5671
 6979TIP3    H242429   1.436   0.962  43.291  0.2645  2.3946 -1.5047
 6980TIP3   OH242430   3.336   2.483  15.776 -0.5672  0.4394 -0.3181
 6980TIP3    H142431   3.378   2.523  15.853 -0.9338 -0.3665  0.3159
 6980TIP3    H242432   3.264   2.542  15.755 -0.4198  0.7054 -0.0834
 6981TIP3   OH242433   0.368   3.438  51.740 -0.1962 -0.4602  0.7430
 6981TIP3    H142434   0.430   3.510  51.752  0.8102 -0.9819 -0.9632
 6981TIP3    H242435   0.284   3.481  51.725  0.5921  0.4694 -1.4000
 6982TIP3   OH242436   0.831   1.678  42.971  0.1730 -0.0357  0.6133
 6982TIP3    H142437   0.749   1.658  43.015 -0.1784 -0.7039 -0.3223
 6982TIP3    H242438   0.852   1.599  42.921  1.0609  0.3493  0.3487
 6983TIP3   OH242439   0.856   1.254  11.019  0.1097 -0.0647  0.0679
 6983TIP3    H142440   0.933   1.216  10.977  0.9133  0.2410  1.2242
 6983TIP3    H242441   0.817   1.181  11.068  0.5312  0.1322  0.7015
 6984TIP3   OH242442   0.091   0.608  58.826 -0.8403 -0.3144 -0.0769
 6984TIP3    H142443   0.167   0.559  58.856 -0.2392 -0.0854 -1.1989
 6984TIP3    H242444   0.047   0.636  58.907  1.0424  0.7757  0.6180
 6985TIP3   OH242445   0.283   2.052   2.577 -0.4562 -0.5139  0.4356
 6985TIP3    H142446   0.194   2.044   2.543  0.2235 -1.1694 -1.3265
 6985TIP3    H242447   0.274   2.040   2.671 -2.1053 -1.6128  0.1780
 6986TIP3   OH242448   3.146   2.204  49.495 -0.0556  0.2399  0.2941
 6986TIP3    H142449   3.157   2.278  49.435  1.9464 -0.0880  0.2012
 6986TIP3    H242450   3.167   2.239  49.581 -1.4149  0.3262  0.6122
 6987TIP3   OH242451   0.302   2.540   6.421  0.5944 -0.4199  0.6628
 6987TIP3    H142452   0.251   2.522   6.501  0.1072  1.5952  0.8603
 6987TIP3    H242453   0.281   2.631   6.400  1.8955 -0.4551 -0.9271
 6988TIP3   OH242454   1.299   0.092  45.374  0.0554 -0.3713 -0.3895
 6988TIP3    H142455   1.346   0.136  45.303 -0.4841  1.6536  0.4284
 6988TIP3    H242456   1.214   0.070  45.336  0.0414  0.0349 -0.6064
 6989TIP3   OH242457   1.833   0.280   0.673  0.4263 -0.0411 -0.2064
 6989TIP3    H142458   1.783   0.249   0.597 -0.2702  1.7133 -0.5134
 6989TIP3    H242459   1.892   0.208   0.695 -1.4417 -1.7401 -0.5583
 6990TIP3   OH242460   0.093   0.527  30.288 -0.2685  0.0832 -0.2695
 6990TIP3    H142461   0.051   0.613  30.279  1.4383  0.8508 -1.5357
 6990TIP3    H242462   0.066   0.479  30.210 -2.7650 -1.3344  1.3300
 6991TIP3   OH242463   1.823   0.565  59.220  0.1229 -0.1672 -0.5016
 6991TIP3    H142464   1.866   0.509  59.285 -0.0170  0.6184  0.2931
 6991TIP3    H242465   1.731   0.541  59.225 -0.0285  0.5418  0.2785
 6992TIP3   OH242466   0.373   2.445  42.368  0.3232  0.4049  0.5432
 6992TIP3    H142467   0.356   2.539  42.365 -2.7739 -0.0406  1.3220
 6992TIP3    H242468   0.389   2.421  42.277 -2.3510  1.2006 -0.2183
 6993TIP3   OH242469   0.133   1.985   4.860 -0.0357 -0.5008  0.1324
 6993TIP3    H142470   0.051   1.938   4.844 -0.4437  0.8640 -2.2755
 6993TIP3    H242471   0.108   2.058   4.916  0.0083 -1.2709  1.2087
 6994TIP3   OH242472   1.510   1.637  35.092  0.8534 -0.3180  0.0749
 6994TIP3    H142473   1.444   1.584  35.136  0.0110 -0.3613 -1.1988
 6994TIP3    H242474   1.567   1.574  35.049 -0.2516 -0.2193 -1.5872
 6995TIP3   OH242475   0.537   0.706  54.740  0.1412  0.0819  0.1826
 6995TIP3    H142476   0.551   0.785  54.792 -2.5119 -0.2908  1.6193
 6995TIP3    H242477   0.578   0.726  54.656  0.4036  2.6002  0.8166
 6996TIP3   OH242478   1.681   1.081   6.097  0.5166 -0.1217 -0.2184
 6996TIP3    H142479   1.644   1.011   6.150  0.8777  0.1590  0.4137
 6996TIP3    H242480   1.611   1.145   6.088  0.0911 -0.6765 -1.0364
 6997TIP3   OH242481   1.378   0.020  60.642  0.3942 -0.1823 -0.1152
 6997TIP3    H142482   1.315   0.027  60.713 -1.6579 -1.6682 -1.6541
 6997TIP3    H242483   1.441  -0.045  60.671 -1.0884 -1.6606 -0.0370
 6998TIP3   OH242484   1.088   1.196  13.176 -0.0899 -0.2514 -0.1184
 6998TIP3    H142485   1.126   1.257  13.113 -2.6103  0.7149 -0.8256
 6998TIP3    H242486   1.104   1.110  13.139  1.6210  0.0496 -0.1968
 6999TIP3   OH242487   1.320   0.602  36.929 -0.0682 -0.0285 -0.4175
 6999TIP3    H142488   1.292   0.545  36.858 -0.8983  0.0810 -0.1952
 6999TIP3    H242489   1.384   0.661  36.888 -1.0684  0.5104 -1.2756
 7000TIP3   OH242490   2.674   2.618  15.583  0.2884 -0.1071 -0.3109
 7000TIP3    H142491   2.750   2.565  15.560  0.3697 -1.5137  2.7276
 7000TIP3    H242492   2.599   2.566  15.554  0.4245 -0.4864  0.0139
 7001TIP3   OH242493   2.900   2.897  60.916  0.3706 -0.3845 -0.0440
 7001TIP3    H142494   2.879   2.989  60.932  1.3528 -0.1848  0.2191
 7001TIP3    H242495   2.915   2.892  60.821 -0.3372 -0.4197 -0.1537
 7002TIP3   OH242496   3.257   0.775  51.976 -0.2664  0.3156  0.2447
 7002TIP3    H142497   3.293   0.843  51.919 -0.4090 -0.4879 -0.8368
 7002TIP3    H242498   3.171   0.755  51.938 -0.6576  0.2435  1.1514
 7003TIP3   OH242499   3.166   3.132  13.881  0.5862  0.2437 -0.6118
 7003TIP3    H142500   3.147   3.154  13.972  0.9671 -0.6413 -0.3057
 7003TIP3    H242501   3.183   3.216  13.839 -0.0530  0.6986  0.0195
 7004TIP3   OH242502   0.371   3.383  19.941  0.5430  0.3181 -0.2093
 7004TIP3    H142503   0.432   3.310  19.939  0.1964  0.0124  0.0956
 7004TIP3    H242504   0.403   3.439  20.012  1.4759  1.0671 -1.1961
 7005TIP3   OH242505   1.283   1.850   2.890  0.0838  0.5835 -1.0905
 7005TIP3    H142506   1.220   1.912   2.854  0.0951  0.6628 -0.9732
 7005TIP3    H242507   1.244   1.821   2.972  0.2526  0.7187 -0.9625
 7006TIP3   OH242508   0.462   1.623  45.033  0.5697  0.4529 -0.1857
 7006TIP3    H142509   0.501   1.654  44.952  2.5735 -0.3485  0.4238
 7006TIP3    H242510   0.421   1.540  45.010 -0.4693  1.0871 -0.7274
 7007TIP3   OH242511   1.082   3.393   1.156 -0.1900  0.0357  0.6497
 7007TIP3    H142512   1.075   3.317   1.099  1.6881 -0.9311  1.6381
 7007TIP3    H242513   0.992   3.427   1.161 -0.9612 -1.7370 -0.2745
 7008TIP3   OH242514   3.020   2.755  54.638 -0.2041 -0.2754 -0.1006
 7008TIP3    H142515   2.953   2.818  54.660 -0.4830 -0.9903  1.2358
 7008TIP3    H242516   3.098   2.785  54.686  0.8566  1.2110 -2.5471
 7009TIP3   OH242517   3.219   3.260   9.780 -0.0249 -0.2326  0.0604
 7009TIP3    H142518   3.238   3.177   9.738 -0.6368  0.2284 -1.1829
 7009TIP3    H242519   3.278   3.323   9.738  0.3517 -0.0032  0.9062
 7010TIP3   OH242520   3.264   1.811  57.930 -0.2060 -0.6464  0.5135
 7010TIP3    H142521   3.353   1.843  57.916 -1.1710  2.0307 -0.0394
 7010TIP3    H242522   3.250   1.747  57.860  0.9615 -0.4365  0.0703
 7011TIP3   OH242523   2.112   0.968  46.011 -0.2258  0.0467  0.1115
 7011TIP3    H142524   2.145   0.901  45.952  0.2293  0.5832 -0.2599
 7011TIP3    H242525   2.186   1.026  46.026 -1.1262  1.6831 -1.3306
 7012TIP3   OH242526   0.539   2.136   3.399 -0.0307 -0.1076 -0.0725
 7012TIP3    H142527   0.541   2.222   3.356 -1.3813 -0.3801 -0.7131
 7012TIP3    H242528   0.626   2.128   3.439  0.7731  0.7733 -1.5287
 7013TIP3   OH242529   2.194   1.964  52.418 -0.1235  0.0559 -0.0260
 7013TIP3    H142530   2.237   1.911  52.350  0.5541 -0.5397  0.8322
 7013TIP3    H242531   2.225   2.053  52.403  1.0358 -0.2771  0.2469
 7014TIP3   OH242532   0.937   1.657  51.540 -0.0257 -0.3809  0.3507
 7014TIP3    H142533   0.939   1.656  51.445  0.4467  2.9970  0.2029
 7014TIP3    H242534   0.845   1.665  51.562 -0.0534  0.0120  0.1033
 7015TIP3   OH242535   3.209   2.378  55.698 -0.4650  0.3914 -0.6072
 7015TIP3    H142536   3.301   2.407  55.699 -0.0936 -0.7885  0.3379
 7015TIP3    H242537   3.161   2.455  55.668  0.8954  0.8318 -1.7927
 7016TIP3   OH242538   1.600   2.073  50.999  0.4976 -0.0312 -0.1056
 7016TIP3    H142539   1.540   2.046  50.929  1.0137  0.8520 -0.9196
 7016TIP3    H242540   1.687   2.048  50.966  0.9568  2.1478 -0.7188
 7017TIP3   OH242541   1.263   1.970  52.237 -0.4017  0.6472  0.3058
 7017TIP3    H142542   1.180   2.017  52.235 -0.6769  0.1549 -0.0603
 7017TIP3    H242543   1.325   2.032  52.276 -0.1896  2.1991 -2.2628
 7018TIP3   OH242544   1.472   0.635  19.213 -0.3861 -0.0061  0.2840
 7018TIP3    H142545   1.481   0.667  19.302  0.9932 -1.5597  0.7495
 7018TIP3    H242546   1.434   0.708  19.164 -0.0937  1.2513  1.8801
 7019TIP3   OH242547   3.272   0.260   0.248  0.5144 -0.2898  0.7660
 7019TIP3    H142548   3.294   0.243   0.156 -0.2375 -0.4834  0.6136
 7019TIP3    H242549   3.267   0.355   0.254  1.6074 -0.2193  0.8702
 7020TIP3   OH242550   0.136   0.703  44.141  0.9772 -0.2970 -0.4355
 7020TIP3    H142551   0.189   0.772  44.181 -0.8547  0.9937 -0.0850
 7020TIP3    H242552   0.081   0.749  44.077 -0.6512 -1.3104  0.1659
 7021TIP3   OH242553   2.808   1.089  44.725 -0.1789  0.0997 -0.5493
 7021TIP3    H142554   2.856   1.032  44.666  0.1024  1.1726 -1.3855
 7021TIP3    H242555   2.718   1.055  44.725  0.3762 -1.4622  0.4484
 7022TIP3   OH242556   2.428   1.948   0.693  0.2011  0.1331 -0.4167
 7022TIP3    H142557   2.457   2.019   0.750 -0.6616  0.7731 -0.7555
 7022TIP3    H242558   2.338   1.971   0.670  0.1067 -0.7783 -0.9964
 7023TIP3   OH242559   1.434   2.591  43.175 -0.0611 -0.7352  0.0945
 7023TIP3    H142560   1.523   2.621  43.194 -0.2848 -0.0131  0.0476
 7023TIP3    H242561   1.435   2.572  43.081  0.6995 -3.1016  0.5056
 7024TIP3   OH242562   1.070   2.818  15.097 -0.2278  0.6804  0.0810
 7024TIP3    H142563   1.131   2.810  15.170 -0.6889 -1.1038  0.3147
 7024TIP3    H242564   1.102   2.756  15.032 -1.1486  0.5399 -0.2580
 7025TIP3   OH242565   3.050   0.532  43.623  0.6677  0.2281  0.4546
 7025TIP3    H142566   3.022   0.442  43.606  0.4584  0.6490 -1.7461
 7025TIP3    H242567   3.145   0.527  43.624  0.6440 -0.1554  1.2633
 7026TIP3   OH242568   2.613   1.906  60.555 -0.3159  0.2371  0.1603
 7026TIP3    H142569   2.708   1.901  60.543 -0.3173  0.5753 -0.0180
 7026TIP3    H242570   2.586   1.977  60.496 -0.3853  1.7005  1.8900
 7027TIP3   OH242571   2.047   2.056  22.462  0.4301  0.6042  0.3824
 7027TIP3    H142572   2.045   2.076  22.368 -0.5435  2.0904  0.6756
 7027TIP3    H242573   1.984   1.985  22.473  1.8823 -0.8359 -0.3188
 7028TIP3   OH242574   1.259   3.383  51.961  0.3360 -0.3432 -0.5415
 7028TIP3    H142575   1.258   3.321  51.888  1.1149 -0.5239 -0.4095
 7028TIP3    H242576   1.321   3.451  51.933  0.1654 -0.0891 -0.3055
 7029TIP3   OH242577   2.764   0.438  15.200 -0.0594  0.0052 -0.1279
 7029TIP3    H142578   2.764   0.377  15.127  0.5850 -1.2369  0.8808
 7029TIP3    H242579   2.672   0.440  15.229 -0.2344  0.1695 -0.6748
 7030TIP3   OH242580   2.662   1.795  59.955  0.0419 -0.1146  0.4556
 7030TIP3    H142581   2.737   1.850  59.931 -0.4838  0.0227 -0.9349
 7030TIP3    H242582   2.654   1.732  59.883 -0.2883 -1.0853  1.3047
 7031TIP3   OH242583   2.031   1.698  52.384  0.3726 -0.4207 -0.4948
 7031TIP3    H142584   1.940   1.668  52.379  0.1782  0.2801 -1.7162
 7031TIP3    H242585   2.063   1.692  52.294  1.4174 -0.3009 -0.1422
 7032TIP3   OH242586   2.632   3.105  15.030 -0.3151  0.1404  0.4034
 7032TIP3    H142587   2.566   3.059  15.082  0.8489 -1.2554  0.7138
 7032TIP3    H242588   2.598   3.103  14.941 -0.8649 -0.2411  0.6186
 7033TIP3   OH242589   1.178   2.787  20.658  0.0872 -0.4395  0.2693
 7033TIP3    H142590   1.205   2.842  20.584  0.5214  0.2590  0.9327
 7033TIP3    H242591   1.155   2.703  20.618 -0.5487  0.2004 -0.7657
 7034TIP3   OH242592   0.820   1.898  62.844  0.0845 -0.4896 -0.0915
 7034TIP3    H142593   0.746   1.929  62.895  1.4316  2.5810  0.2103
 7034TIP3    H242594   0.874   1.850  62.906  0.4742  1.0607  0.8089
 7035TIP3   OH242595   0.505   0.243  46.484  0.1627 -0.6837 -0.8753
 7035TIP3    H142596   0.531   0.295  46.561  0.1067  2.6978 -2.9622
 7035TIP3    H242597   0.411   0.227  46.497 -0.1924  1.1588 -0.8562
 7036TIP3   OH242598   0.280   2.588  60.549 -0.0695 -0.1259 -0.2174
 7036TIP3    H142599   0.241   2.500  60.550 -0.4791  0.0136 -1.4243
 7036TIP3    H242600   0.363   2.576  60.504  0.3081 -0.0439  0.4471
 7037TIP3   OH242601   2.120   1.606  47.425 -0.8918 -0.1266 -0.3320
 7037TIP3    H142602   2.064   1.546  47.375 -0.1420 -0.1126 -1.2231
 7037TIP3    H242603   2.081   1.692  47.410 -0.6332 -0.1151 -0.9669
 7038TIP3   OH242604   3.419   1.842  11.616  0.2774  0.3989 -0.3545
 7038TIP3    H142605   3.341   1.834  11.671  0.0477 -0.5641 -0.8001
 7038TIP3    H242606   3.432   1.755  11.579  4.3441 -0.9248  3.3608
 7039TIP3   OH242607   0.171   2.203  11.228  0.0007  0.1271 -0.1768
 7039TIP3    H142608   0.263   2.205  11.200 -0.1784  1.4237 -0.7296
 7039TIP3    H242609   0.147   2.295  11.241 -0.6235 -0.2797  2.0371
 7040TIP3   OH242610   0.928   0.402  48.046 -0.1424 -0.1409 -0.8391
 7040TIP3    H142611   0.934   0.357  48.131 -0.9047 -0.8471 -1.1462
 7040TIP3    H242612   1.017   0.432  48.029 -0.1832  1.0125  0.7438
 7041TIP3   OH242613   1.685   2.562   1.794 -0.2064 -0.2484  0.8881
 7041TIP3    H142614   1.678   2.481   1.845 -1.7357 -0.0452  1.0678
 7041TIP3    H242615   1.712   2.533   1.707  2.4688 -0.6022  1.7573
 7042TIP3   OH242616   1.653   2.129  21.637  1.0656 -0.3527  0.6159
 7042TIP3    H142617   1.639   2.180  21.716  0.3114 -0.6117  0.6593
 7042TIP3    H242618   1.573   2.078  21.627  1.9518 -1.8735  0.8371
 7043TIP3   OH242619   1.033   1.822  54.466  0.0263  0.5145  0.0522
 7043TIP3    H142620   1.037   1.782  54.553  3.4180 -0.0294 -0.2282
 7043TIP3    H242621   1.035   1.916  54.483  0.4595  0.4130  0.5867
 7044TIP3   OH242622   2.700   1.995   1.673 -0.0631 -0.4734 -0.0519
 7044TIP3    H142623   2.613   1.956   1.685  0.2468 -0.6143  2.1200
 7044TIP3    H242624   2.683   2.089   1.667 -0.4108 -0.5522 -0.3820
 7045TIP3   OH242625   3.364   0.203  16.938 -0.2191 -0.3414 -0.5598
 7045TIP3    H142626   3.406   0.285  16.911  1.8474 -1.0302  0.3515
 7045TIP3    H242627   3.329   0.222  17.026 -2.6171  0.4393 -1.5809
 7046TIP3   OH242628   1.474   1.573  44.962 -0.2360  0.0200  0.6463
 7046TIP3    H142629   1.569   1.568  44.950  0.0038 -1.0120  2.4642
 7046TIP3    H242630   1.439   1.503  44.907  0.3242 -1.1969  1.7651
 7047TIP3   OH242631   2.131   0.514  66.741 -0.4855  0.2811 -0.2317
 7047TIP3    H142632   2.042   0.547  66.753 -1.1336 -1.5159  0.2180
 7047TIP3    H242633   2.155   0.541  66.653 -1.7270  0.2699 -0.6018
 7048TIP3   OH242634   2.327   2.367   2.838  0.2811 -0.0700 -0.1931
 7048TIP3    H142635   2.354   2.329   2.754  0.0388  2.1186 -1.3340
 7048TIP3    H242636   2.320   2.460   2.821 -0.7312  0.3311  2.0470
 7049TIP3   OH242637   3.187   1.336   1.819 -0.3659  0.0516 -0.8176
 7049TIP3    H142638   3.278   1.331   1.850 -0.0276 -0.1472 -1.8239
 7049TIP3    H242639   3.191   1.308   1.728 -1.2981  0.9693 -1.1515
 7050TIP3   OH242640   0.580   2.121  47.330 -0.0836 -0.3485 -0.2064
 7050TIP3    H142641   0.637   2.046  47.315 -0.1545 -0.2235 -1.1177
 7050TIP3    H242642   0.530   2.131  47.250 -0.9300 -0.0475  0.3436
 7051TIP3   OH242643   0.817   0.420  50.440  1.4398  0.5297 -0.2800
 7051TIP3    H142644   0.726   0.441  50.460  1.1942 -1.1365  0.4987
 7051TIP3    H242645   0.813   0.375  50.355  1.5293  0.3831 -0.2081
 7052TIP3   OH242646   2.203   1.692  56.146 -0.0960 -0.2105  0.2905
 7052TIP3    H142647   2.256   1.682  56.067 -1.9084 -2.6222 -0.7598
 7052TIP3    H242648   2.267   1.704  56.217  1.6725 -0.0516 -1.2667
 7053TIP3   OH242649   0.387   3.278   8.901 -0.5825 -0.5434 -0.0781
 7053TIP3    H142650   0.461   3.237   8.945 -0.3610 -0.3531 -0.2709
 7053TIP3    H242651   0.326   3.300   8.971 -0.2004 -0.1758  0.1439
 7054TIP3   OH242652   2.240   1.634  12.492 -0.5517 -0.5770  0.5295
 7054TIP3    H142653   2.182   1.565  12.526 -2.0060  0.2446 -0.2124
 7054TIP3    H242654   2.185   1.712  12.488  0.9471  0.5559  0.9367
 7055TIP3   OH242655   1.900   1.981  45.528 -0.0761 -0.0275 -0.2515
 7055TIP3    H142656   1.991   1.967  45.555  1.1074  0.5526 -3.5445
 7055TIP3    H242657   1.882   2.072  45.551  0.8200  0.3980 -1.1818
 7056TIP3   OH242658   2.718   0.913  54.608  0.6984 -0.1633 -0.2836
 7056TIP3    H142659   2.638   0.943  54.650  1.2084  0.1962  0.4674
 7056TIP3    H242660   2.732   0.975  54.536  2.0989  1.9585  1.6411
 7057TIP3   OH242661   2.342   2.568  59.429  0.0321 -0.2386 -0.4049
 7057TIP3    H142662   2.311   2.624  59.500 -0.2633 -0.3093 -0.4787
 7057TIP3    H242663   2.283   2.492  59.431  0.3975 -0.5255 -0.3369
 7058TIP3   OH242664   0.677   0.451  56.885  0.2186 -0.5513 -0.0260
 7058TIP3    H142665   0.728   0.528  56.859  0.4618 -1.2805 -1.8743
 7058TIP3    H242666   0.587   0.474  56.861  0.1999 -0.6075 -0.0063
 7059TIP3   OH242667   0.374   2.549  57.947 -0.1857 -0.0054 -0.2125
 7059TIP3    H142668   0.366   2.508  57.860 -0.4654 -1.3340  0.4209
 7059TIP3    H242669   0.451   2.508  57.986 -0.4964  0.0425  0.4673
 7060TIP3   OH242670   0.299   2.463   5.372 -0.2076  0.2442 -0.4593
 7060TIP3    H142671   0.301   2.551   5.335  0.3444  0.3439 -0.2056
 7060TIP3    H242672   0.288   2.405   5.297 -0.9036  0.5456 -0.5927
 7061TIP3   OH242673   2.079   1.060  57.171  1.1354  0.1459 -0.3202
 7061TIP3    H142674   2.030   1.012  57.237 -1.1116  1.9401 -0.5361
 7061TIP3    H242675   2.096   0.996  57.102 -0.1808 -0.7568  0.1563
 7062TIP3   OH242676   2.017   2.060  19.271  0.1851  0.0200  0.0282
 7062TIP3    H142677   2.017   2.015  19.186  2.6452 -0.4599  0.2103
 7062TIP3    H242678   1.976   2.144  19.253 -2.3175 -1.2962 -0.8710
 7063TIP3   OH242679   2.736   3.112  63.372  0.1568  0.6920 -0.2113
 7063TIP3    H142680   2.665   3.147  63.425 -0.3874  1.7160 -1.5451
 7063TIP3    H242681   2.814   3.156  63.405 -0.0780  0.8248  0.1726
 7064TIP3   OH242682   0.585   2.786  65.316 -0.7059  1.0175 -0.6823
 7064TIP3    H142683   0.665   2.778  65.264 -1.2354  1.0528 -1.5130
 7064TIP3    H242684   0.568   2.880  65.322 -0.1636  1.0612  0.3222
 7065TIP3   OH242685   0.195   0.754   8.705  0.4338  0.2946  0.0603
 7065TIP3    H142686   0.102   0.737   8.690 -0.3136  1.3083  2.8995
 7065TIP3    H242687   0.204   0.849   8.693  0.5043  0.5949  2.0908
 7066TIP3   OH242688   2.801   2.648  60.637 -0.1976 -0.5097  0.5569
 7066TIP3    H142689   2.772   2.563  60.603  0.0567 -0.8862  1.2539
 7066TIP3    H242690   2.853   2.626  60.714 -0.3382  0.2925  0.8945
 7067TIP3   OH242691   0.686   0.723  44.241  0.0873  0.0681  0.0235
 7067TIP3    H142692   0.683   0.628  44.240  1.3227  0.0160 -0.6146
 7067TIP3    H242693   0.704   0.747  44.332 -1.4257 -0.2271  0.4350
 7068TIP3   OH242694   0.080   1.513  59.433 -0.2189  0.0148 -0.4266
 7068TIP3    H142695   0.143   1.567  59.481 -0.4151 -1.4400  1.6226
 7068TIP3    H242696   0.134   1.452  59.383  0.0036  0.2391 -0.4630
 7069TIP3   OH242697   1.513   2.461  17.935  0.1064  0.4991  0.2621
 7069TIP3    H142698   1.435   2.450  17.880  0.6160 -1.4683 -0.1184
 7069TIP3    H242699   1.557   2.377  17.932  1.6595  1.2221  1.4246
 7070TIP3   OH242700   3.355   2.457  17.724  0.3308  0.6202 -0.1406
 7070TIP3    H142701   3.392   2.544  17.739 -0.1360  0.5696  1.5160
 7070TIP3    H242702   3.347   2.450  17.629 -0.2781  2.6576 -0.2867
 7071TIP3   OH242703   3.395   0.137  18.115 -0.5461  0.0031  0.1111
 7071TIP3    H142704   3.329   0.197  18.080 -0.4574  1.2022  1.8239
 7071TIP3    H242705   3.471   0.193  18.134  0.1969 -0.9717  0.1162
 7072TIP3   OH242706   0.994   2.668  62.130 -0.3365  0.5650  0.1734
 7072TIP3    H142707   1.004   2.718  62.211 -1.3503 -1.6063  1.7254
 7072TIP3    H242708   1.048   2.590  62.143 -0.0800  0.4319 -1.5014
 7073TIP3   OH242709   1.517   3.394  48.113  0.2472  0.5271  0.1256
 7073TIP3    H142710   1.458   3.347  48.173 -1.9932  2.8861 -0.0159
 7073TIP3    H242711   1.477   3.381  48.026  0.3837  1.4927 -0.0878
 7074TIP3   OH242712   0.771   1.444   9.364  0.1941 -0.5838  0.1722
 7074TIP3    H142713   0.861   1.472   9.379 -0.0373  0.0259  0.4844
 7074TIP3    H242714   0.726   1.463   9.447 -0.0821 -1.4735  0.2354
 7075TIP3   OH242715   0.012   0.311  46.427 -0.3920  0.0338  0.4282
 7075TIP3    H142716  -0.032   0.374  46.485 -0.8436  1.3567 -1.2835
 7075TIP3    H242717  -0.022   0.331  46.340  0.2127 -1.9596 -0.3076
 7076TIP3   OH242718   2.432   2.475  11.321  0.0289  0.0662 -0.1365
 7076TIP3    H142719   2.345   2.504  11.293 -0.2048 -0.9692 -0.5291
 7076TIP3    H242720   2.464   2.423  11.248  0.6036 -0.3145  0.3843
 7077TIP3   OH242721   2.808   0.841  47.149  0.5639  0.1233  0.0611
 7077TIP3    H142722   2.873   0.909  47.133 -0.4240  0.5591 -2.5930
 7077TIP3    H242723   2.752   0.842  47.071 -1.4451 -1.5563  1.3676
 7078TIP3   OH242724   0.543   1.334  17.069 -0.0151 -0.4157  0.2222
 7078TIP3    H142725   0.516   1.331  16.977  1.2301 -0.4073 -0.1715
 7078TIP3    H242726   0.462   1.346  17.118 -0.5848  0.9366 -0.9744
 7079TIP3   OH242727   0.541   3.063   7.300  0.5839 -0.3357 -0.2074
 7079TIP3    H142728   0.583   3.110   7.372 -1.9957  0.0185  1.1841
 7079TIP3    H242729   0.499   3.132   7.248  1.0356 -0.7293 -1.1233
 7080TIP3   OH242730   1.964   0.997  52.915  0.1235  0.2779 -0.1296
 7080TIP3    H142731   2.008   1.057  52.855  0.1842  0.7395  0.3647
 7080TIP3    H242732   1.904   0.947  52.860  0.5781  0.3059 -0.6622
 7081TIP3   OH242733   1.996   0.064  67.289 -0.0732 -0.0299  0.2053
 7081TIP3    H142734   1.922   0.122  67.310  0.4062  0.8282 -0.3847
 7081TIP3    H242735   2.014   0.018  67.371  0.7018  2.0297  1.2871
 7082TIP3   OH242736   0.979   1.760  20.789  0.4679 -0.0140  0.2867
 7082TIP3    H142737   1.062   1.734  20.829 -0.3814 -2.2813  0.7250
 7082TIP3    H242738   1.004   1.812  20.713  2.3275 -1.0684  0.1319
 7083TIP3   OH242739   2.356   3.118  66.847  0.4917  0.0010  0.3149
 7083TIP3    H142740   2.264   3.122  66.821  0.1690  0.7563  1.4905
 7083TIP3    H242741   2.355   3.080  66.935  1.6333 -3.4350 -0.9848
 7084TIP3   OH242742   1.780   0.675  49.426  0.0798  0.1353 -0.6274
 7084TIP3    H142743   1.719   0.620  49.376 -2.8561  0.6708  2.0072
 7084TIP3    H242744   1.825   0.613  49.483  0.1645 -0.0076 -0.8463
 7085TIP3   OH242745   3.388   0.999  51.490  0.2305 -0.0010 -0.2041
 7085TIP3    H142746   3.389   1.010  51.585  0.6762  0.7822 -0.2951
 7085TIP3    H242747   3.448   1.066  51.457 -1.8152  1.4162 -1.2352
 7086TIP3   OH242748   2.882   2.201  26.549 -0.0832 -0.6873 -0.3852
 7086TIP3    H142749   2.848   2.127  26.499  0.0568 -0.1701 -1.2524
 7086TIP3    H242750   2.938   2.248  26.488  0.3259 -0.2091  0.3470
 7087TIP3   OH242751   0.676   0.811   3.865  0.1919 -0.1219 -0.1464
 7087TIP3    H142752   0.646   0.897   3.836  0.6661  0.6069  1.4065
 7087TIP3    H242753   0.737   0.783   3.798 -0.9327  0.1637 -1.3253
 7088TIP3   OH242754   1.193   0.721  37.144 -0.5154 -0.2723 -0.5073
 7088TIP3    H142755   1.235   0.661  37.083 -2.4467 -1.6397 -0.5565
 7088TIP3    H242756   1.151   0.786  37.089 -2.7026 -1.7988 -0.7639
 7089TIP3   OH242757   2.222   0.058  11.990 -0.3204 -0.4725  0.6787
 7089TIP3    H142758   2.189  -0.030  11.974  0.4276 -0.4238 -1.4408
 7089TIP3    H242759   2.197   0.108  11.912 -0.2577  1.0566  1.5939
 7090TIP3   OH242760   1.320   2.249  47.955 -0.6889 -0.3634 -0.2633
 7090TIP3    H142761   1.358   2.181  47.899 -0.5342 -1.0563  0.6645
 7090TIP3    H242762   1.242   2.277  47.908 -0.7256 -1.1462 -0.6921
 7091TIP3   OH242763   2.599   0.974  17.215 -0.1484  0.7187  0.4201
 7091TIP3    H142764   2.545   0.956  17.139  0.7864  0.0068 -0.1010
 7091TIP3    H242765   2.595   1.069  17.225 -0.0832  0.8520 -0.6731
 7092TIP3   OH242766   0.516   2.024  56.779  0.0292  0.0298  0.1342
 7092TIP3    H142767   0.472   2.052  56.699  2.3093 -0.5143 -1.4186
 7092TIP3    H242768   0.512   2.100  56.836  0.5422  1.3590 -1.5048
 7093TIP3   OH242769   2.647   2.267  52.543  0.2159  0.2549  0.2141
 7093TIP3    H142770   2.597   2.314  52.477  0.1460  0.4070  0.3763
 7093TIP3    H242771   2.734   2.255  52.504 -0.4602 -1.6255 -0.8338
 7094TIP3   OH242772   0.593   1.831  50.099 -0.3694  0.0951 -0.1196
 7094TIP3    H142773   0.528   1.779  50.146 -0.3213 -0.3352 -0.5219
 7094TIP3    H242774   0.644   1.874  50.167  0.2549 -1.1858  0.2590
 7095TIP3   OH242775   2.581   2.427  17.312  0.6417 -0.2425 -0.4714
 7095TIP3    H142776   2.667   2.400  17.345  0.8619  1.8517  0.8226
 7095TIP3    H242777   2.600   2.497  17.250 -0.1243 -0.0119 -0.4519
 7096TIP3   OH242778   2.861   0.375   9.482  0.7695  0.4410  0.0686
 7096TIP3    H142779   2.788   0.437   9.490 -0.2768 -0.4090 -2.1834
 7096TIP3    H242780   2.921   0.400   9.552 -1.3155  1.6652  1.5293
 7097TIP3   OH242781   2.347   1.056  51.354  0.7547 -0.1434  0.1254
 7097TIP3    H142782   2.371   1.104  51.434  0.9000 -1.1972  0.7413
 7097TIP3    H242783   2.288   1.114  51.308  0.3969  0.3632  1.1836
 7098TIP3   OH242784   1.754   0.573  67.018 -0.1429 -0.0014 -0.3139
 7098TIP3    H142785   1.763   0.488  67.063  0.0355 -0.0457 -0.4300
 7098TIP3    H242786   1.775   0.638  67.086 -1.4951  0.0095  0.1158
 7099TIP3   OH242787   1.445   2.581  60.504  0.5842  0.3114  0.0221
 7099TIP3    H142788   1.524   2.531  60.522  0.5625 -0.1995 -1.2007
 7099TIP3    H242789   1.441   2.587  60.409 -1.2190 -0.3108  0.0023
 7100TIP3   OH242790   2.075   0.888  49.690 -0.6008 -0.5385  0.1046
 7100TIP3    H142791   2.153   0.849  49.731  0.9854  1.0006 -1.2893
 7100TIP3    H242792   2.083   0.867  49.597  0.2512  2.7462 -0.6921
 7101TIP3   OH242793   0.281   0.027   2.612  0.1804  0.3073 -0.3339
 7101TIP3    H142794   0.263  -0.015   2.696 -0.5244  0.7261 -0.2632
 7101TIP3    H242795   0.344  -0.030   2.569 -0.1436 -0.3883  0.0995
 7102TIP3   OH242796   3.325   3.278   6.710  0.0992 -1.2979  0.3400
 7102TIP3    H142797   3.386   3.238   6.649  0.1553 -1.4997  0.5286
 7102TIP3    H242798   3.370   3.276   6.795 -0.9956 -3.4173  0.9373
 7103TIP3   OH242799   2.618   2.740  51.798 -0.4436 -0.1242 -0.2714
 7103TIP3    H142800   2.690   2.789  51.759  0.2729 -1.0048 -0.0814
 7103TIP3    H242801   2.605   2.666  51.739 -0.5461 -0.4995  0.2187
 7104TIP3   OH242802   3.228   0.251  45.154  0.1171 -0.3168 -0.4399
 7104TIP3    H142803   3.146   0.210  45.126 -0.7034 -0.1120  1.4731
 7104TIP3    H242804   3.249   0.207  45.237  0.5344  1.4331  0.4214
 7105TIP3   OH242805   0.096   1.888  12.441 -0.0202  0.2477  0.4299
 7105TIP3    H142806   0.006   1.862  12.419  0.1004  0.4649 -0.3466
 7105TIP3    H242807   0.086   1.971  12.488 -0.3014 -0.3711  1.4892
 7106TIP3   OH242808   0.545   0.545  37.642  0.3436 -0.4928 -0.1955
 7106TIP3    H142809   0.554   0.450  37.641 -1.9189 -0.8193  1.5998
 7106TIP3    H242810   0.589   0.573  37.722 -0.0376 -0.1848 -0.0861
 7107TIP3   OH242811   0.588   1.926   8.181  0.1357 -0.3853  0.8061
 7107TIP3    H142812   0.662   1.986   8.178  0.7526 -1.1941 -1.1365
 7107TIP3    H242813   0.514   1.981   8.206  1.1642  0.6245  1.7744
 7108TIP3   OH242814   0.310   2.267  12.822 -0.5910 -0.1152 -0.7107
 7108TIP3    H142815   0.230   2.216  12.829 -0.5477 -0.3078 -1.5287
 7108TIP3    H242816   0.379   2.208  12.854 -0.5307 -0.6205 -1.7211
 7109TIP3   OH242817   1.471   2.746  46.962 -0.2593  0.1793  0.1534
 7109TIP3    H142818   1.515   2.817  47.009 -0.7686  0.2020  0.6000
 7109TIP3    H242819   1.442   2.786  46.880  1.3703 -0.0671 -0.5872
 7110TIP3   OH242820   0.699   2.476  19.136  0.2987 -0.2510 -0.3072
 7110TIP3    H142821   0.788   2.510  19.131  0.2755 -0.3622 -2.2916
 7110TIP3    H242822   0.695   2.407  19.069 -1.3123 -0.1405 -0.3713
 7111TIP3   OH242823   2.936   0.857  29.616  0.0516 -0.4238  0.1797
 7111TIP3    H142824   3.016   0.805  29.617 -0.1789 -0.8397  1.9220
 7111TIP3    H242825   2.872   0.802  29.570  0.7997  0.0111 -1.4220
 7112TIP3   OH242826   3.389   2.072  46.209 -0.1392  0.5329  0.1439
 7112TIP3    H142827   3.345   2.056  46.125 -1.3697 -2.4101  1.1951
 7112TIP3    H242828   3.325   2.122  46.260 -0.9301 -0.7972  0.5009
 7113TIP3   OH242829   1.584   1.447  58.294  0.0345  0.2281 -0.6255
 7113TIP3    H142830   1.650   1.415  58.232  0.6590  1.4562 -0.6390
 7113TIP3    H242831   1.515   1.483  58.239  0.5920  1.3248 -0.6599
 7114TIP3   OH242832   0.968   1.480  38.154  0.0603  0.0096  0.0650
 7114TIP3    H142833   0.906   1.481  38.227 -0.9414  1.7645 -0.7448
 7114TIP3    H242834   0.914   1.492  38.076  1.3039  0.4036 -0.7790
 7115TIP3   OH242835   1.791   3.372  51.684 -0.1852  0.2711  0.4463
 7115TIP3    H142836   1.798   3.288  51.638  1.2337 -1.5338  3.6504
 7115TIP3    H242837   1.836   3.435  51.627 -0.0924 -1.3914 -1.4202
 7116TIP3   OH242838   2.252   1.110  45.440  0.3666  0.2278  0.7662
 7116TIP3    H142839   2.269   1.049  45.369 -0.4647  0.7726  0.0806
 7116TIP3    H242840   2.187   1.066  45.495 -0.0489  0.3894  0.4066
 7117TIP3   OH242841   2.549   2.656  60.763  0.3334  0.0123  0.3550
 7117TIP3    H142842   2.637   2.668  60.728  0.3511 -0.8053  0.0933
 7117TIP3    H242843   2.545   2.713  60.839  1.0270  0.2047  0.2517
 7118TIP3   OH242844   0.171   1.705  46.974  0.0963  0.3476 -0.2046
 7118TIP3    H142845   0.140   1.627  46.927  2.0590  1.7303 -4.2932
 7118TIP3    H242846   0.130   1.778  46.928 -1.4977  1.9066  3.3615
 7119TIP3   OH242847   0.877   0.557   9.565 -0.0535  0.4830  0.3387
 7119TIP3    H142848   0.917   0.470   9.558 -1.6596 -0.2770  0.1916
 7119TIP3    H242849   0.925   0.610   9.501  0.6596 -0.4144  0.1064
 7120TIP3   OH242850   1.411   3.438  14.865  0.1667  0.0495 -0.0126
 7120TIP3    H142851   1.492   3.453  14.913  0.4856 -0.1252 -0.4840
 7120TIP3    H242852   1.344   3.484  14.915  0.6373  0.5817  0.1383
 7121TIP3   OH242853   1.589   3.239  19.874  0.7817 -0.5124  0.3441
 7121TIP3    H142854   1.676   3.267  19.844  1.4995 -2.1939  0.6900
 7121TIP3    H242855   1.574   3.288  19.955  0.4655  1.3164 -0.7754
 7122TIP3   OH242856   1.769   2.725  16.596 -0.5445  0.1284 -0.0087
 7122TIP3    H142857   1.797   2.733  16.687 -2.9796 -0.3027  0.8493
 7122TIP3    H242858   1.776   2.632  16.577  1.2402  0.3750 -0.7650
 7123TIP3   OH242859   0.601   0.607  19.289  0.0946  0.6041  0.7587
 7123TIP3    H142860   0.620   0.681  19.231 -0.5085 -0.7429 -1.2646
 7123TIP3    H242861   0.517   0.629  19.330 -0.9295  0.3816 -1.1005
 7124TIP3   OH242862   0.094   0.868  63.251  0.3690 -0.3798 -0.5380
 7124TIP3    H142863   0.015   0.908  63.288  0.0134 -0.4353 -1.2251
 7124TIP3    H242864   0.137   0.939  63.203  0.5873 -0.4243 -0.4129
 7125TIP3   OH242865   0.164   0.101  17.499  0.0972  0.5526  0.6095
 7125TIP3    H142866   0.197   0.118  17.588  0.7206  1.7766  0.1701
 7125TIP3    H242867   0.226   0.146  17.442 -0.2043 -0.3691 -0.4666
 7126TIP3   OH242868   0.578   0.095   0.335 -0.4278 -0.3869 -0.0102
 7126TIP3    H142869   0.519   0.033   0.291  0.9494 -2.4532  0.9100
 7126TIP3    H242870   0.531   0.118   0.415 -0.5837 -0.9572  0.0709
 7127TIP3   OH242871   0.967   2.230  22.554  0.0773 -0.0406  0.1572
 7127TIP3    H142872   1.019   2.161  22.594 -1.8061 -0.0517  2.8073
 7127TIP3    H242873   1.002   2.311  22.590  0.4658  0.2166 -0.7685
 7128TIP3   OH242874   1.755   1.306  47.803  0.4142 -0.2476 -0.3065
 7128TIP3    H142875   1.838   1.264  47.783  0.6642  0.8215 -1.6929
 7128TIP3    H242876   1.722   1.336  47.718 -0.4301  1.0679  0.4472
 7129TIP3   OH242877   2.586   0.501  16.288 -0.2627 -0.9176  0.0941
 7129TIP3    H142878   2.515   0.514  16.224 -1.2956 -0.9707  1.1809
 7129TIP3    H242879   2.653   0.453  16.239 -1.5755 -2.1512 -0.6143
 7130TIP3   OH242880   2.281   3.329  48.658 -0.2453 -0.0860 -0.7130
 7130TIP3    H142881   2.369   3.306  48.629 -0.9312 -0.8806 -2.3091
 7130TIP3    H242882   2.226   3.256  48.628 -1.3534  0.0522  0.8692
 7131TIP3   OH242883   2.124   2.487  17.179  0.0262 -0.2324 -0.1180
 7131TIP3    H142884   2.163   2.437  17.251 -1.1061 -1.2619 -0.1848
 7131TIP3    H242885   2.155   2.576  17.192  0.7883 -0.6370  0.9650
 7132TIP3   OH242886   0.754   2.871  59.085 -0.4225 -0.4718  0.1917
 7132TIP3    H142887   0.742   2.955  59.041 -0.5431 -0.8736 -0.5630
 7132TIP3    H242888   0.751   2.892  59.179  1.1317  0.5931  0.0493
 7133TIP3   OH242889   1.580   0.669  17.438 -0.7008  0.2402  0.1665
 7133TIP3    H142890   1.529   0.629  17.509 -1.0257  0.4625  0.0645
 7133TIP3    H242891   1.532   0.646  17.359 -2.1921  2.6340  0.2468
 7134TIP3   OH242892   0.078   3.024  19.075 -0.1921 -0.1091  0.0859
 7134TIP3    H142893   0.046   3.033  18.986 -0.0281  0.5871  0.0916
 7134TIP3    H242894   0.000   3.004  19.127 -0.2318 -0.8827 -0.2634
 7135TIP3   OH242895   2.053   3.046  54.495  0.3229 -0.5099  0.0402
 7135TIP3    H142896   2.074   2.955  54.474  3.1653 -0.2729  1.3892
 7135TIP3    H242897   2.125   3.075  54.550 -0.7895  2.4239  0.1226
 7136TIP3   OH242898   0.076   3.129  55.646 -0.8768 -0.4108  0.1661
 7136TIP3    H142899   0.057   3.095  55.559  1.0164  1.3146 -1.0191
 7136TIP3    H242900  -0.010   3.155  55.681 -1.6888 -1.2253 -1.1327
 7137TIP3   OH242901   0.720   0.227   7.083 -0.4822 -0.2306 -0.2856
 7137TIP3    H142902   0.733   0.257   7.173  0.9575 -0.9397 -0.2348
 7137TIP3    H242903   0.728   0.306   7.030 -0.4407  0.0480  0.1299
 7138TIP3   OH242904   0.039   0.548  61.060  0.2897  0.4429  0.7870
 7138TIP3    H142905   0.073   0.604  60.990 -0.4177  1.9661  1.6182
 7138TIP3    H242906   0.096   0.471  61.059  1.8081  1.5316  0.1556
 7139TIP3   OH242907   0.402   1.901  45.534  0.2732 -0.6526 -0.2132
 7139TIP3    H142908   0.427   1.993  45.542  0.9962 -1.0012  2.5182
 7139TIP3    H242909   0.463   1.855  45.591 -0.5401 -2.7571 -0.9571
 7140TIP3   OH242910   1.890   1.326  59.364 -0.2946  0.4592  0.0440
 7140TIP3    H142911   1.851   1.319  59.451 -0.2256 -0.2130  0.0221
 7140TIP3    H242912   1.816   1.349  59.307 -0.5547 -0.2094  0.1015
 7141TIP3   OH242913   1.668   1.306  21.799 -0.0089  0.4109 -0.4329
 7141TIP3    H142914   1.685   1.333  21.708 -0.6492  1.1694 -0.3338
 7141TIP3    H242915   1.741   1.344  21.848  0.2482  0.1433 -0.6017
 7142TIP3   OH242916   0.136   1.605  63.612  0.4416  0.5574 -0.0250
 7142TIP3    H142917   0.103   1.593  63.523  2.0796  0.2744 -0.6297
 7142TIP3    H242918   0.193   1.682  63.606 -1.0066  1.7825  1.2613
 7143TIP3   OH242919   2.997   2.399   8.194  0.2782  0.3056 -0.3624
 7143TIP3    H142920   2.915   2.435   8.160  0.2349 -0.8968 -1.5877
 7143TIP3    H242921   3.038   2.473   8.240 -1.1613  1.1009 -0.2919
 7144TIP3   OH242922   2.016   0.806  20.831 -0.4573  0.0175  0.1233
 7144TIP3    H142923   2.008   0.776  20.741 -0.5265 -0.3492  0.2479
 7144TIP3    H242924   2.089   0.868  20.831  2.3866 -3.0676  0.5839
 7145TIP3   OH242925   2.830   3.089  43.967 -0.0658  0.3472  0.1797
 7145TIP3    H142926   2.827   3.097  44.063 -0.9658 -1.4243  0.3450
 7145TIP3    H242927   2.801   3.000  43.950  1.8398  0.0213 -1.6884
 7146TIP3   OH242928   3.316   2.383  21.246 -0.1475  0.3173  0.4418
 7146TIP3    H142929   3.340   2.453  21.308  1.8906 -0.4606  0.6058
 7146TIP3    H242930   3.227   2.359  21.271 -0.3222  1.7851  1.3805
 7147TIP3   OH242931   0.336   2.289  47.627  0.0290  0.3463  0.0146
 7147TIP3    H142932   0.366   2.375  47.598  0.4478 -0.3026 -1.6244
 7147TIP3    H242933   0.383   2.228  47.570 -0.0356 -0.9919  1.3398
 7148TIP3   OH242934   2.436   1.845  47.874  0.3059  0.6022  0.6732
 7148TIP3    H142935   2.367   1.780  47.888 -0.6505  1.6620  1.0368
 7148TIP3    H242936   2.512   1.811  47.921 -0.4960  0.2405  1.7442
 7149TIP3   OH242937   3.126   0.217  13.673  0.0663 -0.3545  0.5514
 7149TIP3    H142938   3.217   0.247  13.677  0.6719 -1.7592 -1.2373
 7149TIP3    H242939   3.082   0.279  13.615  0.0549 -0.1058  0.8221
 7150TIP3   OH242940   0.043   3.274  59.709  0.4945  0.1386 -0.1970
 7150TIP3    H142941   0.025   3.356  59.755  0.8842  1.1597 -1.7931
 7150TIP3    H242942  -0.037   3.255  59.660  0.0225 -1.0286  0.9677
 7151TIP3   OH242943   2.217   0.508   9.678  0.0069 -1.2070 -0.0348
 7151TIP3    H142944   2.131   0.522   9.637  0.2463  1.1013  0.1643
 7151TIP3    H242945   2.280   0.530   9.610  0.4425 -1.0646  0.4112
 7152TIP3   OH242946   2.625   2.277  20.295 -0.1014 -0.1593 -0.1570
 7152TIP3    H142947   2.537   2.299  20.328 -0.2303 -0.3575 -0.3673
 7152TIP3    H242948   2.680   2.349  20.326 -0.0132 -0.8380  1.3545
 7153TIP3   OH242949   2.960   3.071  14.646 -0.3500  0.3548 -0.0029
 7153TIP3    H142950   2.893   3.115  14.699 -0.5667 -0.1125  0.1106
 7153TIP3    H242951   3.006   3.015  14.707  1.0431  1.6629  0.2048
 7154TIP3   OH242952   2.293   2.866  57.390 -0.0847 -0.4813  0.3534
 7154TIP3    H142953   2.334   2.923  57.325 -1.5783 -2.3314 -2.4008
 7154TIP3    H242954   2.297   2.916  57.471  0.1259  2.8389 -1.5291
 7155TIP3   OH242955   0.417   2.053  43.075  0.4019 -0.4095  0.1281
 7155TIP3    H142956   0.406   1.974  43.021  1.3237 -1.3895  1.2915
 7155TIP3    H242957   0.487   2.030  43.136 -1.5202  0.0831  2.7035
 7156TIP3   OH242958   1.965   1.894   9.604 -0.3836 -0.3166 -0.7225
 7156TIP3    H142959   2.009   1.905   9.689 -1.6098 -0.7498 -0.0085
 7156TIP3    H242960   1.969   1.800   9.586 -2.7139 -0.7034  0.3554
 7157TIP3   OH242961   1.018   2.641  34.683  0.3548  0.6565  0.2876
 7157TIP3    H142962   1.047   2.610  34.769 -1.8209  1.1092  1.2644
 7157TIP3    H242963   0.993   2.732  34.697 -1.4185  0.3354 -0.4017
 7158TIP3   OH242964   2.635   0.410  30.976 -0.3229 -0.1731  0.1039
 7158TIP3    H142965   2.686   0.465  31.036 -0.8061 -0.9259  1.2253
 7158TIP3    H242966   2.544   0.419  31.006 -0.7015  0.1331 -1.0737
 7159TIP3   OH242967   1.297   1.819  48.273  0.0594  0.1541  0.4195
 7159TIP3    H142968   1.273   1.726  48.281 -0.8889  0.4738  1.7837
 7159TIP3    H242969   1.266   1.858  48.355  0.4418  1.6823 -0.1359
 7160TIP3   OH242970   2.051   2.983   6.779  0.4174  0.1199  0.8442
 7160TIP3    H142971   2.073   3.052   6.718 -0.2139 -0.0602  0.3993
 7160TIP3    H242972   2.078   3.016   6.865  2.1693 -0.0032  0.3736
 7161TIP3   OH242973   0.458   0.417   2.963  0.3731 -0.3346  0.6006
 7161TIP3    H142974   0.450   0.491   2.903 -0.0569 -0.0880  0.9584
 7161TIP3    H242975   0.521   0.447   3.028 -1.0572  0.3844  1.7084
 7162TIP3   OH242976   2.691   3.271  26.204 -0.3838  0.0437 -0.0223
 7162TIP3    H142977   2.636   3.196  26.180 -0.9608  0.6892 -0.7408
 7162TIP3    H242978   2.730   3.245  26.287 -0.3043 -1.2013 -0.4261
 7163TIP3   OH242979   0.677   2.399  42.517  0.2896  0.3764 -0.5578
 7163TIP3    H142980   0.638   2.474  42.562 -2.7289 -1.0574 -0.5692
 7163TIP3    H242981   0.682   2.426  42.425 -1.0299  0.4979 -0.6088
 7164TIP3   OH242982   3.024   0.031  28.702  0.3179 -0.4879  0.3825
 7164TIP3    H142983   3.107   0.065  28.668  1.0426 -1.5434  1.0396
 7164TIP3    H242984   3.027   0.047  28.796 -0.5518  0.0865  0.3319
 7165TIP3   OH242985   1.656   2.377   6.401 -0.2594 -0.0601  0.2431
 7165TIP3    H142986   1.657   2.438   6.475  0.9996  1.2635 -0.8091
 7165TIP3    H242987   1.634   2.292   6.441 -1.3045  0.9121  1.8576
 7166TIP3   OH242988   3.094   2.451  21.676 -0.3367 -0.1271  0.2150
 7166TIP3    H142989   3.075   2.526  21.734 -0.7162 -0.5249  0.6167
 7166TIP3    H242990   3.145   2.392  21.731 -1.8498 -1.1297  0.6103
 7167TIP3   OH242991   0.749   1.977  54.829 -0.2856  0.1429 -0.1897
 7167TIP3    H142992   0.727   1.887  54.853 -1.3940  0.7681  1.2986
 7167TIP3    H242993   0.743   1.978  54.733  1.2474 -1.7057 -0.3814
 7168TIP3   OH242994   0.282   0.532  50.894 -0.0286 -0.2807  0.0790
 7168TIP3    H142995   0.375   0.519  50.872 -0.4862 -0.3024 -2.1001
 7168TIP3    H242996   0.259   0.615  50.851 -0.6422  0.5907  1.9926
 7169TIP3   OH242997   0.418   1.738   3.873  0.1997  0.0654  0.5193
 7169TIP3    H142998   0.469   1.759   3.794 -0.2493 -2.0412 -0.4020
 7169TIP3    H242999   0.444   1.649   3.895 -1.6729 -0.3639  1.1713
 7170TIP3   OH243000   1.641   3.168  35.397 -0.3502  0.3152  0.0359
 7170TIP3    H143001   1.693   3.133  35.468 -1.5256 -0.1787  0.6870
 7170TIP3    H243002   1.573   3.220  35.440  0.4102  2.1250 -0.8451
 7171TIP3   OH243003   2.487   2.271  66.628 -0.2069 -0.4886 -0.1726
 7171TIP3    H143004   2.456   2.215  66.699  1.3886 -1.2997 -0.0734
 7171TIP3    H243005   2.582   2.260  66.628  0.1389  1.9031 -0.4365
 7172TIP3   OH243006   0.489   0.702   9.219  0.5777 -0.3509 -0.4695
 7172TIP3    H143007   0.539   0.777   9.252  1.0184  0.1830 -2.2441
 7172TIP3    H243008   0.412   0.742   9.178 -1.4091 -1.1517  2.2160
 7173TIP3   OH243009   2.418   0.436  12.629  0.1315  0.1205 -0.1389
 7173TIP3    H143010   2.386   0.462  12.543  0.9358  2.3883  0.1722
 7173TIP3    H243011   2.350   0.467  12.690 -0.6447 -1.8470  0.0818
 7174TIP3   OH243012   2.870   1.216  49.281 -0.5295  0.0696  0.4178
 7174TIP3    H143013   2.959   1.235  49.311 -0.4763  2.0485 -0.8255
 7174TIP3    H243014   2.882   1.177  49.194 -0.8712  0.4518  0.1969
 7175TIP3   OH243015   2.591   1.315  58.658 -0.7779 -0.3195  0.6243
 7175TIP3    H143016   2.551   1.308  58.571  0.3326 -1.6795  0.1753
 7175TIP3    H243017   2.564   1.401  58.690 -0.7980  0.4326 -1.2737
 7176TIP3   OH243018   0.099   0.267   2.425 -0.5173 -0.6544  0.3454
 7176TIP3    H143019   0.033   0.247   2.360 -0.7578 -0.5627  0.5591
 7176TIP3    H243020   0.087   0.200   2.493 -1.2073  0.0857  0.9757
 7177TIP3   OH243021   0.713   0.247  15.217 -0.5313  0.5792 -0.9795
 7177TIP3    H143022   0.681   0.157  15.225  2.4330 -0.5824 -0.8237
 7177TIP3    H243023   0.743   0.254  15.127  1.1669  0.6425 -0.4484
 7178TIP3   OH243024   2.510   0.342  47.114  0.3755 -0.0808 -0.0727
 7178TIP3    H143025   2.579   0.323  47.051 -2.1393 -1.6016 -2.5690
 7178TIP3    H243026   2.458   0.411  47.072 -1.1090 -0.8126  0.5084
 7179TIP3   OH243027   2.415   3.051   3.103  0.1755  0.1563 -0.2432
 7179TIP3    H143028   2.458   3.048   3.017  0.9209  1.3344  0.0665
 7179TIP3    H243029   2.331   3.094   3.085 -0.6472 -1.5429 -0.7285
 7180TIP3   OH243030   2.576   0.414   6.480 -0.0757 -0.1870 -0.8672
 7180TIP3    H143031   2.646   0.478   6.498  1.2034 -1.2985 -1.6295
 7180TIP3    H243032   2.499   0.467   6.463 -0.2105  1.0381  2.8129
 7181TIP3   OH243033   0.986   2.232  64.853  0.1520  0.3245 -0.0336
 7181TIP3    H143034   0.918   2.269  64.910 -1.4731 -1.0887 -0.9598
 7181TIP3    H243035   1.002   2.145  64.889  2.7527  1.1888  1.1607
 7182TIP3   OH243036   2.794   2.149  18.332  0.1627 -0.3079  0.1826
 7182TIP3    H143037   2.850   2.098  18.273 -1.3381 -0.2217 -1.3740
 7182TIP3    H243038   2.847   2.226  18.354  0.8928 -0.5153 -0.7767
 7183TIP3   OH243039   1.263   0.734  57.019  0.2210  0.2615  0.2087
 7183TIP3    H143040   1.294   0.741  56.929 -0.6439  0.9524 -0.0477
 7183TIP3    H243041   1.316   0.797  57.068  0.6370 -0.0583  0.1671
 7184TIP3   OH243042   0.518   0.830  50.865 -0.0107 -0.1908  0.3493
 7184TIP3    H143043   0.529   0.743  50.827 -1.1539 -0.2870  0.2079
 7184TIP3    H243044   0.425   0.849  50.855 -0.3450 -0.1461  2.9123
 7185TIP3   OH243045   2.734   2.283  44.684  0.2331 -0.7135  0.2610
 7185TIP3    H143046   2.640   2.297  44.697 -0.0330 -2.3233  0.2346
 7185TIP3    H243047   2.773   2.301  44.770 -0.4172 -2.4464  0.9556
 7186TIP3   OH243048   0.561   3.156   1.488  0.2699  0.0568 -0.0082
 7186TIP3    H143049   0.578   3.197   1.403  0.7266 -0.5534 -0.2140
 7186TIP3    H243050   0.585   3.223   1.552  0.7290  0.2194 -0.3462
 7187TIP3   OH243051   3.229   1.105  52.099  0.1495  0.0234 -0.3723
 7187TIP3    H143052   3.189   1.191  52.093  1.3314  0.6791  0.6088
 7187TIP3    H243053   3.271   1.092  52.014 -0.7595  0.0318 -0.8268
 7188TIP3   OH243054   0.188   1.300  16.200  0.2006 -0.8433  0.1649
 7188TIP3    H143055   0.207   1.214  16.237  1.8348 -0.4591  0.3142
 7188TIP3    H243056   0.144   1.281  16.117  2.7895 -1.9826 -1.0734
 7189TIP3   OH243057   0.999   1.582  12.437 -0.0342  0.0648 -0.1615
 7189TIP3    H143058   0.939   1.634  12.384  0.0268  0.3358  0.0335
 7189TIP3    H243059   0.967   1.492  12.428  0.3745  0.0161 -1.1874
 7190TIP3   OH243060   1.625   3.033  48.985  0.2480 -0.1053  0.5083
 7190TIP3    H143061   1.606   2.978  48.910  1.6149 -0.0117  0.0743
 7190TIP3    H243062   1.688   2.983  49.037 -1.7773 -0.8392  2.4299
 7191TIP3   OH243063   2.193   2.852  53.989 -0.2054 -0.2448 -0.0126
 7191TIP3    H143064   2.208   2.944  53.968  1.5680 -1.1739 -3.4915
 7191TIP3    H243065   2.156   2.815  53.909 -0.4951 -2.6699  1.1663
 7192TIP3   OH243066   1.025   1.706  43.204  0.0774 -0.4017  0.4722
 7192TIP3    H143067   1.100   1.739  43.156  0.2910 -0.2794  0.8872
 7192TIP3    H243068   0.952   1.711  43.141  0.5829 -1.3142 -0.2013
 7193TIP3   OH243069   0.214   2.049   0.655 -0.2510  0.1539 -0.0289
 7193TIP3    H143070   0.270   2.055   0.732 -0.7667 -1.7503  0.5360
 7193TIP3    H243071   0.272   2.019   0.585 -0.1814  0.0001  0.0959
 7194TIP3   OH243072   0.093   2.593  16.557  0.0240 -0.0024  0.1444
 7194TIP3    H143073   0.021   2.607  16.496  0.5154  0.0420 -0.4341
 7194TIP3    H243074   0.050   2.574  16.641 -0.7135 -2.6471 -0.7266
 7195TIP3   OH243075   3.259   1.096  12.972  0.4072  0.3341  0.2640
 7195TIP3    H143076   3.325   1.133  13.031  0.3739  1.7622 -0.5501
 7195TIP3    H243077   3.310   1.051  12.905  0.5013  0.1290  0.4728
 7196TIP3   OH243078   0.475   1.759  63.793  0.1980  0.0293 -0.4549
 7196TIP3    H143079   0.421   1.838  63.794  0.1492  0.0195  1.6052
 7196TIP3    H243080   0.443   1.709  63.718 -1.5040  0.8068 -0.2906
 7197TIP3   OH243081   0.482   0.856  21.225 -0.4623  0.6393  0.1281
 7197TIP3    H143082   0.489   0.847  21.320 -0.1340  0.7317  0.1147
 7197TIP3    H243083   0.506   0.947  21.208 -0.4794  0.6113 -0.0461
 7198TIP3   OH243084   3.427   1.489   2.114 -0.1042  0.5913 -0.2071
 7198TIP3    H143085   3.371   1.430   2.064  0.7731  1.2343 -2.0278
 7198TIP3    H243086   3.466   1.434   2.181 -1.6829 -0.1931  0.1250
 7199TIP3   OH243087   1.946   3.388  47.517 -0.3460  0.1455  0.0652
 7199TIP3    H143088   1.975   3.446  47.446 -1.2378  0.2609 -0.2254
 7199TIP3    H243089   1.870   3.433  47.554 -0.3495 -0.2890  0.5935
 7200TIP3   OH243090   1.443   0.656  47.182 -0.4579  0.2910  0.3098
 7200TIP3    H143091   1.525   0.698  47.155  0.4029 -1.8969 -0.6501
 7200TIP3    H243092   1.471   0.578  47.229 -2.0216  0.7245  2.0629
 7201TIP3   OH243093   0.329   0.292  50.449  0.1664  0.1573  0.2438
 7201TIP3    H143094   0.277   0.367  50.477 -0.9006 -0.6151  0.4022
 7201TIP3    H243095   0.388   0.328  50.382  0.9048  1.4730  1.5516
 7202TIP3   OH243096   2.617   0.698  20.406 -0.9091 -0.0637 -0.2574
 7202TIP3    H143097   2.624   0.777  20.460 -0.0025  0.1333 -0.6508
 7202TIP3    H243098   2.576   0.727  20.325  0.1432  0.1657 -0.7145
 7203TIP3   OH243099   2.646   3.039   9.865 -0.2653 -0.4497 -0.2410
 7203TIP3    H143100   2.741   3.025   9.864 -0.3943 -2.0129 -2.7708
 7203TIP3    H243101   2.628   3.088   9.785 -1.6822 -1.4832 -0.6137
 7204TIP3   OH243102   0.696   1.262  36.730  0.2820  0.0653  0.3353
 7204TIP3    H143103   0.628   1.316  36.691 -1.1508  0.2683  2.8991
 7204TIP3    H243104   0.721   1.200  36.660 -2.0856  0.3794 -0.8718
 7205TIP3   OH243105   2.983   1.643  44.163 -0.2008  0.2543  0.0398
 7205TIP3    H143106   2.903   1.632  44.111 -0.3072  1.1327 -0.0026
 7205TIP3    H243107   2.952   1.674  44.248 -0.1438 -2.4969  1.1613
 7206TIP3   OH243108   1.519   2.781  42.483  0.2315 -0.4945  0.2623
 7206TIP3    H143109   1.423   2.783  42.478  0.3032 -0.1955 -1.7678
 7206TIP3    H243110   1.544   2.873  42.489  0.4175 -0.5547  0.4152
 7207TIP3   OH243111   2.618   2.060  20.113  0.1009 -0.2453  0.6351
 7207TIP3    H143112   2.551   2.076  20.047  1.8190 -1.0016 -1.4097
 7207TIP3    H243113   2.629   2.144  20.157 -1.8306 -0.0004  0.7215
 7208TIP3   OH243114   0.555   2.570  43.450  0.3830  0.6119  0.3353
 7208TIP3    H143115   0.613   2.501  43.416  0.5149  0.4043  0.9776
 7208TIP3    H243116   0.467   2.543  43.422  0.6835  1.5252 -1.6526
 7209TIP3   OH243117   2.996   2.649   3.185 -0.1057 -0.6499  0.5764
 7209TIP3    H143118   2.927   2.587   3.207  0.3085 -1.3123  0.0547
 7209TIP3    H243119   2.959   2.735   3.206 -1.8200 -0.8019 -1.4928
 7210TIP3   OH243120   2.141   1.769  54.004  0.0607  0.1820 -0.1966
 7210TIP3    H143121   2.094   1.706  53.950 -0.5324  1.0362 -0.6771
 7210TIP3    H243122   2.232   1.760  53.977 -0.1642  0.2487 -0.9766
 7211TIP3   OH243123   0.149   2.546  52.747  0.2248  0.3922 -0.0369
 7211TIP3    H143124   0.206   2.615  52.713 -0.3531 -1.3946 -5.5953
 7211TIP3    H243125   0.200   2.465  52.738 -1.2433 -0.6161  0.1823
 7212TIP3   OH243126   3.073   2.793  28.373 -0.5501  0.0161  0.2469
 7212TIP3    H143127   3.121   2.798  28.291  0.0575  1.8874  0.6661
 7212TIP3    H243128   3.092   2.706  28.407 -0.6343 -0.7118 -1.4585
 7213TIP3   OH243129   2.020   0.137  15.844  0.0487  0.2367  0.0130
 7213TIP3    H143130   1.979   0.067  15.895  0.0522 -0.3637 -0.7814
 7213TIP3    H243131   2.035   0.098  15.758 -1.2664  1.6345 -0.9039
 7214TIP3   OH243132   0.013   1.686  20.163  0.3682  0.4432  0.1290
 7214TIP3    H143133   0.017   1.625  20.090 -1.1659  0.4765 -0.0249
 7214TIP3    H243134  -0.044   1.643  20.227 -1.5944  2.0573 -0.4093
 7215TIP3   OH243135   0.898   2.586   8.307 -0.6141  0.4144  0.2218
 7215TIP3    H143136   0.929   2.592   8.216  1.8049 -1.4363  0.8228
 7215TIP3    H243137   0.885   2.492   8.321 -0.4853  0.6265  1.9165
 7216TIP3   OH243138   3.296   1.123  65.132  0.0316  0.1772 -0.2994
 7216TIP3    H143139   3.275   1.030  65.139  0.1414 -0.2263 -3.5483
 7216TIP3    H243140   3.352   1.141  65.207 -0.2410 -2.2987  0.5875
 7217TIP3   OH243141   2.507   1.391  50.491 -0.6001  0.1880 -0.3019
 7217TIP3    H143142   2.499   1.379  50.396 -0.9873 -1.5488 -0.0773
 7217TIP3    H243143   2.601   1.393  50.507 -0.5287 -0.0827 -0.6661
 7218TIP3   OH243144   2.073   3.223  15.970  0.1578 -0.1310  0.0146
 7218TIP3    H143145   2.049   3.172  15.893  0.5346 -0.9047  0.4033
 7218TIP3    H243146   2.168   3.232  15.964  0.1689 -0.0466  0.3017
 7219TIP3   OH243147   1.211   2.827  35.949 -0.3437 -0.1976 -0.3011
 7219TIP3    H143148   1.306   2.834  35.939 -0.3045 -1.1767 -0.8015
 7219TIP3    H243149   1.175   2.895  35.892  0.0455 -0.6363 -1.0945
 7220TIP3   OH243150   2.449   2.651  64.199 -0.4482  0.4651 -0.6247
 7220TIP3    H143151   2.391   2.645  64.275 -1.5030  1.1268 -1.3328
 7220TIP3    H243152   2.394   2.625  64.125  0.2496  0.8116 -1.2817
 7221TIP3   OH243153   0.384   2.330  51.806 -0.1048  0.0081 -0.0293
 7221TIP3    H143154   0.374   2.345  51.901 -0.2226 -0.5638  0.0528
 7221TIP3    H243155   0.478   2.326  51.792 -0.0952 -0.9544  0.2427
 7222TIP3   OH243156   3.052   3.325  18.251  0.8965  0.5400  0.4359
 7222TIP3    H143157   3.147   3.324  18.260  0.9060  0.2152  0.3358
 7222TIP3    H243158   3.031   3.240  18.211  0.4697  0.1863  1.3756
 7223TIP3   OH243159   1.190   3.378  58.271 -0.3550  0.2297  0.5992
 7223TIP3    H143160   1.249   3.306  58.289 -1.2344 -0.3201  1.3494
 7223TIP3    H243161   1.120   3.339  58.218  0.5882  1.1527 -1.4617
 7224TIP3   OH243162   2.066   0.275  49.087 -0.1807 -0.1933  0.0384
 7224TIP3    H143163   1.993   0.231  49.044  1.3587 -0.8556 -1.9974
 7224TIP3    H243164   2.087   0.219  49.162  0.2870 -1.7297 -1.2069
 7225TIP3   OH243165   2.932   1.385  44.465 -0.0102 -0.3388 -0.5109
 7225TIP3    H143166   2.906   1.346  44.382 -0.1877 -0.5017 -0.3759
 7225TIP3    H243167   2.977   1.315  44.512  0.5129 -0.1155 -0.6601
 7226TIP3   OH243168   0.473   3.446  62.133 -0.1986  0.8374 -0.7732
 7226TIP3    H143169   0.424   3.525  62.156 -0.7925  0.8634 -2.0624
 7226TIP3    H243170   0.524   3.471  62.056  0.3053  0.2205 -0.6488
 7227TIP3   OH243171   0.785   1.057  54.614 -0.2535  0.5230 -0.1405
 7227TIP3    H143172   0.743   1.126  54.665 -1.1437 -0.1636  0.0926
 7227TIP3    H243173   0.793   0.984  54.676  0.3517  0.2917 -0.4764
 7228TIP3   OH243174   3.082   2.384  46.203 -0.1346 -0.5502  0.6843
 7228TIP3    H143175   3.002   2.345  46.168 -0.4896 -1.3547  2.3412
 7228TIP3    H243176   3.054   2.465  46.245  0.4759  1.1547 -1.9094
 7229TIP3   OH243177   3.264   3.124  55.845  0.4660  0.0848 -0.1470
 7229TIP3    H143178   3.201   3.159  55.781 -0.7468 -0.1883  0.8704
 7229TIP3    H243179   3.305   3.202  55.882 -0.7186  0.3863  0.6029
 7230TIP3   OH243180   2.616   1.932  19.036 -0.2899  0.0105  0.0113
 7230TIP3    H143181   2.592   1.861  18.976  0.2251  0.8682 -1.2607
 7230TIP3    H243182   2.598   2.012  18.986  1.7757  0.7413  0.3492
 7231TIP3   OH243183   0.786   3.315  51.402  0.2333  0.1068  0.0654
 7231TIP3    H143184   0.845   3.252  51.360  1.7562  0.9828  0.8078
 7231TIP3    H243185   0.817   3.400  51.370 -0.3751  0.6060  0.7895
 7232TIP3   OH243186   3.275   0.548  12.243  0.2176 -0.1405  0.7461
 7232TIP3    H143187   3.274   0.454  12.260  1.9350 -0.1163  1.2190
 7232TIP3    H243188   3.214   0.585  12.306  0.2392 -0.8617  1.2047
 7233TIP3   OH243189   2.718   1.641  43.411  0.4804  0.3208  0.9034
 7233TIP3    H143190   2.770   1.701  43.357  0.9749 -0.0634  0.9438
 7233TIP3    H243191   2.628   1.656  43.383  0.4576  1.9367  1.7355
 7234TIP3   OH243192   1.546   2.252  50.414 -0.0888 -0.4683  0.1904
 7234TIP3    H143193   1.490   2.319  50.454  0.2992  0.2473 -0.4384
 7234TIP3    H243194   1.538   2.176  50.472 -0.6730  0.0631  0.8203
 7235TIP3   OH243195   0.162   2.503  42.769  0.0469 -0.1354  0.5965
 7235TIP3    H143196   0.229   2.569  42.754  1.3988 -1.3217  1.1948
 7235TIP3    H243197   0.203   2.420  42.744 -1.9988 -0.6862 -1.2919
 7236TIP3   OH243198   1.750   0.117  21.746  0.4812  0.3053 -0.9614
 7236TIP3    H143199   1.754   0.062  21.824  0.3622  1.3948 -0.1624
 7236TIP3    H243200   1.751   0.055  21.673  0.8082 -0.7280 -0.1108
 7237TIP3   OH243201   0.230   0.770  29.033  0.3164  0.6052  0.7617
 7237TIP3    H143202   0.276   0.853  29.048 -0.5244  0.9033  1.8162
 7237TIP3    H243203   0.275   0.707  29.089 -0.3019  0.8133  1.5069
 7238TIP3   OH243204   0.937   1.239  16.761 -0.1038 -0.3339 -0.4809
 7238TIP3    H143205   0.868   1.238  16.828  0.8051  0.6138  0.5073
 7238TIP3    H243206   0.939   1.330  16.730  0.6834 -0.3493 -0.4989
 7239TIP3   OH243207   2.994   0.157  50.937  0.0250 -0.0495  0.0345
 7239TIP3    H143208   3.000   0.069  50.900 -3.6738  0.4889 -2.2890
 7239TIP3    H243209   2.949   0.144  51.021  1.4214 -0.4999  0.7500
 7240TIP3   OH243210   0.458   1.033  66.507  0.2246 -0.4434 -0.1871
 7240TIP3    H143211   0.522   1.045  66.577  0.5317 -2.1941 -0.1248
 7240TIP3    H243212   0.488   1.090  66.436  1.2303 -0.4116  0.2527
 7241TIP3   OH243213   2.870   1.168  65.435 -0.5517  0.4365  0.5751
 7241TIP3    H143214   2.872   1.263  65.425 -0.9008  0.4709  0.8178
 7241TIP3    H243215   2.777   1.145  65.431 -0.4518  0.0737  0.2325
 7242TIP3   OH243216   2.126   2.742  17.275 -0.7500  0.2691  1.0404
 7242TIP3    H143217   2.033   2.720  17.284 -0.7647  0.4477  1.3558
 7242TIP3    H243218   2.143   2.802  17.348 -0.3538  0.1356  1.0578
 7243TIP3   OH243219   0.133   1.180  11.337 -0.2343 -0.0825  0.2390
 7243TIP3    H143220   0.130   1.250  11.271  0.4041 -1.0068 -0.8052
 7243TIP3    H243221   0.174   1.221  11.413  0.6541  0.5420 -0.5476
 7244TIP3   OH243222   1.820   1.445  62.875  0.6141 -0.2643  0.6095
 7244TIP3    H143223   1.847   1.357  62.903  0.0874 -0.9564 -0.9142
 7244TIP3    H243224   1.729   1.433  62.846  0.4315  0.8671  0.6894
 7245TIP3   OH243225   2.066   1.323   2.396  0.2801  0.1992 -0.0339
 7245TIP3    H143226   2.105   1.254   2.343 -0.2545  0.3548 -0.6438
 7245TIP3    H243227   2.110   1.403   2.367 -0.5984  0.4049 -0.8704
 7246TIP3   OH243228   2.038   0.672  52.667  0.1280  0.5997  0.7823
 7246TIP3    H143229   2.052   0.668  52.762 -1.9540 -0.9702  1.0938
 7246TIP3    H243230   1.943   0.673  52.657  0.3040  0.2902 -1.3043
 7247TIP3   OH243231   2.337   3.418   1.705  0.4245  0.0454  0.1896
 7247TIP3    H143232   2.310   3.464   1.626  1.4465  0.6442  0.1602
 7247TIP3    H243233   2.364   3.332   1.675  1.3598  0.4629 -0.2320
 7248TIP3   OH243234   1.908   1.021  52.303 -0.4059 -0.4897 -0.4334
 7248TIP3    H143235   1.979   0.973  52.346 -0.0313  1.0791  0.8051
 7248TIP3    H243236   1.828   0.989  52.344 -0.2539 -0.8149 -0.3862
 7249TIP3   OH243237   1.497   0.045  65.357  0.2583 -0.0791 -0.3283
 7249TIP3    H143238   1.567   0.002  65.406 -2.6961 -2.3487  2.3626
 7249TIP3    H243239   1.489   0.131  65.398  0.1393 -0.6248  0.8406
 7250TIP3   OH243240   1.878   0.875  13.673  0.1663  0.4756 -0.4341
 7250TIP3    H143241   1.963   0.847  13.707 -0.3903 -0.3534  0.3441
 7250TIP3    H243242   1.848   0.801  13.620 -0.7037  0.1151  0.5093
 7251TIP3   OH243243   2.996   2.560  66.029  0.1399  0.1723  0.5660
 7251TIP3    H143244   2.951   2.552  66.113 -0.5960 -1.0052  0.0998
 7251TIP3    H243245   2.946   2.502  65.970  2.0907 -0.9970 -0.0450
 7252TIP3   OH243246   1.369   2.288  59.468 -0.2799 -0.0361  0.0328
 7252TIP3    H143247   1.325   2.367  59.499 -1.0515 -0.8517  1.0739
 7252TIP3    H243248   1.450   2.285  59.518 -0.1822  0.1611 -0.1097
 7253TIP3   OH243249   2.913   3.277  29.316 -0.3667  0.1658 -0.5502
 7253TIP3    H143250   2.896   3.324  29.235 -1.2218 -0.4675 -0.7505
 7253TIP3    H243251   2.826   3.249  29.346  0.2424 -3.9943 -2.0762
 7254TIP3   OH243252   1.299   0.985   2.635  0.4648 -0.1750  0.6614
 7254TIP3    H143253   1.222   1.034   2.663  0.6018 -0.6534  1.9101
 7254TIP3    H243254   1.335   0.948   2.715  1.2780 -1.0005 -0.0599
 7255TIP3   OH243255   1.091   2.599  13.222 -0.1989  0.5162  0.0449
 7255TIP3    H143256   1.097   2.524  13.162  0.5896  0.8990 -0.3654
 7255TIP3    H243257   1.050   2.668  13.171 -1.9548  0.0572  0.7532
 7256TIP3   OH243258   2.350   0.481  13.590  0.0175  0.0175  0.1838
 7256TIP3    H143259   2.302   0.420  13.646  2.3262 -1.8365  0.3192
 7256TIP3    H243260   2.436   0.439  13.578  1.2801  2.6832 -0.7698
 7257TIP3   OH243261   1.518   1.704  53.170  0.7111 -0.5997 -0.3087
 7257TIP3    H143262   1.555   1.677  53.086 -0.1131 -0.2597 -0.7963
 7257TIP3    H243263   1.426   1.724  53.150 -0.0070 -2.3360  1.0400
 7258TIP3   OH243264   3.237   0.506   0.344  0.0449  0.3952  0.1332
 7258TIP3    H143265   3.220   0.597   0.320 -2.3087  0.5410  1.9690
 7258TIP3    H243266   3.329   0.505   0.373  1.1143  1.4084 -2.8813
 7259TIP3   OH243267   0.456   1.325   3.070  0.1530 -0.2388  0.1615
 7259TIP3    H143268   0.371   1.367   3.075  0.5886  0.5971  0.7826
 7259TIP3    H243269   0.482   1.335   2.978 -0.6352 -0.9684 -0.1546
 7260TIP3   OH243270   0.861   0.177  43.906  0.3063  0.1952 -0.2400
 7260TIP3    H143271   0.867   0.263  43.866 -0.7324  1.0469  1.3424
 7260TIP3    H243272   0.891   0.116  43.838  1.6743  1.8328 -1.1649
 7261TIP3   OH243273   2.549   1.304  48.961  0.5130 -1.0177 -0.3738
 7261TIP3    H143274   2.540   1.214  48.929 -0.2184 -0.5951 -1.4179
 7261TIP3    H243275   2.574   1.355  48.883  0.4235 -0.2404  0.0936
 7262TIP3   OH243276   2.009   0.202   1.583  0.1295  0.4589 -0.5482
 7262TIP3    H143277   1.952   0.228   1.656  1.2687 -0.0162  0.5413
 7262TIP3    H243278   1.949   0.194   1.508 -0.8940  2.1180  0.0194
 7263TIP3   OH243279   2.789   0.773  51.684  0.3702 -0.1313  0.2871
 7263TIP3    H143280   2.780   0.865  51.658  0.2167 -0.2696 -0.1444
 7263TIP3    H243281   2.822   0.729  51.606 -3.6252 -1.2591 -0.9503
 7264TIP3   OH243282   1.580   0.945  65.697  0.0558  0.2007  0.5593
 7264TIP3    H143283   1.612   0.893  65.771 -0.6470 -0.2859  0.5186
 7264TIP3    H243284   1.534   0.883  65.641 -0.2665  0.7508  0.2060
 7265TIP3   OH243285   2.115   2.496  47.505  0.5494 -0.1320 -0.6166
 7265TIP3    H143286   2.202   2.456  47.494  0.1745 -0.8243 -1.1530
 7265TIP3    H243287   2.054   2.431  47.469 -0.4189 -0.7050  1.8866
 7266TIP3   OH243288   1.259   0.252   1.638  0.4862 -0.0197  0.1943
 7266TIP3    H143289   1.206   0.327   1.665  0.7511  0.0185  0.6279
 7266TIP3    H243290   1.212   0.176   1.672  1.8590  0.1213  2.6985
 7267TIP3   OH243291   2.914   0.920   2.478 -0.9665  0.1192 -0.0831
 7267TIP3    H143292   2.956   1.006   2.475  0.6844 -0.5939  1.1347
 7267TIP3    H243293   2.886   0.910   2.569 -0.1178 -1.0629  0.0787
 7268TIP3   OH243294   1.944   2.672  10.087  0.6883 -0.1017  0.1843
 7268TIP3    H143295   1.866   2.615  10.093  1.5381 -1.4522 -0.9373
 7268TIP3    H243296   1.920   2.750  10.137 -2.2394  0.5281 -1.9285
 7269TIP3   OH243297   1.470   3.298  64.248 -0.3548 -0.0694 -0.1433
 7269TIP3    H143298   1.376   3.277  64.249 -0.3418 -0.3314 -1.5239
 7269TIP3    H243299   1.497   3.279  64.158  0.9906  0.1715  0.1908
 7270TIP3   OH243300   3.002   2.555  55.662 -0.0515  0.7982  0.1992
 7270TIP3    H143301   2.925   2.499  55.670  0.0464  0.4481 -1.1220
 7270TIP3    H243302   2.968   2.644  55.666 -0.3612  0.6540  0.9238
 7271TIP3   OH243303   3.270   0.335  46.928 -0.5586  0.0017  0.2135
 7271TIP3    H143304   3.224   0.286  46.860  0.1975 -0.6563  0.1542
 7271TIP3    H243305   3.337   0.274  46.959  2.9209  2.1090 -2.4057
 7272TIP3   OH243306   2.444   1.744  15.302  0.5555  0.7948 -0.4600
 7272TIP3    H143307   2.441   1.734  15.397  1.0773 -0.1296 -0.5249
 7272TIP3    H243308   2.380   1.812  15.282 -0.7819 -0.1907  0.3848
 7273TIP3   OH243309   3.018   0.024  19.107 -0.6641  0.2481  0.0928
 7273TIP3    H143310   2.943   0.055  19.157 -1.5880 -0.4901 -0.7804
 7273TIP3    H243311   3.078  -0.012  19.172  0.2572  3.3437  1.0858
 7274TIP3   OH243312   1.344   1.549  48.670  0.3713  0.3045 -0.0624
 7274TIP3    H143313   1.263   1.572  48.716  1.9290  3.4021  1.4355
 7274TIP3    H243314   1.315   1.515  48.586 -2.4982 -1.0097  1.3202
 7275TIP3   OH243315   0.330   3.261   4.017 -0.3559  0.3343 -0.0602
 7275TIP3    H143316   0.246   3.237   4.055 -1.2137  4.2765  1.0140
 7275TIP3    H243317   0.395   3.231   4.079 -1.3316  1.0547  1.3595
 7276TIP3   OH243318   2.549   2.114  64.006  0.2466 -0.2721 -0.0346
 7276TIP3    H143319   2.633   2.069  64.007 -0.5797 -1.8862  0.3081
 7276TIP3    H243320   2.511   2.095  64.092  0.6056  2.6517  0.8756
 7277TIP3   OH243321   0.012   1.144  63.162 -0.3571 -0.0881  0.4829
 7277TIP3    H143322   0.102   1.157  63.133 -0.4703 -1.2608 -0.4674
 7277TIP3    H243323  -0.022   1.232  63.177  0.5030  0.4339 -0.5207
 7278TIP3   OH243324   0.619   2.208  18.232  0.2021 -0.4339 -0.0636
 7278TIP3    H143325   0.705   2.179  18.203 -0.4207 -0.4057 -2.1024
 7278TIP3    H243326   0.558   2.148  18.189 -0.8741  0.6950 -0.1625
 7279TIP3   OH243327   2.205   0.782  20.251 -0.0558  0.1551 -0.1974
 7279TIP3    H143328   2.241   0.865  20.282  0.8096 -0.7064  1.2307
 7279TIP3    H243329   2.266   0.716  20.284 -0.5890 -1.0392 -1.5158
 7280TIP3   OH243330   1.903   1.309  12.663  0.3347 -0.4060  0.0818
 7280TIP3    H143331   1.830   1.250  12.681 -0.3188 -0.3637 -2.0731
 7280TIP3    H243332   1.891   1.334  12.571  2.1928  0.8481  0.1229
 7281TIP3   OH243333   1.238   2.645  65.440  0.2483 -0.0817  0.5790
 7281TIP3    H143334   1.161   2.630  65.495 -0.1348  1.5934  0.5467
 7281TIP3    H243335   1.311   2.611  65.493 -0.1363  1.2931  2.0900
 7282TIP3   OH243336   3.364   2.978  63.168 -0.1699 -0.3211 -0.3150
 7282TIP3    H143337   3.306   3.007  63.238 -0.8705  0.8966 -1.3534
 7282TIP3    H243338   3.308   2.928  63.109  0.6761 -2.4292  0.5685
 7283TIP3   OH243339   0.751   0.618  60.521  0.7380 -0.2015 -0.3322
 7283TIP3    H143340   0.674   0.597  60.574  1.4213  0.5401  1.0298
 7283TIP3    H243341   0.719   0.622  60.431 -0.4602 -1.5936 -0.0013
 7284TIP3   OH243342   2.963   1.437  19.217 -0.3119  0.4601 -0.2578
 7284TIP3    H143343   2.988   1.345  19.207  0.0036  0.1156  2.7811
 7284TIP3    H243344   3.046   1.483  19.229 -0.5255  1.0247 -0.8983
 7285TIP3   OH243345   0.769   0.571  50.195 -0.4142 -0.1646 -0.4927
 7285TIP3    H143346   0.744   0.488  50.155  1.3552 -1.4784  0.9458
 7285TIP3    H243347   0.857   0.589  50.161 -0.6733  1.0011 -0.5870
 7286TIP3   OH243348   3.071   1.164  20.584 -0.3203 -0.1575 -0.5777
 7286TIP3    H143349   3.147   1.106  20.584  0.2635  0.5568  0.6646
 7286TIP3    H243350   3.107   1.251  20.565 -0.7950  0.2048  0.1277
 7287TIP3   OH243351   1.422   1.339  61.199 -0.0339 -0.1407  0.0653
 7287TIP3    H143352   1.342   1.336  61.147  0.2551 -0.1977 -0.3772
 7287TIP3    H243353   1.443   1.247  61.216  0.3931 -0.1640 -0.5312
 7288TIP3   OH243354   1.596   2.402  58.283  0.0398  0.8872  0.0577
 7288TIP3    H143355   1.504   2.418  58.304 -0.1462 -0.3886  0.3081
 7288TIP3    H243356   1.604   2.306  58.283  1.5733  0.9964  0.8826
 7289TIP3   OH243357   3.165   2.431  49.334 -0.0667  0.2067 -0.0620
 7289TIP3    H143358   3.152   2.490  49.260  2.1861 -0.2522 -0.9188
 7289TIP3    H243359   3.181   2.489  49.409 -2.5173  0.6736  0.1801
 7290TIP3   OH243360   2.484   2.784  45.218  0.1308 -0.1313 -0.2522
 7290TIP3    H143361   2.578   2.790  45.202  0.4504 -1.8476  0.6489
 7290TIP3    H243362   2.458   2.871  45.245  1.7472  0.0695  0.7909
 7291TIP3   OH243363   2.761   0.256  46.194  0.0956 -0.0159 -0.3427
 7291TIP3    H143364   2.812   0.226  46.269  1.7268 -1.3340 -1.8840
 7291TIP3    H243365   2.748   0.349  46.210  2.7187  0.3200  0.3362
 7292TIP3   OH243366   0.898   0.793  47.357  0.3250 -0.5731 -0.1645
 7292TIP3    H143367   0.968   0.786  47.293  0.3993 -0.1056 -0.1395
 7292TIP3    H243368   0.928   0.741  47.431  0.8400 -0.0449  0.0102
 7293TIP3   OH243369   3.141   2.768  63.097  0.1563 -0.1011 -0.0149
 7293TIP3    H143370   3.100   2.796  63.178  1.0451 -0.4596  0.5751
 7293TIP3    H243371   3.090   2.692  63.069 -0.8613  0.7111 -0.4194
 7294TIP3   OH243372   2.431   0.958   0.607 -0.2764  0.1750 -0.5474
 7294TIP3    H143373   2.407   0.999   0.524 -0.2605 -0.0954 -0.6868
 7294TIP3    H243374   2.514   0.914   0.589  0.1192  0.7475 -0.1810
 7295TIP3   OH243375   1.438   2.788  59.939  0.5140 -0.7373 -0.7448
 7295TIP3    H143376   1.455   2.879  59.914 -1.2558 -0.2465 -0.2748
 7295TIP3    H243377   1.512   2.764  59.996 -0.0507  1.1297  0.8690
 7296TIP3   OH243378   1.253   1.481  22.380 -0.6374 -0.2399  0.1781
 7296TIP3    H143379   1.342   1.447  22.393 -0.9210 -0.9395  0.3514
 7296TIP3    H243380   1.200   1.432  22.443 -1.0310  0.6890  0.5787
 7297TIP3   OH243381   2.864   2.224   4.982  0.0725 -0.4586 -0.2681
 7297TIP3    H143382   2.808   2.280   5.035  0.3970 -0.1227 -0.2728
 7297TIP3    H243383   2.804   2.162   4.941 -0.2675 -0.2515 -0.0924
 7298TIP3   OH243384   0.195   0.602  65.189 -0.3842 -0.1819  0.3670
 7298TIP3    H143385   0.138   0.624  65.116 -0.4402 -0.0069  0.4663
 7298TIP3    H243386   0.260   0.672  65.191 -1.0888  0.4609  1.2289
 7299TIP3   OH243387   3.187   0.310  44.759  0.1238 -0.0809  0.2224
 7299TIP3    H143388   3.098   0.311  44.724  0.2594  0.9698 -0.1305
 7299TIP3    H243389   3.215   0.402  44.757  1.0664 -0.3416  0.7126
 7300TIP3   OH243390   2.820   0.207  14.188  0.1198 -0.8559 -0.2581
 7300TIP3    H143391   2.788   0.213  14.278 -0.9625 -0.5109 -0.6450
 7300TIP3    H243392   2.813   0.296  14.154 -0.6324 -1.1999 -1.0453
 7301TIP3   OH243393   0.947   3.368  20.977 -0.0536 -0.2108  0.1120
 7301TIP3    H143394   1.007   3.293  20.983  1.2661  0.8129  0.1199
 7301TIP3    H243395   0.906   3.373  21.063  1.9584  0.7385  1.0799
 7302TIP3   OH243396   3.254   0.775  14.975 -0.3362  0.0867  0.2999
 7302TIP3    H143397   3.260   0.851  14.917  1.6757 -0.3019 -0.0779
 7302TIP3    H243398   3.191   0.717  14.932 -2.7461  1.9122  1.1292
 7303TIP3   OH243399   0.635   0.880   7.198 -0.3451  0.3267  0.6822
 7303TIP3    H143400   0.693   0.859   7.271  0.5227 -1.2770 -0.4144
 7303TIP3    H243401   0.694   0.908   7.128 -0.8574 -1.2386 -0.4244
 7304TIP3   OH243402   2.454   1.367  62.942 -0.3391 -0.3050  0.0181
 7304TIP3    H143403   2.444   1.279  62.906 -0.3263 -0.1833 -0.2899
 7304TIP3    H243404   2.365   1.402  62.945 -0.5717 -0.9456  1.7581
 7305TIP3   OH243405   0.609   2.912  66.131  0.0083  0.2438 -0.4179
 7305TIP3    H143406   0.521   2.913  66.169 -0.4265 -1.2425 -1.2966
 7305TIP3    H243407   0.668   2.912  66.206 -0.8159 -2.3029  0.3337
 7306TIP3   OH243408   0.833   2.847  20.917 -0.0090  0.5145  0.0776
 7306TIP3    H143409   0.807   2.914  20.980 -1.0149 -1.7098  2.1974
 7306TIP3    H243410   0.921   2.821  20.945  0.0281  0.3480 -0.1925
 7307TIP3   OH243411   3.051   2.160  52.974  0.0714 -0.1861 -0.7791
 7307TIP3    H143412   3.089   2.116  53.050  0.2205 -0.8802 -1.2483
 7307TIP3    H243413   3.121   2.162  52.909 -0.4556 -0.7845 -1.3785
 7308TIP3   OH243414   2.671   2.023  26.911 -0.1040  0.3431 -0.2292
 7308TIP3    H143415   2.590   2.066  26.937 -0.4531 -0.0311 -0.6758
 7308TIP3    H243416   2.661   1.933  26.940  0.5051  0.4847  0.4549
 7309TIP3   OH243417   2.975   1.776   0.264  0.0067 -0.0632  0.2754
 7309TIP3    H143418   2.886   1.777   0.227  0.0262  0.3368  0.2369
 7309TIP3    H243419   2.972   1.708   0.330 -0.5120  0.3788  0.7210
 7310TIP3   OH243420   1.668   2.272  45.019 -0.1646  0.5878 -0.4514
 7310TIP3    H143421   1.656   2.268  45.114  1.8533  0.0909 -0.1550
 7310TIP3    H243422   1.589   2.233  44.982  0.3290 -2.1817  1.1337
 7311TIP3   OH243423   0.081   2.601  17.231 -0.1392  0.1978 -0.1910
 7311TIP3    H143424   0.102   2.543  17.304 -2.9328  1.8207  2.1474
 7311TIP3    H243425   0.010   2.556  17.185 -0.8508  0.7400  0.3451
 7312TIP3   OH243426   2.630   1.167  57.546 -0.1610 -0.4112 -0.0764
 7312TIP3    H143427   2.536   1.180  57.549  0.2131  3.0953  0.0281
 7312TIP3    H243428   2.666   1.254  57.530  3.0898 -1.5549  0.2905
 7313TIP3   OH243429   3.149   0.896   2.892  0.6054  0.1340 -0.0669
 7313TIP3    H143430   3.162   0.969   2.952  1.3967 -0.8829  1.0711
 7313TIP3    H243431   3.225   0.839   2.908 -0.0153 -0.9513 -0.8661
 7314TIP3   OH243432   0.180   0.822  64.018  0.7276  0.4131  0.0104
 7314TIP3    H143433   0.202   0.884  63.948  0.3412 -0.2549 -0.7259
 7314TIP3    H243434   0.104   0.775  63.984  0.0293  0.6364  1.2385
 7315TIP3   OH243435   0.274   0.286  61.731  1.0553  0.2165  0.2462
 7315TIP3    H143436   0.332   0.214  61.708  1.4596  0.1989  1.3129
 7315TIP3    H243437   0.327   0.343  61.787  0.9515  1.6756 -1.0380
 7316TIP3   OH243438   1.837   0.081  46.235  0.0112  0.1069  0.6574
 7316TIP3    H143439   1.767   0.054  46.294  0.4586 -0.2992  1.0075
 7316TIP3    H243440   1.900   0.009  46.238  0.8625  0.8495  1.0200
 7317TIP3   OH243441   2.285   0.948  17.818  0.7154  0.0081 -0.6288
 7317TIP3    H143442   2.337   0.989  17.886  2.6098 -1.3136 -1.2018
 7317TIP3    H243443   2.302   1.000  17.739  1.7592 -0.8302 -0.9720
 7318TIP3   OH243444   1.806   1.621  61.915  0.6588 -0.1192  0.3639
 7318TIP3    H143445   1.888   1.585  61.949  1.3162  1.2421  0.2741
 7318TIP3    H243446   1.803   1.592  61.824  2.0683  1.4558 -0.2321
 7319TIP3   OH243447   3.374   0.787  43.904  0.2832 -0.1674 -0.3526
 7319TIP3    H143448   3.294   0.734  43.906  0.5084 -0.6360 -2.3199
 7319TIP3    H243449   3.345   0.875  43.926 -0.8138 -0.3053 -1.1994
 7320TIP3   OH243450   2.910   2.434  58.410  0.0323  0.2527 -0.9745
 7320TIP3    H143451   2.838   2.457  58.469 -0.3082  0.5843 -1.5091
 7320TIP3    H243452   2.923   2.340  58.424 -0.3122  0.2497 -0.6565
 7321TIP3   OH243453   0.903   2.687  39.723  0.6063  0.4194  0.3491
 7321TIP3    H143454   0.870   2.749  39.658 -0.7394  0.6490  1.2243
 7321TIP3    H243455   0.978   2.732  39.762  1.1348  0.4768 -0.6811
 7322TIP3   OH243456   0.450   1.271  66.044 -0.4072  0.4921 -0.1926
 7322TIP3    H143457   0.426   1.350  66.093  0.5790 -0.3948  1.8585
 7322TIP3    H243458   0.546   1.274  66.038 -0.3364 -0.5695  0.0437
 7323TIP3   OH243459   1.612   3.330  66.800  0.1859 -0.0390 -0.2320
 7323TIP3    H143460   1.573   3.316  66.887  1.9273 -0.4915  0.5342
 7323TIP3    H243461   1.543   3.372  66.749 -1.4026 -1.1178  0.9125
 7324TIP3   OH243462   1.828   1.156  56.679  0.1763  0.0214 -0.2983
 7324TIP3    H143463   1.776   1.236  56.673 -1.4689 -1.0856 -1.6323
 7324TIP3    H243464   1.827   1.135  56.773 -3.3044 -0.8252 -0.3761
 7325TIP3   OH243465   3.364   2.757  59.623  0.3731  0.7136 -0.2810
 7325TIP3    H143466   3.441   2.777  59.676 -0.7659  0.7138  1.4571
 7325TIP3    H243467   3.399   2.718  59.543  2.1171 -0.4232  0.9668
 7326TIP3   OH243468   2.262   1.301  53.455 -0.8652 -0.1037 -0.1829
 7326TIP3    H143469   2.315   1.341  53.387 -1.2480  1.3347  0.3156
 7326TIP3    H243470   2.215   1.230  53.411  0.3120 -0.4255 -0.9630
 7327TIP3   OH243471   2.005   1.053  48.381 -0.5370  0.2601 -0.1110
 7327TIP3    H143472   1.988   1.144  48.406 -1.5989  0.2562 -0.7659
 7327TIP3    H243473   2.068   1.022  48.446 -0.7225  1.2375  0.5601
 7328TIP3   OH243474   0.049   0.966  12.877  0.0986  0.3497  0.3085
 7328TIP3    H143475   0.124   1.025  12.879 -0.1007  0.7916 -2.0825
 7328TIP3    H243476   0.065   0.911  12.799 -0.7183 -1.4070  1.3284
 7329TIP3   OH243477   1.151   2.165  65.771 -0.4301  0.0181  0.3882
 7329TIP3    H143478   1.194   2.210  65.699  0.9694 -0.4607  0.8958
 7329TIP3    H243479   1.076   2.221  65.792  0.3435  1.2746 -0.0502
 7330TIP3   OH243480   2.626   2.788  49.725 -0.3801  0.0403  0.2326
 7330TIP3    H143481   2.559   2.844  49.765 -0.6714 -0.4684  0.4790
 7330TIP3    H243482   2.584   2.702  49.720  1.2824 -1.0774  3.2593
 7331TIP3   OH243483   2.771   3.399  55.163 -0.0906 -0.7489 -0.0021
 7331TIP3    H143484   2.821   3.424  55.241 -2.4425  0.9125  1.0683
 7331TIP3    H243485   2.701   3.343  55.196 -0.5652 -0.8057 -1.0581
 7332TIP3   OH243486   0.626   0.334  63.979 -0.1704 -0.4284 -0.3907
 7332TIP3    H143487   0.578   0.301  63.904  0.3352 -1.4924 -0.2741
 7332TIP3    H243488   0.560   0.344  64.048 -0.7203  1.0232 -1.0978
 7333TIP3   OH243489   1.028   3.408  65.943  0.0455 -0.2696 -0.0871
 7333TIP3    H143490   1.100   3.380  65.886  0.2139  0.7560 -0.4013
 7333TIP3    H243491   1.061   3.394  66.032  0.2444 -0.7486 -0.2324
 7334TIP3   OH243492   2.135   2.174  63.221  0.5717 -0.1567 -0.1848
 7334TIP3    H143493   2.224   2.150  63.193  0.6055  0.3392 -0.5153
 7334TIP3    H243494   2.148   2.246  63.282  0.3603  0.4964 -0.8927
 7335TIP3   OH243495   1.528   1.706   6.959  0.2150  0.3435  0.3137
 7335TIP3    H143496   1.484   1.625   6.986 -0.7144  0.4591 -0.8023
 7335TIP3    H243497   1.611   1.677   6.922 -0.1957 -0.1307 -0.2566
 7336TIP3   OH243498   0.569   2.447   7.814  0.6241  0.1882  0.2151
 7336TIP3    H143499   0.626   2.381   7.854 -0.3334 -0.1883  1.0324
 7336TIP3    H243500   0.485   2.436   7.860 -0.8567 -0.8614 -2.4687
 7337TIP3   OH243501   1.628   2.923  12.280 -0.2238 -0.1371 -0.2411
 7337TIP3    H143502   1.701   2.961  12.231 -0.4859 -0.1247 -0.6197
 7337TIP3    H243503   1.550   2.960  12.240 -0.4990 -1.3509 -0.8529
 7338TIP3   OH243504   2.549   1.904  48.387 -0.2783 -0.4599  0.2417
 7338TIP3    H143505   2.458   1.878  48.398 -0.6286  1.0584  1.1461
 7338TIP3    H243506   2.545   1.987  48.339  0.6858 -0.7657 -0.4101
 7339TIP3   OH243507   2.516   1.944  66.680 -0.3020  0.1169 -0.6934
 7339TIP3    H143508   2.485   1.854  66.688  0.8330 -0.2727 -0.4622
 7339TIP3    H243509   2.466   1.993  66.746 -0.6734 -0.4102 -0.5807
 7340TIP3   OH243510   2.946   0.036  43.456 -0.4807  0.1598  0.8017
 7340TIP3    H143511   2.862   0.052  43.412 -0.3381  1.4011  0.9385
 7340TIP3    H243512   2.948  -0.059  43.470 -1.3963 -0.0142 -0.1165
 7341TIP3   OH243513   0.622   1.160  57.645  0.8057 -0.0871 -0.5227
 7341TIP3    H143514   0.673   1.164  57.563  0.8646  0.1423 -0.4751
 7341TIP3    H243515   0.656   1.233  57.697  2.5120 -1.7005  0.7363
 7342TIP3   OH243516   0.394   2.716   9.334  0.0113  0.2452  0.0888
 7342TIP3    H143517   0.404   2.789   9.273 -0.4292  0.4125  0.2151
 7342TIP3    H243518   0.479   2.711   9.379  0.1142  0.5398 -0.0695
 7343TIP3   OH243519   2.976   0.226  62.313  0.5802  0.4261  0.3603
 7343TIP3    H143520   2.910   0.288  62.281  0.2501  0.1858  0.5647
 7343TIP3    H243521   3.057   0.276  62.315  0.5770  0.5065 -0.6748
 7344TIP3   OH243522   3.256   0.978  20.430 -0.1614  0.0877  0.4702
 7344TIP3    H143523   3.209   0.896  20.443  1.9641 -1.2216  0.3262
 7344TIP3    H243524   3.202   1.027  20.367 -1.8607 -0.8209  1.1578
 7345TIP3   OH243525   3.326   3.234  16.786  0.0448 -0.0191 -0.3311
 7345TIP3    H143526   3.410   3.194  16.808 -0.7179 -0.3935  2.2357
 7345TIP3    H243527   3.349   3.310  16.733  1.8134 -1.3200 -1.5739
 7346TIP3   OH243528   0.134   2.246  42.139 -0.2106  0.2259  0.0147
 7346TIP3    H143529   0.107   2.324  42.188 -0.9901  0.2865 -0.4998
 7346TIP3    H243530   0.172   2.280  42.059  0.4932  0.1054  0.2916
 7347TIP3   OH243531   0.006   1.901   4.227  0.2235 -0.1340  0.3526
 7347TIP3    H143532  -0.039   1.890   4.143  1.0115  2.8805 -0.5636
 7347TIP3    H243533   0.093   1.865   4.211  0.6131  1.0851 -0.4149
 7348TIP3   OH243534   2.502   2.233   3.457  0.3193  0.2921 -0.3103
 7348TIP3    H143535   2.516   2.146   3.418 -1.9277 -0.2021 -0.1607
 7348TIP3    H243536   2.587   2.256   3.495  1.7371 -0.6092 -2.6649
 7349TIP3   OH243537   2.731   0.127  11.175  0.3798  0.0264 -0.1133
 7349TIP3    H143538   2.741   0.180  11.254  2.1186 -0.6814  0.1959
 7349TIP3    H243539   2.744   0.188  11.103  0.5304  0.3559  0.1899
 7350TIP3   OH243540   1.405   1.113  62.888 -0.0593  0.2515  0.6992
 7350TIP3    H143541   1.315   1.141  62.874  0.0913  0.3699 -0.0735
 7350TIP3    H243542   1.418   1.122  62.982  0.0046  2.8373  0.5170
 7351TIP3   OH243543   1.438   3.282  59.092  0.1522  0.3321 -0.1405
 7351TIP3    H143544   1.344   3.298  59.078 -0.0637 -0.2123  0.6066
 7351TIP3    H243545   1.455   3.200  59.046 -0.2343 -0.6889  1.4339
 7352TIP3   OH243546   3.260   2.402  23.035  0.1733 -0.9606  0.1756
 7352TIP3    H143547   3.268   2.342  22.960 -1.6908 -1.8481  0.6255
 7352TIP3    H243548   3.349   2.435  23.049  1.3837 -3.8705  0.0952
 7353TIP3   OH243549   3.131   2.342  48.392  0.0178  0.3867 -0.5402
 7353TIP3    H143550   3.217   2.380  48.371 -0.4591  0.9109 -1.6205
 7353TIP3    H243551   3.068   2.400  48.349 -0.8890  0.0440  0.2934
 7354TIP3   OH243552   1.874   1.553  66.848 -0.2993 -0.7054  0.0496
 7354TIP3    H143553   1.884   1.509  66.933  0.7134 -1.0250 -0.2145
 7354TIP3    H243554   1.835   1.487  66.791 -2.1823 -0.0925  0.5792
 7355TIP3   OH243555   1.919   3.066   1.817 -0.0147  0.0721  0.0625
 7355TIP3    H143556   1.912   3.072   1.912 -0.0207  0.1561  0.0569
 7355TIP3    H243557   1.880   2.981   1.795  0.7288 -0.3181  0.2102
 7356TIP3   OH243558   1.172   1.062  34.101  0.0670 -0.2288 -0.0420
 7356TIP3    H143559   1.088   1.020  34.081  0.4094  0.2653 -2.9220
 7356TIP3    H243560   1.175   1.138  34.043  2.3334  0.0197  0.3128
 7357TIP3   OH243561   1.186   1.349  44.598  0.1378 -0.6576  0.2621
 7357TIP3    H143562   1.205   1.283  44.532 -0.8683 -1.4008  0.6945
 7357TIP3    H243563   1.214   1.432  44.558  2.6179 -1.4451  0.2203
 7358TIP3   OH243564   1.823   2.174  65.593  0.0771 -0.0713 -0.5555
 7358TIP3    H143565   1.764   2.228  65.540  0.1404  0.6937  0.1312
 7358TIP3    H243566   1.766   2.138  65.662  0.4384  0.8588  0.2529
 7359TIP3   OH243567   2.206   0.800  55.858 -0.6312 -0.1262  0.0661
 7359TIP3    H143568   2.175   0.735  55.794  0.9091 -0.2139 -0.6380
 7359TIP3    H243569   2.237   0.747  55.932  1.1588 -0.3081 -0.7414
 7360TIP3   OH243570   3.290   1.881  53.805 -0.1786  0.3523 -0.0058
 7360TIP3    H143571   3.220   1.943  53.826  0.3831  0.9202  0.2083
 7360TIP3    H243572   3.365   1.935  53.782  0.0002 -0.2510 -0.9280
 7361TIP3   OH243573   0.842   2.280  10.602  0.4652  0.5965  0.2751
 7361TIP3    H143574   0.752   2.301  10.578  0.2569  0.7440  1.1365
 7361TIP3    H243575   0.872   2.220  10.534 -1.1601 -1.5355  1.3103
 7362TIP3   OH243576   2.352   2.230  50.741  0.3554 -0.0985  0.5989
 7362TIP3    H143577   2.300   2.282  50.679  0.1433  0.7283  1.4450
 7362TIP3    H243578   2.442   2.257  50.724  0.5010 -1.2634 -0.6212
 7363TIP3   OH243579   0.494   1.084   4.488  0.5218  0.3787 -0.3978
 7363TIP3    H143580   0.408   1.042   4.495 -0.1751  1.5823 -1.2467
 7363TIP3    H243581   0.554   1.014   4.465 -0.4911 -0.2574 -1.1806
 7364TIP3   OH243582   0.576   0.956  48.930  0.0248 -0.0173  0.0170
 7364TIP3    H143583   0.512   0.996  48.871 -1.7979 -0.5343  1.5532
 7364TIP3    H243584   0.652   1.014  48.926 -0.5961  0.7244 -1.7159
 7365TIP3   OH243585   3.264   1.177  10.820  0.0772  0.5006  0.2953
 7365TIP3    H143586   3.192   1.114  10.819  0.7569 -0.2853 -0.3602
 7365TIP3    H243587   3.323   1.148  10.750  0.6046  1.6335  0.2455
 7366TIP3   OH243588   2.062   2.011   9.834  0.1013  0.4635 -0.0254
 7366TIP3    H143589   2.043   1.991   9.925  1.4619 -0.2328  0.1163
 7366TIP3    H243590   2.022   2.097   9.820  0.5726  0.9510  1.4585
 7367TIP3   OH243591   2.868   0.806  50.856 -0.5597 -0.1661 -0.5244
 7367TIP3    H143592   2.862   0.885  50.910 -0.5157  0.7949 -1.8671
 7367TIP3    H243593   2.830   0.832  50.772  0.3442 -1.2762 -1.3119
 7368TIP3   OH243594   2.711   1.604   0.287  0.3541  0.2863 -0.1380
 7368TIP3    H143595   2.639   1.557   0.245  1.6076 -0.2700 -1.7357
 7368TIP3    H243596   2.669   1.681   0.326 -1.0142  0.2980 -1.5359
 7369TIP3   OH243597   2.316   1.533  44.011 -0.5201  0.3469  0.0462
 7369TIP3    H143598   2.232   1.498  43.980 -0.8577 -0.1296  1.4216
 7369TIP3    H243599   2.360   1.458  44.051 -0.1811  0.9579  0.8571
 7370TIP3   OH243600   2.280   2.676  61.442  0.2599 -0.4396  0.0246
 7370TIP3    H143601   2.198   2.629  61.459 -0.2491  0.4270  0.0835
 7370TIP3    H243602   2.339   2.648  61.511 -1.0944  1.4471  2.0855
 7371TIP3   OH243603   1.868   3.275  44.559 -0.0270 -0.6215 -0.0193
 7371TIP3    H143604   1.863   3.328  44.479  2.3139 -1.8364 -1.0979
 7371TIP3    H243605   1.865   3.339  44.630 -0.8422  0.6220 -1.1160
 7372TIP3   OH243606   1.032   2.893   8.071  0.3578  0.0198  0.0814
 7372TIP3    H143607   1.011   2.923   8.159 -0.5155  0.1822 -0.1676
 7372TIP3    H243608   0.984   2.810   8.063 -0.0344  0.2872 -0.4261
 7373TIP3   OH243609   1.063   2.768  47.848  0.3309  0.1636  0.0718
 7373TIP3    H143610   1.079   2.678  47.878 -0.9745  0.2745  1.1829
 7373TIP3    H243611   1.150   2.808  47.845  1.0264 -1.3455 -1.2138
 7374TIP3   OH243612   2.206   1.417   6.344 -0.2821  1.0026  0.5061
 7374TIP3    H143613   2.156   1.496   6.324  0.8882  1.6142 -0.0799
 7374TIP3    H243614   2.193   1.361   6.267 -0.8070  0.7690  0.7591
 7375TIP3   OH243615   0.129   0.631  62.334 -0.2771 -0.2502  0.3697
 7375TIP3    H143616   0.211   0.591  62.306 -0.0008  0.2897  0.3980
 7375TIP3    H243617   0.071   0.621  62.258 -0.2515 -0.7998  0.4161
 7376TIP3   OH243618   0.088   2.830  46.032 -0.4180  0.3236  0.0868
 7376TIP3    H143619   0.015   2.789  45.986 -0.8349  0.2499  0.8012
 7376TIP3    H243620   0.080   2.923  46.011 -1.1391  0.4110  0.7296
 7377TIP3   OH243621   1.914   1.912  50.672  0.6102 -0.4636 -0.4073
 7377TIP3    H143622   1.895   1.969  50.598 -0.7597 -0.1704  0.1295
 7377TIP3    H243623   1.832   1.865  50.688  0.9251 -0.6419  0.8089
 7378TIP3   OH243624   2.129   0.504  13.395 -0.1803 -0.2330 -0.0295
 7378TIP3    H143625   2.112   0.597  13.382 -2.1288 -0.3997  1.0054
 7378TIP3    H243626   2.211   0.501  13.446 -0.7008  0.9671  0.9164
 7379TIP3   OH243627   2.038   3.104  61.926 -0.3815  0.2989  0.4939
 7379TIP3    H143628   2.119   3.115  61.975  1.1992 -0.0488 -1.8771
 7379TIP3    H243629   2.017   3.011  61.935  0.0208  0.1917  0.3393
 7380TIP3   OH243630   1.571   2.209  43.522 -0.1080 -0.3646  0.2446
 7380TIP3    H143631   1.531   2.290  43.489  1.3549  0.5111  0.5456
 7380TIP3    H243632   1.499   2.165  43.568 -0.9827  0.6617 -0.0780
 7381TIP3   OH243633   1.012   0.756  14.458  0.0350  0.1529 -0.4823
 7381TIP3    H143634   0.961   0.695  14.405 -2.8557  2.9850 -1.2878
 7381TIP3    H243635   1.103   0.732  14.440 -0.8794 -1.8697 -3.1913
 7382TIP3   OH243636   0.405   0.458  42.424 -0.7800  0.3310  0.7118
 7382TIP3    H143637   0.484   0.416  42.456 -0.0084  0.5827 -0.7847
 7382TIP3    H243638   0.335   0.424  42.481  0.2184 -0.7663  1.3246
 7383TIP3   OH243639   1.407   0.385  34.874  0.4417 -0.1646 -0.4718
 7383TIP3    H143640   1.503   0.383  34.866  0.4119 -1.4662 -0.7313
 7383TIP3    H243641   1.378   0.432  34.796  0.8110 -1.1491 -1.2290
 7384TIP3   OH243642   2.363   2.555   4.916 -0.0354  0.1145 -0.4278
 7384TIP3    H143643   2.423   2.496   4.962 -0.5020 -0.4913 -0.5788
 7384TIP3    H243644   2.401   2.642   4.927  0.1521 -0.0891  0.6347
 7385TIP3   OH243645   3.077   2.318  56.945  1.0180  0.0400  0.4860
 7385TIP3    H143646   3.116   2.402  56.920 -0.1695  0.0505 -1.4694
 7385TIP3    H243647   3.109   2.256  56.880 -0.5271 -0.3615  0.0599
 7386TIP3   OH243648   2.620   0.825   8.920 -0.1349 -0.1650 -0.9168
 7386TIP3    H143649   2.560   0.801   8.850 -0.7299 -0.3955 -0.3456
 7386TIP3    H243650   2.615   0.752   8.982 -0.7151  0.6644  0.0502
 7387TIP3   OH243651   2.202   0.415   2.450 -0.7235 -0.4018  0.0740
 7387TIP3    H143652   2.268   0.465   2.498 -0.0442 -2.7542  1.7650
 7387TIP3    H243653   2.251   0.371   2.380 -0.9029 -0.4381 -0.0313
 7388TIP3   OH243654   1.742   1.819  18.321 -0.1855  0.2306  0.4166
 7388TIP3    H143655   1.784   1.733  18.324 -0.6884 -0.0213  0.3435
 7388TIP3    H243656   1.768   1.855  18.236 -1.4136 -0.6028 -0.3458
 7389TIP3   OH243657   0.376   3.426  20.843  0.5570  0.2120 -0.0064
 7389TIP3    H143658   0.362   3.334  20.862 -0.5874 -0.0713 -1.9272
 7389TIP3    H243659   0.376   3.431  20.747  4.6225  1.6442 -0.1265
 7390TIP3   OH243660   2.603   3.109   1.451 -0.1400  0.3253  0.0509
 7390TIP3    H143661   2.616   3.019   1.483  0.7948  0.7588  0.9562
 7390TIP3    H243662   2.630   3.105   1.359  2.1220  0.1355  0.6582
 7391TIP3   OH243663   2.431   2.666  66.829  0.1218 -0.2454  0.1200
 7391TIP3    H143664   2.458   2.756  66.811  1.2267 -0.3553  1.1605
 7391TIP3    H243665   2.371   2.673  66.903 -0.2995 -0.3178 -0.2104
 7392TIP3   OH243666   1.194   2.398  49.188  0.4941 -0.4440 -0.3541
 7392TIP3    H143667   1.161   2.379  49.276 -0.3871  2.0001 -0.0959
 7392TIP3    H243668   1.286   2.423  49.202  0.3001  0.1288 -0.1099
 7393TIP3   OH243669   2.618   1.366   7.935 -0.2875 -0.1634  0.3665
 7393TIP3    H143670   2.650   1.305   7.868  0.7837  1.2445 -0.4759
 7393TIP3    H243671   2.548   1.414   7.892 -1.1222 -0.7612  1.0241
 7394TIP3   OH243672   0.027   1.799  65.914 -0.1025 -0.1148  0.0843
 7394TIP3    H143673   0.104   1.742  65.918  0.6610  0.9540  1.4790
 7394TIP3    H243674  -0.035   1.760  65.976 -0.0874 -0.1414  0.0867
 7395TIP3   OH243675   2.833   2.347   7.019 -0.0148 -0.0067  0.4702
 7395TIP3    H143676   2.856   2.413   7.085  0.7895 -0.9000  1.1160
 7395TIP3    H243677   2.905   2.350   6.956 -1.3318  1.6482 -1.0638
 7396TIP3   OH243678   0.801   1.223  54.164 -0.6872 -0.3942  0.1858
 7396TIP3    H143679   0.760   1.146  54.204 -1.6039  0.5732  1.1352
 7396TIP3    H243680   0.878   1.239  54.218 -0.7013 -0.4186  0.2133
 7397TIP3   OH243681   1.010   2.639  51.478 -0.0808  0.3663 -0.3546
 7397TIP3    H143682   0.932   2.694  51.489 -0.7463 -0.8255  1.3203
 7397TIP3    H243683   1.062   2.657  51.556  0.2829 -0.4320 -0.4057
 7398TIP3   OH243684   1.798   0.372  50.634 -0.0837  0.0508  0.0621
 7398TIP3    H143685   1.856   0.368  50.558  0.3393  0.0515  0.3771
 7398TIP3    H243686   1.763   0.284  50.642  1.1906 -0.4212  0.8629
 7399TIP3   OH243687   1.353   2.007   0.271 -0.2152 -0.0372 -0.3044
 7399TIP3    H143688   1.357   1.923   0.224 -0.0274  0.6748 -1.6304
 7399TIP3    H243689   1.380   2.071   0.205  3.3771  0.7163  1.6747
 7400TIP3   OH243690   0.715   3.022  66.712  0.0224  0.2961 -0.1137
 7400TIP3    H143691   0.670   2.975  66.641 -0.8645  0.6683  0.1903
 7400TIP3    H243692   0.646   3.038  66.777  0.2637  2.1709 -0.2884
 7401TIP3   OH243693   0.402   2.472   3.484 -0.0044  0.8336 -0.0816
 7401TIP3    H143694   0.365   2.547   3.438 -0.6622  1.3726  1.3047
 7401TIP3    H243695   0.377   2.397   3.430 -1.5245  1.3653 -0.1554
 7402TIP3   OH243696   3.264   1.445  18.401 -0.6212 -0.2038 -0.3172
 7402TIP3    H143697   3.346   1.489  18.378 -1.4799  1.7233  0.1204
 7402TIP3    H243698   3.290   1.377  18.464  0.6409  0.2790 -0.2827
 7403TIP3   OH243699   2.693   3.151  14.190 -0.1933  0.3349  0.3715
 7403TIP3    H143700   2.700   3.072  14.137 -1.8851 -0.4130  1.1695
 7403TIP3    H243701   2.777   3.195  14.179  0.4032 -1.0291 -0.9345
 7404TIP3   OH243702   2.811   0.526  12.026 -0.1227 -0.4067  0.1282
 7404TIP3    H143703   2.806   0.522  11.931  3.1232  0.2758 -0.1872
 7404TIP3    H243704   2.827   0.435  12.053  2.0574 -0.1889 -0.3159
 7405TIP3   OH243705   3.171   2.811   9.621  0.0895  0.3890  0.1574
 7405TIP3    H143706   3.159   2.801   9.715  0.0769  1.8057  0.3286
 7405TIP3    H243707   3.188   2.722   9.589  2.9950  0.2083  1.8785
 7406TIP3   OH243708   3.089   1.353  21.552  1.1509  0.2419  0.0351
 7406TIP3    H143709   3.116   1.409  21.480 -0.1508  0.4211 -0.3409
 7406TIP3    H243710   3.046   1.412  21.614 -1.1106 -0.4045 -0.8115
 7407TIP3   OH243711   1.210   0.723  55.128  0.1414 -0.0860 -0.1927
 7407TIP3    H143712   1.290   0.768  55.153 -0.3696  0.9265 -0.3263
 7407TIP3    H243713   1.141   0.768  55.178 -0.3623 -0.8602 -0.1733
 7408TIP3   OH243714   3.292   3.200  60.953 -0.2565  0.6519  0.1203
 7408TIP3    H143715   3.257   3.191  60.864  0.5190  3.1485 -0.5303
 7408TIP3    H243716   3.275   3.116  60.994  2.1215 -1.8069 -3.3563
 7409TIP3   OH243717   1.359   2.080  23.202  0.3991 -0.1292  0.1057
 7409TIP3    H143718   1.429   2.053  23.142 -0.3631 -1.0987 -0.3766
 7409TIP3    H243719   1.387   2.165  23.236  1.8982 -0.5871  0.0657
 7410TIP3   OH243720   1.877   3.421  36.391 -0.6002 -0.0336 -0.2734
 7410TIP3    H143721   1.867   3.511  36.421 -0.8374 -0.3385  0.6184
 7410TIP3    H243722   1.920   3.428  36.306 -0.6560  0.9149 -0.2329
 7411TIP3   OH243723   3.032   1.800  60.361  0.1425  0.0780 -0.2264
 7411TIP3    H143724   3.027   1.875  60.302  1.2873  0.0727 -0.3508
 7411TIP3    H243725   3.107   1.749  60.330 -0.1065 -0.6723  0.3674
 7412TIP3   OH243726   0.585   1.200   0.659 -0.3519  0.4478 -0.4264
 7412TIP3    H143727   0.656   1.198   0.595  1.0435  0.0938  1.0609
 7412TIP3    H243728   0.563   1.293   0.667  1.1296  0.7794  0.2690
 7413TIP3   OH243729   1.400   0.281  17.478 -0.7217 -0.1840 -0.3322
 7413TIP3    H143730   1.384   0.188  17.493 -2.6982  0.1252 -0.1893
 7413TIP3    H243731   1.480   0.300  17.526  0.2230 -1.9863 -1.1027
 7414TIP3   OH243732   1.044   1.906  58.535 -0.4584  0.1328  0.3981
 7414TIP3    H143733   1.063   1.839  58.468  2.7820  3.3832 -2.3599
 7414TIP3    H243734   0.975   1.959  58.496 -1.4275 -0.2538  1.5502
 7415TIP3   OH243735   0.120   0.694  66.219  0.2306 -0.5777  0.3289
 7415TIP3    H143736   0.095   0.710  66.128 -1.3855 -0.1546  0.8051
 7415TIP3    H243737   0.182   0.764  66.241  1.1890 -1.1005 -0.6292
 7416TIP3   OH243738   0.570   1.971   2.725 -0.4445  0.0515  0.0585
 7416TIP3    H143739   0.550   1.884   2.759  0.5105 -0.2646 -0.1579
 7416TIP3    H243740   0.492   2.023   2.743 -0.3680 -0.3872  1.7854
 7417TIP3   OH243741   1.560   2.784  65.229  0.5820  0.4505  0.1243
 7417TIP3    H143742   1.582   2.692  65.242  0.9855  0.4944 -0.2336
 7417TIP3    H243743   1.644   2.830  65.240  0.0582  0.9972  2.4004
 7418TIP3   OH243744   1.235   2.270  53.344 -0.1591  0.1018  0.4790
 7418TIP3    H143745   1.211   2.334  53.277  1.8800  0.2326 -0.1771
 7418TIP3    H243746   1.266   2.322  53.418 -0.9095 -0.0960  0.9525
 7419TIP3   OH243747   0.800   2.197  52.917  0.6947 -0.4661  0.3063
 7419TIP3    H143748   0.829   2.282  52.885 -0.6222  0.3163  1.1298
 7419TIP3    H243749   0.853   2.180  52.995  1.3545 -0.6838 -0.1784
 7420TIP3   OH243750   2.758   3.143  21.026 -0.1964  0.1956 -0.3249
 7420TIP3    H143751   2.813   3.217  21.054  0.5136 -0.8788  1.2838
 7420TIP3    H243752   2.702   3.125  21.102 -0.7018 -0.6301 -0.8711
 7421TIP3   OH243753   2.632   3.147   9.271  0.1942 -0.4415  0.6606
 7421TIP3    H143754   2.718   3.154   9.313 -0.5841  1.1423  2.1082
 7421TIP3    H243755   2.617   3.232   9.231 -0.3190 -1.0101 -0.4097
 7422TIP3   OH243756   1.344   2.257  47.620  0.4114  0.1369  0.1919
 7422TIP3    H143757   1.267   2.279  47.672 -0.3997  0.0187 -0.9035
 7422TIP3    H243758   1.359   2.335  47.566  0.9593  0.0989  0.2844
 7423TIP3   OH243759   3.025   1.732  49.944  0.5379  0.2180 -0.0746
 7423TIP3    H143760   3.063   1.655  49.902  1.3630  0.1599  0.7692
 7423TIP3    H243761   3.027   1.800  49.876 -1.3999 -0.8233 -1.2498
 7424TIP3   OH243762   1.810   1.249  52.145  0.0594 -0.2585  0.4199
 7424TIP3    H143763   1.834   1.163  52.179 -1.4649 -1.7844 -2.0915
 7424TIP3    H243764   1.720   1.262  52.174 -0.5290 -0.6339 -1.1626
 7425TIP3   OH243765   0.038   0.307  14.720 -0.1751 -0.3372 -0.2611
 7425TIP3    H143766   0.033   0.216  14.749 -1.2116 -0.6860 -1.4567
 7425TIP3    H243767   0.132   0.328  14.722  0.0769 -1.4262  0.0129
 7426TIP3   OH243768   3.121   1.477  49.592  0.1049 -0.1829  0.1973
 7426TIP3    H143769   3.184   1.547  49.609 -0.6368  0.7615 -0.7925
 7426TIP3    H243770   3.074   1.466  49.674  2.2258 -1.6556  1.3062
 7427TIP3   OH243771   1.495   1.349  55.242 -0.4674 -0.7104 -0.8396
 7427TIP3    H143772   1.425   1.414  55.251  0.7309  0.6325 -0.9096
 7427TIP3    H243773   1.575   1.401  55.232  0.5927 -2.2064 -0.4333
 7428TIP3   OH243774   2.921   2.800  56.091 -0.1220  0.2775  0.9606
 7428TIP3    H143775   2.972   2.878  56.111 -0.5400  0.6500  0.5961
 7428TIP3    H243776   2.969   2.729  56.134  1.7999  0.3026 -0.9405
 7429TIP3   OH243777   0.840   1.338  49.643  0.3217  0.5289  0.0364
 7429TIP3    H143778   0.823   1.354  49.550 -1.8719  0.8683  0.4441
 7429TIP3    H243779   0.895   1.412  49.670  0.5607  0.6896 -0.8691
 7430TIP3   OH243780   1.232   1.255  60.840 -0.2921 -0.2784  0.2052
 7430TIP3    H143781   1.232   1.163  60.868 -0.4056 -0.0276  1.0451
 7430TIP3    H243782   1.214   1.304  60.920  0.6100  0.5347 -0.0779
 7431TIP3   OH243783   2.671   1.597  15.199 -0.0924 -0.0261  0.3076
 7431TIP3    H143784   2.609   1.670  15.208 -0.5139 -0.0362 -1.8443
 7431TIP3    H243785   2.740   1.632  15.142 -0.3771 -1.3084 -0.8877
 7432TIP3   OH243786   0.824   1.059   8.459 -0.0036 -0.1493  0.0704
 7432TIP3    H143787   0.873   1.064   8.541  0.9936 -1.3697 -0.4003
 7432TIP3    H243788   0.789   0.970   8.457 -0.4001  0.0120 -0.6141
 7433TIP3   OH243789   1.276   1.018  53.699  0.1488 -0.5918  0.1393
 7433TIP3    H143790   1.251   1.056  53.615 -0.1558 -0.9619  0.0570
 7433TIP3    H243791   1.240   1.078  53.764  1.3732  0.3167  0.0124
 7434TIP3   OH243792   1.677   1.967  55.430  0.1267 -0.5866 -0.1368
 7434TIP3    H143793   1.584   1.967  55.451 -0.0769  3.2790 -0.4058
 7434TIP3    H243794   1.718   1.920  55.503 -1.8838 -1.3191  0.5889
 7435TIP3   OH243795   1.639   0.383   9.280  0.7114  0.6962  0.3850
 7435TIP3    H143796   1.548   0.410   9.273  1.1033  1.9816 -0.0780
 7435TIP3    H243797   1.689   0.464   9.268  1.9036  0.0781  1.0170
 7436TIP3   OH243798   3.205   2.232  12.155  0.2771  0.9558  0.0467
 7436TIP3    H143799   3.274   2.246  12.090  0.3438 -0.9638 -0.3604
 7436TIP3    H243800   3.126   2.266  12.115  0.3807  0.0820 -0.9252
 7437TIP3   OH243801   1.495   0.559  52.248 -0.3618 -0.5200 -0.0283
 7437TIP3    H143802   1.408   0.581  52.283  0.6051  1.5775  1.2436
 7437TIP3    H243803   1.531   0.497  52.312 -0.0011  0.5219  0.8045
 7438TIP3   OH243804   2.599   1.265  49.337 -0.0759 -0.2982  0.2035
 7438TIP3    H143805   2.690   1.256  49.308 -0.4813  0.0247 -1.2622
 7438TIP3    H243806   2.555   1.188  49.302 -0.5601  0.0341  0.0656
 7439TIP3   OH243807   2.443   2.463   8.044 -0.4483 -0.2826 -0.6638
 7439TIP3    H143808   2.390   2.428   8.115  0.5014  0.3264  0.3672
 7439TIP3    H243809   2.384   2.520   7.995 -0.4394  1.4903  1.2687
 7440TIP3   OH243810   1.663   1.759  58.579 -0.2151  0.4301  0.4935
 7440TIP3    H143811   1.696   1.824  58.641  0.8836  1.0508 -0.7023
 7440TIP3    H243812   1.606   1.702  58.631  0.4855  1.0778  1.9979
 7441TIP3   OH243813   1.487   2.196   2.935  0.3307 -0.5397  0.5595
 7441TIP3    H143814   1.427   2.193   3.009  0.0124 -0.0606  0.3252
 7441TIP3    H243815   1.432   2.181   2.858  0.3383  0.9072  0.2565
 7442TIP3   OH243816   0.096   3.174  56.700  0.1954 -0.0933 -0.1445
 7442TIP3    H143817   0.123   3.178  56.792 -1.7301  1.0227  0.4179
 7442TIP3    H243818   0.015   3.124  56.701  0.3668 -0.4147 -1.3092
 7443TIP3   OH243819   3.120   1.720  61.097  0.1070  0.3023 -0.1262
 7443TIP3    H143820   3.119   1.627  61.077  1.2459  0.8182 -2.9995
 7443TIP3    H243821   3.155   1.725  61.186 -0.7270 -2.0162  0.3997
 7444TIP3   OH243822   0.005   2.340  16.937  1.0549  0.0672  0.0817
 7444TIP3    H143823  -0.052   2.350  17.014  0.8248  0.8741 -0.1785
 7444TIP3    H243824   0.002   2.426  16.894  1.2119 -0.3613 -0.8081
 7445TIP3   OH243825   0.004   2.487   2.129  0.1973  0.5185 -0.4363
 7445TIP3    H143826  -0.043   2.413   2.089 -0.6596  1.2837 -0.8897
 7445TIP3    H243827   0.013   2.463   2.221 -0.1046 -0.1360 -0.5721
 7446TIP3   OH243828   0.328   0.943  67.318 -0.2228  0.1765  0.0190
 7446TIP3    H143829   0.387   0.890  67.372 -0.0818  0.5335  0.2141
 7446TIP3    H243830   0.277   0.995  67.380 -0.9813 -0.3689 -0.1351
 7447TIP3   OH243831   0.040   1.967  11.170 -0.4361  0.1710  1.0542
 7447TIP3    H143832   0.085   2.051  11.185 -2.0699  1.1372  0.8425
 7447TIP3    H243833   0.099   1.901  11.207  2.0217  1.1308 -0.8175
 7448TIP3   OH243834   0.881   1.819   8.587  0.1386 -0.1707  0.0452
 7448TIP3    H143835   0.938   1.780   8.521  0.3228  1.5001 -0.8604
 7448TIP3    H243836   0.815   1.867   8.536 -0.5164  0.0611  1.0806
 7449TIP3   OH243837   1.476   0.198  13.818 -0.2407  0.0185  0.3119
 7449TIP3    H143838   1.456   0.198  13.911 -2.8247  1.6646 -0.1382
 7449TIP3    H243839   1.419   0.131  13.781 -0.0053  0.1179 -0.2377
 7450TIP3   OH243840   2.669   2.783  29.761  0.2639 -0.1036  0.3580
 7450TIP3    H143841   2.599   2.831  29.805 -0.7362 -1.2686  0.1271
 7450TIP3    H243842   2.649   2.792  29.668  1.2689  0.7528  0.2069
 7451TIP3   OH243843   2.508   1.969  17.595 -0.4410 -0.4580  0.3087
 7451TIP3    H143844   2.461   1.903  17.646 -0.7961  0.7112  1.5292
 7451TIP3    H243845   2.567   2.011  17.658 -1.0167  1.1385 -0.1811
 7452TIP3   OH243846   0.144   1.053  56.169  0.3224 -0.4009 -0.6095
 7452TIP3    H143847   0.116   1.144  56.174 -1.2798 -0.8269 -1.1881
 7452TIP3    H243848   0.222   1.048  56.225 -0.1600  1.0839  0.2312
 7453TIP3   OH243849   3.003   1.271  56.567  0.0895  0.1121  0.1807
 7453TIP3    H143850   3.014   1.272  56.472  1.5318  0.6021  0.3340
 7453TIP3    H243851   3.033   1.184  56.593  1.3124  0.5576  0.3347
 7454TIP3   OH243852   0.749   0.189   8.988 -0.3645 -0.1416 -0.2131
 7454TIP3    H143853   0.677   0.147   9.036  0.4776  1.8975  3.1972
 7454TIP3    H243854   0.714   0.274   8.963  0.5793  0.5934  0.8792
 7455TIP3   OH243855   1.437   3.319  58.526  0.0902  0.2291 -0.5169
 7455TIP3    H143856   1.357   3.354  58.564  0.7638  1.4039 -0.1522
 7455TIP3    H243857   1.479   3.271  58.598 -0.9201 -1.6000 -1.0587
 7456TIP3   OH243858   2.844   0.946  47.405  0.4585 -0.3130 -0.1835
 7456TIP3    H143859   2.839   0.900  47.321  0.7194  1.2355 -1.0867
 7456TIP3    H243860   2.811   1.034  47.386  1.4043  0.3494  1.1223
 7457TIP3   OH243861   2.497   0.069  51.007 -0.0818 -0.3996 -0.4070
 7457TIP3    H143862   2.494  -0.025  51.026  0.9595 -0.5347 -0.8763
 7457TIP3    H243863   2.445   0.080  50.928 -0.4163 -0.5437 -0.2083
 7458TIP3   OH243864   2.172   1.971   8.134 -0.8263  0.1405 -0.1460
 7458TIP3    H143865   2.118   1.998   8.059 -0.6399 -0.0572 -0.3516
 7458TIP3    H243866   2.261   1.965   8.099 -0.5363  1.2106  0.3748
 7459TIP3   OH243867   1.669   2.349  43.847  0.0052 -0.1610  0.5202
 7459TIP3    H143868   1.609   2.304  43.787 -0.3232 -1.1658  1.5603
 7459TIP3    H243869   1.646   2.315  43.933  0.6999  0.9968  1.1846
 7460TIP3   OH243870   2.054   1.789  16.579  0.3519 -0.1625 -0.6630
 7460TIP3    H143871   2.128   1.764  16.633  0.4690  1.2887 -0.1073
 7460TIP3    H243872   2.085   1.779  16.489  0.5300 -1.4959 -0.4732
 7461TIP3   OH243873   2.305   2.806  65.920 -0.4350  0.1409 -0.4362
 7461TIP3    H143874   2.394   2.793  65.888 -0.5449  0.7757 -1.0197
 7461TIP3    H243875   2.250   2.754  65.861 -0.5973  0.9986 -1.0614
 7462TIP3   OH243876   1.982   0.582  21.296  0.2232 -0.1636  0.0360
 7462TIP3    H143877   1.911   0.629  21.253 -0.0358 -0.9737 -0.4433
 7462TIP3    H243878   2.036   0.651  21.334 -0.3323  0.5042 -0.3528
 7463TIP3   OH243879   3.434   0.056   4.732  0.2209  0.0052 -0.2362
 7463TIP3    H143880   3.496   0.023   4.667 -0.2344 -1.0159 -0.1726
 7463TIP3    H243881   3.427   0.150   4.714  2.3623  0.3145  0.2351
 7464TIP3   OH243882   1.787   2.255  50.010 -0.3152 -0.1070 -0.2766
 7464TIP3    H143883   1.724   2.322  49.982 -1.8619 -1.3372  0.1427
 7464TIP3    H243884   1.810   2.208  49.930 -0.4057 -0.0461 -0.3367
 7465TIP3   OH243885   0.654   1.543  61.317  0.5118  0.9729 -0.0919
 7465TIP3    H143886   0.656   1.474  61.383 -1.7569  0.2251 -0.7251
 7465TIP3    H243887   0.702   1.506  61.243  1.1064  0.9236  0.3101
 7466TIP3   OH243888   1.376   1.906  35.861  0.2336  0.6907 -0.1494
 7466TIP3    H143889   1.441   1.948  35.918  0.2708 -0.3800  0.6513
 7466TIP3    H243890   1.353   1.972  35.796  0.4176  1.8659  0.9443
 7467TIP3   OH243891   2.151   3.356  22.171 -0.4395 -0.2617  1.0161
 7467TIP3    H143892   2.169   3.440  22.213 -0.2530  0.2601 -0.0544
 7467TIP3    H243893   2.217   3.297  22.206  0.3493  0.4188  0.7237
 7468TIP3   OH243894   0.684   1.474   1.510  0.0332 -0.0521 -0.5124
 7468TIP3    H143895   0.680   1.448   1.418 -1.1818 -0.7428 -0.2892
 7468TIP3    H243896   0.617   1.542   1.518 -0.9978 -1.1026  0.1697
 7469TIP3   OH243897   0.359   3.152  19.234 -0.1124 -0.0540 -0.0733
 7469TIP3    H143898   0.297   3.093  19.276 -1.8010  0.6306 -1.5221
 7469TIP3    H243899   0.376   3.112  19.149 -0.1105  0.7774 -0.4701
 7470TIP3   OH243900   3.436   1.703  66.231  0.2115  0.2201 -0.3002
 7470TIP3    H143901   3.500   1.767  66.201  1.3643 -1.5731 -1.9570
 7470TIP3    H243902   3.481   1.656  66.301  0.0420  0.0984 -0.2737
 7471TIP3   OH243903   1.035   0.891  53.746  0.0543  0.0575 -0.1176
 7471TIP3    H143904   1.116   0.934  53.719  2.2093 -2.9361  0.9722
 7471TIP3    H243905   1.020   0.920  53.836 -0.1621  0.7193 -0.3673
 7472TIP3   OH243906   1.225   2.866   5.182  0.0629 -0.3844 -0.5122
 7472TIP3    H143907   1.277   2.786   5.187 -0.2627 -0.6073 -0.6478
 7472TIP3    H243908   1.288   2.934   5.156  0.8573 -0.0806  1.9516
 7473TIP3   OH243909   1.119   1.333   5.043  0.0385 -0.4975  0.0093
 7473TIP3    H143910   1.069   1.345   5.123 -0.4766 -0.4626 -0.3109
 7473TIP3    H243911   1.144   1.422   5.017  2.3250 -0.6343  1.4233
 7474TIP3   OH243912   2.642   0.719  17.018 -0.3812  0.0272 -0.4321
 7474TIP3    H143913   2.564   0.663  17.018 -1.3399  1.2686  1.0129
 7474TIP3    H243914   2.610   0.805  16.991  0.6787  0.3411 -0.7322
 7475TIP3   OH243915   0.376   0.310  55.642  0.0859 -0.1716 -0.0076
 7475TIP3    H143916   0.388   0.370  55.568  0.6560 -0.0926  0.1470
 7475TIP3    H243917   0.290   0.332  55.677  0.6306  1.1474  0.5721
 7476TIP3   OH243918   1.228   0.151  67.485  0.1789  0.1814  1.0875
 7476TIP3    H143919   1.313   0.151  67.441 -0.2510 -0.5783  0.2212
 7476TIP3    H243920   1.246   0.116  67.572  0.9413  1.1173  1.3279
 7477TIP3   OH243921   0.453   0.022  60.899 -0.0002  0.6513  0.1031
 7477TIP3    H143922   0.468  -0.052  60.959  1.5821 -0.5373 -1.6635
 7477TIP3    H243923   0.472  -0.013  60.812 -1.0928  2.6524 -1.0070
 7478TIP3   OH243924   2.234   0.765  43.178  0.0700  0.0454 -0.4093
 7478TIP3    H143925   2.252   0.825  43.106 -1.8892 -0.4073 -1.3423
 7478TIP3    H243926   2.188   0.692  43.138 -1.5919  0.0366  1.3514
 7479TIP3   OH243927   2.223   0.984  11.505 -0.6108 -0.4948  0.3292
 7479TIP3    H143928   2.223   1.072  11.543 -1.1191  0.2242 -1.2387
 7479TIP3    H243929   2.131   0.967  11.484 -0.5827 -1.6008  0.9977
 7480TIP3   OH243930   0.020   2.361  53.290  0.5554 -0.2371  0.2453
 7480TIP3    H143931   0.001   2.376  53.197 -0.3795  5.2623  0.9405
 7480TIP3    H243932  -0.065   2.346  53.330  0.8225 -1.3986  0.4103
 7481TIP3   OH243933   1.088   2.571  45.456 -0.2487 -0.4620  0.2688
 7481TIP3    H143934   1.155   2.577  45.524 -1.1162  0.4145  1.0652
 7481TIP3    H243935   1.024   2.639  45.478 -0.2733  0.2382 -1.7427
 7482TIP3   OH243936   0.929   2.719  18.312  0.7923  0.0286  0.3399
 7482TIP3    H143937   0.880   2.646  18.351  1.1272 -0.7527 -0.6632
 7482TIP3    H243938   0.960   2.685  18.229  0.9530  1.3324 -0.1529
 7483TIP3   OH243939   0.104   3.383  62.288  0.2751  0.3180 -0.3417
 7483TIP3    H143940   0.054   3.428  62.357 -0.1318  1.5092 -1.3674
 7483TIP3    H243941   0.162   3.324  62.335 -1.4133 -0.3911  0.9496
 7484TIP3   OH243942   2.810   0.904  43.891  0.1645 -0.0827  0.2023
 7484TIP3    H143943   2.723   0.865  43.896 -0.2237  0.9048  2.9443
 7484TIP3    H243944   2.841   0.884  43.803 -1.9142 -2.3978 -0.0976
 7485TIP3   OH243945   2.714   1.841   9.298  0.7643  0.2049 -0.1535
 7485TIP3    H143946   2.711   1.916   9.356  0.5912  0.4879 -0.5252
 7485TIP3    H243947   2.781   1.784   9.336  0.6104  0.3562  0.3527
 7486TIP3   OH243948   2.924   3.264  19.615  0.2097  0.1986 -0.0055
 7486TIP3    H143949   2.892   3.240  19.701 -0.5245 -1.0714 -0.6143
 7486TIP3    H243950   2.849   3.304  19.571  0.0668 -0.7264 -0.6422
 7487TIP3   OH243951   2.989   2.422  13.717 -0.6236  0.4532  0.1903
 7487TIP3    H143952   2.996   2.480  13.793 -1.5568  0.9814 -0.1063
 7487TIP3    H243953   2.904   2.380  13.726  0.3006 -1.4195  0.7415
 7488TIP3   OH243954   1.284   0.487  42.377 -0.0098 -0.2604 -0.8283
 7488TIP3    H143955   1.222   0.447  42.316  1.1233 -2.3972 -0.6691
 7488TIP3    H243956   1.354   0.423  42.386  2.2028  2.0087 -0.8839
 7489TIP3   OH243957   0.803   1.545  20.428  0.5563 -0.6336 -0.0771
 7489TIP3    H143958   0.895   1.531  20.452  0.2632 -0.4509  1.2261
 7489TIP3    H243959   0.795   1.641  20.421  0.3635 -0.6282  0.2257
 7490TIP3   OH243960   2.421   0.134  28.841 -0.0246  0.1245 -0.1231
 7490TIP3    H143961   2.449   0.173  28.924 -2.0666  0.4193  0.4767
 7490TIP3    H243962   2.390   0.047  28.865  0.5630 -0.2748 -0.7934
 7491TIP3   OH243963   1.539   1.267  13.078  0.3678 -0.6697 -0.3850
 7491TIP3    H143964   1.622   1.307  13.052  0.0766 -0.0286 -0.3401
 7491TIP3    H243965   1.523   1.300  13.167  0.1897 -0.9894 -0.2975
 7492TIP3   OH243966   2.716   0.955   2.995 -0.1347 -0.7247  0.8547
 7492TIP3    H143967   2.635   0.915   2.964 -0.2401  1.0979 -1.5110
 7492TIP3    H243968   2.779   0.938   2.926  0.7289  0.2621  1.3735
 7493TIP3   OH243969   1.403   2.158  12.685 -0.6822  0.1769 -0.2140
 7493TIP3    H143970   1.466   2.217  12.643  1.0387 -0.1456  1.7357
 7493TIP3    H243971   1.390   2.088  12.622  1.4278 -0.0562 -0.4696
 7494TIP3   OH243972   0.384   2.024  50.254 -0.4618 -0.1767  0.2286
 7494TIP3    H143973   0.456   2.015  50.317 -0.0435  0.4370 -0.1469
 7494TIP3    H243974   0.424   2.070  50.180 -1.6243  1.6124  0.6593
 7495TIP3   OH243975   1.599   3.156  56.499  0.6013 -0.3018 -0.0716
 7495TIP3    H143976   1.625   3.113  56.418  1.2438 -0.6243  0.2912
 7495TIP3    H243977   1.649   3.237  56.501 -0.0147  0.0889 -0.3786
 7496TIP3   OH243978   1.690   0.175   1.219  0.1655 -0.0945 -0.1293
 7496TIP3    H143979   1.603   0.213   1.213  0.1881  0.0749  0.5722
 7496TIP3    H243980   1.721   0.170   1.128 -0.3753  0.2909 -0.3346
 7497TIP3   OH243981   1.433   1.568  20.653 -0.1405  0.5293 -0.2897
 7497TIP3    H143982   1.350   1.610  20.632 -0.0930  0.6030 -0.3275
 7497TIP3    H243983   1.494   1.640  20.666  0.1148  0.4601 -1.0581
 7498TIP3   OH243984   2.729   1.635   7.706  0.1284  0.2074  0.5555
 7498TIP3    H143985   2.656   1.586   7.667  1.5063 -0.0425 -1.9675
 7498TIP3    H243986   2.793   1.567   7.729  0.9256  0.5854 -0.4386
 7499TIP3   OH243987   0.107   2.210   3.969 -0.4401  0.0053 -0.2327
 7499TIP3    H143988   0.124   2.256   4.052  0.1039  1.7585 -1.2512
 7499TIP3    H243989   0.173   2.140   3.967  0.8985  1.2075 -0.0694
 7500TIP3   OH243990   2.339   1.341  66.316 -0.0723  0.1505  0.4942
 7500TIP3    H143991   2.354   1.255  66.279 -0.1145  0.1211  0.5427
 7500TIP3    H243992   2.337   1.400  66.240 -1.3309 -0.0661  0.3498
 7501TIP3   OH243993   0.626   3.223   9.019 -0.0653  0.3528  0.2080
 7501TIP3    H143994   0.691   3.205   8.950 -1.7751  0.5970 -1.5546
 7501TIP3    H243995   0.638   3.152   9.082  1.2280 -0.1792 -0.5892
 7502TIP3   OH243996   3.151   3.366   8.689  0.7619 -0.4375  0.6980
 7502TIP3    H143997   3.142   3.406   8.775  0.6384 -1.7467  1.3156
 7502TIP3    H243998   3.070   3.316   8.677  0.1723  0.7709 -0.7750
 7503TIP3   OH243999   2.813   2.414   3.837  0.1057 -0.6371  0.3884
 7503TIP3    H144000   2.867   2.487   3.867  1.0602 -1.5141  0.8307
 7503TIP3    H244001   2.723   2.447   3.844  0.5551  1.1178 -1.0830
 7504TIP3   OH244002   2.213   1.047  53.354  0.0068  0.0980 -0.2529
 7504TIP3    H144003   2.293   0.998  53.339 -0.5023 -0.7988 -0.1090
 7504TIP3    H244004   2.164   0.995  53.418  0.0590  1.4845  0.9673
 7505TIP3   OH244005   0.598   1.339  15.771  0.0897  0.3080  0.1691
 7505TIP3    H144006   0.636   1.411  15.720  1.8490  0.2121  1.2744
 7505TIP3    H244007   0.577   1.273  15.705  3.2962 -0.2519 -0.4521
 7506TIP3   OH244008   2.104   2.525  51.742 -0.1732  0.8782  0.2913
 7506TIP3    H144009   2.105   2.491  51.653  0.7303  0.2311  0.5393
 7506TIP3    H244010   2.061   2.456  51.793 -1.2189  1.4926  0.2784
 7507TIP3   OH244011   0.955   2.154  19.101 -0.5624  0.4658  0.1509
 7507TIP3    H144012   0.914   2.140  19.187  0.6023  0.5630  0.7441
 7507TIP3    H244013   0.968   2.066  19.066  0.2825  0.3385  0.7394
 7508TIP3   OH244014   1.695   3.430  49.114  0.0303  0.4152  0.1969
 7508TIP3    H144015   1.654   3.397  49.195 -2.4149  0.8067 -0.7998
 7508TIP3    H244016   1.752   3.358  49.086  0.2405 -0.0855  1.7754
 7509TIP3   OH244017   1.176   0.471  61.140  0.7258  0.0948 -0.2148
 7509TIP3    H144018   1.158   0.489  61.048  0.0499 -1.1895 -0.3594
 7509TIP3    H244019   1.271   0.473  61.147  0.7534  1.0497 -0.7513
 7510TIP3   OH244020   2.105   0.026  49.867 -0.3513  0.0023  0.3759
 7510TIP3    H144021   2.082   0.080  49.942 -2.5596 -0.8516  0.4088
 7510TIP3    H244022   2.108  -0.064  49.902 -0.6875 -0.3173 -0.3866
 7511TIP3   OH244023   3.415   2.631  42.866  0.2547  0.0457  0.1950
 7511TIP3    H144024   3.359   2.554  42.852  0.4052 -0.0136 -0.0956
 7511TIP3    H244025   3.498   2.607  42.825 -0.6127  1.5271 -2.7571
 7512TIP3   OH244026   1.330   2.139   1.575 -0.1027  0.2414  0.8175
 7512TIP3    H144027   1.237   2.122   1.560  0.0357  0.0301  0.1495
 7512TIP3    H244028   1.336   2.234   1.585 -0.1338  0.5197 -1.2751
 7513TIP3   OH244029   1.571   0.528  18.927  0.0411 -0.7382 -0.3051
 7513TIP3    H144030   1.523   0.573  18.996  0.9321  0.5880 -0.5049
 7513TIP3    H244031   1.634   0.473  18.974  0.3197 -0.2045 -0.0372
 7514TIP3   OH244032   0.215   0.065   0.326 -0.7148  0.0510  0.0304
 7514TIP3    H144033   0.284   0.004   0.351 -1.3937 -0.4993  0.5828
 7514TIP3    H244034   0.146   0.051   0.390 -0.3731  2.3231  0.9780
 7515TIP3   OH244035   1.933   2.369  10.233  0.5488  0.5088  0.4507
 7515TIP3    H144036   1.861   2.377  10.296  0.3861 -1.5060  0.5966
 7515TIP3    H244037   1.897   2.402  10.151 -0.2145  0.4337  0.7432
 7516TIP3   OH244038   0.418   1.293  16.358  0.4285 -0.3656 -0.3154
 7516TIP3    H144039   0.370   1.356  16.304 -0.8315 -0.2941  0.8226
 7516TIP3    H244040   0.369   1.212  16.350  0.0974 -0.3023  0.8514
 7517TIP3   OH244041   0.936   0.008  10.964  0.3744 -0.2463 -0.1025
 7517TIP3    H144042   0.926  -0.082  10.997  0.7919 -0.2999 -0.1174
 7517TIP3    H244043   0.877   0.013  10.889 -1.7626  0.3312  1.5030
 7518TIP3   OH244044   0.114   3.440  56.918  0.2732 -0.0632  0.3027
 7518TIP3    H144045   0.197   3.447  56.965 -1.2019  2.4188  2.8669
 7518TIP3    H244046   0.125   3.497  56.842  0.7304  0.7318  0.9506
 7519TIP3   OH244047   0.964   2.879  61.984  0.6431 -0.5945 -0.3164
 7519TIP3    H144048   0.895   2.928  62.030 -0.8862  0.8659 -3.8154
 7519TIP3    H244049   0.969   2.795  62.030 -0.6937  0.6861  2.4096
 7520TIP3   OH244050   1.663   1.269  64.885  0.4572  0.8188 -0.3518
 7520TIP3    H144051   1.619   1.293  64.803  0.4670  1.8570 -0.0712
 7520TIP3    H244052   1.755   1.290  64.870  0.7631 -0.6538 -0.6781
 7521TIP3   OH244053   3.143   0.583  12.482 -0.1741 -0.4606  0.4041
 7521TIP3    H144054   3.178   0.495  12.468  1.5512  0.0649  1.2103
 7521TIP3    H244055   3.089   0.576  12.561  1.7444 -0.3794  1.7877
 7522TIP3   OH244056   1.999   1.350  62.655  0.6242  0.2591  0.9406
 7522TIP3    H144057   1.923   1.357  62.713  0.0637 -2.3947  0.6610
 7522TIP3    H244058   2.059   1.292  62.701  0.5699 -1.1585 -0.6669
 7523TIP3   OH244059   1.949   0.259  48.584  0.4384 -0.3905 -0.5468
 7523TIP3    H144060   1.870   0.231  48.630 -0.2581  2.4190  0.1386
 7523TIP3    H244061   2.020   0.241  48.646  0.0140 -0.5217 -0.0914
 7524TIP3   OH244062   1.470   1.926  21.515 -0.0883  0.5701  0.0295
 7524TIP3    H144063   1.379   1.934  21.545 -0.6595 -1.5952 -0.9743
 7524TIP3    H244064   1.472   1.973  21.432 -0.1258  1.1460  0.3510
 7525TIP3   OH244065   2.102   1.438  49.356  0.1188 -0.7207  0.1692
 7525TIP3    H144066   2.181   1.447  49.302 -2.1359 -0.4978 -3.4411
 7525TIP3    H244067   2.082   1.345  49.354  0.0613 -0.7299  0.8064
 7526TIP3   OH244068   2.565   0.530  62.452 -0.0962  0.4028  0.1274
 7526TIP3    H144069   2.645   0.558  62.496 -0.1456  0.0497  0.4548
 7526TIP3    H244070   2.525   0.467  62.513 -0.3100  0.1142 -0.3020
 7527TIP3   OH244071   2.510   0.659  61.545 -0.6963 -0.7506 -0.0628
 7527TIP3    H144072   2.441   0.638  61.608 -0.4428 -0.3168  0.3664
 7527TIP3    H244073   2.590   0.665  61.599 -0.5693  0.1646 -0.3423
 7528TIP3   OH244074   2.972   0.498  15.408  0.6023 -0.1720  0.2577
 7528TIP3    H144075   2.905   0.473  15.344 -1.2235  0.5271  1.8090
 7528TIP3    H244076   2.973   0.427  15.472  1.8817 -0.5045 -0.0896
 7529TIP3   OH244077   0.441   1.874   1.536 -0.0188 -0.1313 -0.0978
 7529TIP3    H144078   0.502   1.882   1.464  1.6418 -0.2430  1.2372
 7529TIP3    H244079   0.421   1.781   1.541  0.4876 -0.2298  0.0850
 7530TIP3   OH244080   3.105   0.736   9.982  0.7990 -0.6530 -0.1026
 7530TIP3    H144081   3.086   0.698   9.896  0.9505  0.6433 -0.7307
 7530TIP3    H244082   3.200   0.741   9.986  0.7602  0.7131 -0.5206
 7531TIP3   OH244083   2.350   0.827  50.649  0.1649  0.5511  0.2220
 7531TIP3    H144084   2.321   0.915  50.623 -0.2926  0.6830  1.1503
 7531TIP3    H244085   2.302   0.768  50.591 -1.3698  0.8094  1.1705
 7532TIP3   OH244086   2.935   2.343  15.010  0.3167  0.0626 -0.1669
 7532TIP3    H144087   3.023   2.361  15.045  0.3215  0.6718 -0.4812
 7532TIP3    H244088   2.909   2.425  14.968 -0.7674  0.1619  0.6694
 7533TIP3   OH244089   0.855   2.155  11.972  0.4928 -0.0682 -0.1963
 7533TIP3    H144090   0.892   2.185  11.888  1.4875 -2.4283 -0.6820
 7533TIP3    H244091   0.921   2.180  12.037 -0.7443  2.7166  0.1684
 7534TIP3   OH244092   2.830   2.244  25.948  0.0696  0.6230  0.4369
 7534TIP3    H144093   2.749   2.264  25.993  1.3852  2.8245  2.0021
 7534TIP3    H244094   2.889   2.213  26.017  2.2038  4.2730  0.5033
 7535TIP3   OH244095   3.114   1.003  26.153  0.1912  0.2842 -0.1894
 7535TIP3    H144096   3.155   1.089  26.167  1.1520 -0.4461  1.8244
 7535TIP3    H244097   3.159   0.945  26.213 -1.7500 -1.2506 -0.1174
 7536TIP3   OH244098   2.826   1.547  27.970 -0.0911 -0.7171 -0.2292
 7536TIP3    H144099   2.921   1.544  27.986  0.1531 -1.9283 -1.7597
 7536TIP3    H244100   2.814   1.622  27.912 -0.5170  1.3087  2.2579
 7537TIP3   OH244101   2.725   2.623  52.775 -0.1094 -0.2311  0.1407
 7537TIP3    H144102   2.783   2.555  52.738 -0.9363 -0.3077 -1.0813
 7537TIP3    H244103   2.784   2.681  52.823  1.2006  0.3679 -2.0488
 7538TIP3   OH244104   3.296   1.647  57.709  0.6451  0.1365 -0.1193
 7538TIP3    H144105   3.351   1.585  57.757  0.2255 -0.0265  0.1473
 7538TIP3    H244106   3.280   1.605  57.625  1.3389  0.4004 -0.3955
 7539TIP3   OH244107   0.285   2.067   4.656 -0.1304  0.7074 -0.0671
 7539TIP3    H144108   0.298   1.983   4.613 -1.1991  1.1950 -1.4125
 7539TIP3    H244109   0.255   2.045   4.744 -1.4677 -0.3504 -0.7522
 7540TIP3   OH244110   2.316   2.819   3.907 -0.2957  0.6634 -0.3480
 7540TIP3    H144111   2.324   2.745   3.847 -0.3747  0.7660 -0.4857
 7540TIP3    H244112   2.242   2.870   3.874 -0.4044  0.6678 -0.1049
 7541TIP3   OH244113   0.102   1.591  49.143 -0.2532 -0.6793 -0.5644
 7541TIP3    H144114   0.184   1.571  49.186 -0.6803  0.9138  1.1104
 7541TIP3    H244115   0.100   1.533  49.066  1.2976 -2.4148  0.6304
 7542TIP3   OH244116   2.872   0.088  67.289 -0.2211  0.2121  0.1105
 7542TIP3    H144117   2.784   0.114  67.314  0.5911  3.0012  0.4592
 7542TIP3    H244118   2.909   0.048  67.367 -1.1147 -0.8547 -0.0019
 7543TIP3   OH244119   0.320   0.297  48.384 -0.2496  0.1962  0.0180
 7543TIP3    H144120   0.298   0.390  48.381  1.0206  0.5198 -0.1999
 7543TIP3    H244121   0.339   0.280  48.476 -1.0778 -0.0117  0.1563
 7544TIP3   OH244122   3.443   3.321  29.360  0.3328 -0.0568 -0.1756
 7544TIP3    H144123   3.472   3.317  29.269  0.4201 -3.6675 -0.1381
 7544TIP3    H244124   3.523   3.317  29.412  0.1776 -0.5408  0.0285
 7545TIP3   OH244125   2.982   1.404  50.091 -0.1754 -0.0887 -0.2514
 7545TIP3    H144126   2.948   1.490  50.067  1.7010  0.7827  0.0255
 7545TIP3    H244127   2.942   1.385  50.176 -0.6491  0.4748 -0.3462
 7546TIP3   OH244128   2.067   1.833  11.429  0.4968  0.5040 -0.4650
 7546TIP3    H144129   2.053   1.928  11.433  1.8676  0.7052 -0.2574
 7546TIP3    H244130   2.147   1.822  11.379 -0.5249 -0.6532 -1.9589
 7547TIP3   OH244131   0.308   0.892  43.810  0.3547  0.2574  0.4302
 7547TIP3    H144132   0.307   0.796  43.809  1.1390  0.1239 -3.6649
 7547TIP3    H244133   0.390   0.915  43.852  1.2796 -0.9922 -0.6277
 7548TIP3   OH244134   2.538   2.948  47.479 -0.0987  0.3207  0.0743
 7548TIP3    H144135   2.577   2.996  47.552  0.4101  1.5519 -0.9687
 7548TIP3    H244136   2.613   2.922  47.425 -0.1647 -3.2090  1.4274
 7549TIP3   OH244137   0.501   1.280  50.121 -0.1184  0.5515 -0.7608
 7549TIP3    H144138   0.461   1.211  50.068  2.5336 -1.5281 -0.2925
 7549TIP3    H244139   0.585   1.297  50.079  0.2747  1.8410  0.4622
 7550TIP3   OH244140   0.918   2.361  52.502  0.2360 -0.5506 -0.2019
 7550TIP3    H144141   0.843   2.318  52.543 -0.5316  1.6057  0.7612
 7550TIP3    H244142   0.982   2.370  52.573  0.2944  0.0772 -0.3285
 7551TIP3   OH244143   2.691   2.273  58.115  0.3477 -0.4761  0.2134
 7551TIP3    H144144   2.749   2.241  58.184  2.0367  0.5964 -0.6219
 7551TIP3    H244145   2.724   2.231  58.035 -2.1789 -2.4737  0.1025
 7552TIP3   OH244146   2.051   3.031  15.126  0.3741 -0.3017  0.0551
 7552TIP3    H144147   2.104   3.082  15.065 -0.6351 -0.3626 -0.9140
 7552TIP3    H244148   2.064   2.940  15.098 -0.2706 -0.3113 -0.2339
 7553TIP3   OH244149   0.428   0.904  19.319 -0.2991 -0.5581 -0.4776
 7553TIP3    H144150   0.513   0.887  19.278 -0.3556 -0.6701 -0.5481
 7553TIP3    H244151   0.405   0.821  19.361 -0.0768 -0.3473  0.0798
 7554TIP3   OH244152   1.628   0.988  55.053  0.4206  0.4307  0.5283
 7554TIP3    H144153   1.573   1.042  54.995  1.6576  0.9254 -0.2471
 7554TIP3    H244154   1.682   1.052  55.099 -0.2644  0.0049  1.9635
 7555TIP3   OH244155   3.325   3.388  46.185  0.0539  0.4194  0.3879
 7555TIP3    H144156   3.308   3.470  46.232 -1.1861 -0.3525  1.3438
 7555TIP3    H244157   3.239   3.348  46.175  0.6374 -0.7495 -0.1036
 7556TIP3   OH244158   0.553   1.859  43.515 -0.3685 -0.3158 -0.4161
 7556TIP3    H144159   0.475   1.869  43.570  0.2307 -0.5150  0.4730
 7556TIP3    H244160   0.582   1.770  43.531 -0.4514 -0.5375 -1.4239
 7557TIP3   OH244161   0.370   1.368  12.240  0.0820 -0.5343  0.1488
 7557TIP3    H144162   0.345   1.388  12.331  0.7498 -0.9838  0.4344
 7557TIP3    H244163   0.286   1.350  12.197 -0.2911  0.1877  0.5418
 7558TIP3   OH244164   2.580   2.471   1.356 -0.0777  0.0752  0.3726
 7558TIP3    H144165   2.629   2.414   1.416  0.1949  0.3242  0.3915
 7558TIP3    H244166   2.510   2.416   1.322  2.0405 -1.3083 -2.1230
 7559TIP3   OH244167   1.535   2.971  61.178  0.1770  0.3063 -0.1642
 7559TIP3    H144168   1.599   2.993  61.246  0.3590 -1.0499  0.1242
 7559TIP3    H244169   1.587   2.932  61.108 -0.2775 -0.3257 -0.1473
 7560TIP3   OH244170   0.397   2.183  12.587  0.4708 -0.0620  0.5372
 7560TIP3    H144171   0.416   2.229  12.668  2.0734  0.3382 -0.0186
 7560TIP3    H244172   0.376   2.252  12.524  0.7826 -0.2402  0.2309
 7561TIP3   OH244173   0.431   0.352  63.175 -0.1536 -0.1124 -0.6195
 7561TIP3    H144174   0.515   0.314  63.202 -0.1818 -0.5996 -1.1894
 7561TIP3    H244175   0.432   0.441  63.209  0.5997 -0.1119 -0.6385
 7562TIP3   OH244176   2.248   0.259  54.548  0.0562  0.9114  0.0320
 7562TIP3    H144177   2.237   0.319  54.474  1.0978  0.6232 -0.3803
 7562TIP3    H244178   2.343   0.258  54.564 -0.1593  0.9858  1.3898
 7563TIP3   OH244179   1.318   1.014  59.939 -0.0788 -0.0128  0.0334
 7563TIP3    H144180   1.351   0.958  60.009 -0.3083  0.7173  0.7404
 7563TIP3    H244181   1.318   0.958  59.861 -0.4911 -1.0517  0.7615
 7564TIP3   OH244182   3.229   2.044   3.208 -0.0337 -0.1826  0.3970
 7564TIP3    H144183   3.146   2.028   3.163  0.5433 -1.7055 -0.2083
 7564TIP3    H244184   3.223   1.992   3.288 -0.1892  0.8107  1.0530
 7565TIP3   OH244185   0.658   1.207   9.385 -0.4459  0.2486 -0.2095
 7565TIP3    H144186   0.566   1.226   9.371 -1.0604 -1.4483  1.2385
 7565TIP3    H244187   0.703   1.288   9.361 -2.4548  1.7531  0.8308
 7566TIP3   OH244188   1.326   1.598  64.891  0.3944 -0.2833 -0.1146
 7566TIP3    H144189   1.337   1.682  64.847 -0.1316 -0.1027  0.0930
 7566TIP3    H244190   1.264   1.550  64.837  0.7111 -0.5500 -0.2403
 7567TIP3   OH244191   2.711   1.266  62.724 -0.4142 -0.3796  0.0173
 7567TIP3    H144192   2.628   1.259  62.772  0.7603 -0.6120  2.1203
 7567TIP3    H244193   2.726   1.360  62.715 -0.4209 -0.3276  0.5264
 7568TIP3   OH244194   0.343   2.283  64.955 -0.0439  0.3613  0.3389
 7568TIP3    H144195   0.311   2.193  64.946 -0.1952  0.2445  1.7882
 7568TIP3    H244196   0.431   2.273  64.994  1.0190  0.7577 -1.8072
 7569TIP3   OH244197   1.121   2.171  21.953  0.1244 -0.1127 -0.4038
 7569TIP3    H144198   1.133   2.265  21.965  0.2624 -0.1586 -0.1703
 7569TIP3    H244199   1.050   2.148  22.013  2.1034 -0.6884  1.8921
 7570TIP3   OH244200   3.349   2.185  11.381  0.2306  0.7742 -0.0015
 7570TIP3    H144201   3.298   2.105  11.388  3.1989 -1.3526 -0.9232
 7570TIP3    H244202   3.348   2.206  11.288  0.0912  1.4398  0.1415
 7571TIP3   OH244203   0.931   2.415  15.138  0.3174  0.2984 -0.0841
 7571TIP3    H144204   0.990   2.418  15.062  0.5068  1.5160  0.0842
 7571TIP3    H244205   0.990   2.422  15.213  0.0012  1.2093  0.0951
 7572TIP3   OH244206   0.110   2.007  48.941  0.0444  0.2953 -0.5821
 7572TIP3    H144207   0.101   1.951  49.018  2.4757  0.2629 -0.2259
 7572TIP3    H244208   0.064   1.961  48.871 -1.1886 -0.2578  0.5695
 7573TIP3   OH244209   0.182   1.816   7.042  0.0264 -0.6217 -0.0231
 7573TIP3    H144210   0.144   1.728   7.039 -1.4866  0.0138 -0.7015
 7573TIP3    H244211   0.112   1.870   7.079 -0.1921  0.7981 -2.3184
 7574TIP3   OH244212   0.881   3.350  49.587 -0.2488  0.4579 -0.0394
 7574TIP3    H144213   0.882   3.331  49.681  1.3532 -2.0192 -0.4654
 7574TIP3    H244214   0.968   3.383  49.569  0.2698 -1.2826 -0.9695
 7575TIP3   OH244215   0.874   1.735  56.000 -0.1193 -0.3396 -0.3511
 7575TIP3    H144216   0.785   1.771  55.993  0.0891  0.1998 -0.2459
 7575TIP3    H244217   0.889   1.729  56.094  0.2448  0.3066 -0.3602
 7576TIP3   OH244218   0.198   2.457  45.516  0.0547  0.0884 -0.7082
 7576TIP3    H144219   0.150   2.376  45.533  0.4217  0.0361  0.1060
 7576TIP3    H244220   0.184   2.473  45.423  0.0979 -0.9866 -0.9180
 7577TIP3   OH244221   1.562   0.525  42.919 -0.2525 -0.4821 -0.0019
 7577TIP3    H144222   1.515   0.544  43.000  0.0203 -0.2063  0.0927
 7577TIP3    H244223   1.531   0.592  42.858 -0.7273 -0.9072 -0.2353
 7578TIP3   OH244224   2.939   2.130  44.588 -0.0229 -0.1078  0.3911
 7578TIP3    H144225   2.917   2.126  44.495  1.1980 -3.4837  0.1106
 7578TIP3    H244226   2.870   2.184  44.627 -1.5851 -0.0924 -2.1716
 7579TIP3   OH244227   1.628   3.277  64.027 -0.1386  0.1961  0.0299
 7579TIP3    H144228   1.687   3.325  64.086 -0.7984  1.9376 -0.6556
 7579TIP3    H244229   1.646   3.313  63.940 -0.3091 -1.2013 -0.6158
 7580TIP3   OH244230   0.888   2.752   7.320 -0.1068 -0.1731 -0.6777
 7580TIP3    H144231   0.966   2.749   7.264 -0.1675  0.0187 -0.7755
 7580TIP3    H244232   0.823   2.799   7.267  0.3735  1.5423  0.1888
 7581TIP3   OH244233   2.551   3.015  43.354 -1.0306  0.4327  0.2937
 7581TIP3    H144234   2.566   2.949  43.287 -1.2889 -0.2190  0.8675
 7581TIP3    H244235   2.475   3.064  43.323 -0.8337  0.4661 -0.1363
 7582TIP3   OH244236   0.524   0.349  43.911 -0.5414 -0.0886  0.9171
 7582TIP3    H144237   0.456   0.294  43.950 -0.5533 -0.5559  0.2539
 7582TIP3    H244238   0.605   0.301  43.924 -0.8851 -1.9118 -2.4134
 7583TIP3   OH244239   1.781   2.365  57.916 -0.2704  0.3430  0.0166
 7583TIP3    H144240   1.853   2.325  57.868 -0.2775  1.0407 -0.5976
 7583TIP3    H244241   1.802   2.350  58.008  2.0224  2.7391 -0.0058
 7584TIP3   OH244242   1.015   0.289  46.586 -0.1301 -0.0975  0.4810
 7584TIP3    H144243   0.974   0.227  46.647  1.4139 -0.8308  0.8292
 7584TIP3    H244244   1.036   0.236  46.509  1.8126 -0.2242  1.0435
 7585TIP3   OH244245   2.586   1.867  43.113  0.3765  0.4279 -0.0899
 7585TIP3    H144246   2.673   1.854  43.076  0.6801  0.7856  0.4785
 7585TIP3    H244247   2.588   1.957  43.148 -0.2332  0.4575 -0.1196
 7586TIP3   OH244248   0.961   0.761  18.268  0.3344 -0.1035  0.1867
 7586TIP3    H144249   1.019   0.837  18.275  1.5663 -0.8049 -1.5913
 7586TIP3    H244250   0.873   0.798  18.265  0.8465  1.1705  0.3847
 7587TIP3   OH244251   2.874   2.999  27.351  0.6959 -0.1019 -0.8388
 7587TIP3    H144252   2.887   3.022  27.443 -1.9779 -0.8078 -0.1898
 7587TIP3    H244253   2.820   2.920  27.353  0.1967  0.1092 -2.9998
 7588TIP3   OH244254   0.511   3.297  11.550  0.0467  0.4507  0.6694
 7588TIP3    H144255   0.529   3.204  11.567 -1.1868  0.1957  0.7090
 7588TIP3    H244256   0.597   3.336  11.533  0.6047 -0.6506  0.8791
 7589TIP3   OH244257   1.250   0.655  20.188 -0.0168 -0.1375  0.1821
 7589TIP3    H144258   1.188   0.587  20.216  0.5054 -1.0075 -0.7124
 7589TIP3    H244259   1.236   0.664  20.094  1.6780 -0.8727 -0.1806
 7590TIP3   OH244260   2.040   2.538  12.445  0.3226  0.0503 -0.2555
 7590TIP3    H144261   2.083   2.622  12.425  0.9592 -0.0461  0.6857
 7590TIP3    H244262   1.967   2.562  12.502  0.7808 -0.0828  0.3896
 7591TIP3   OH244263   2.989   2.019  46.160  0.0137 -0.0617 -0.7685
 7591TIP3    H144264   3.037   2.076  46.220  2.2002 -1.2531 -1.2693
 7591TIP3    H244265   2.997   2.063  46.075  0.1744 -0.2180 -0.8359
 7592TIP3   OH244266   1.495   1.889  62.587  0.6540 -0.0631 -0.5826
 7592TIP3    H144267   1.526   1.826  62.522 -1.8317 -1.5775 -0.4416
 7592TIP3    H244268   1.469   1.965  62.536 -1.2395 -1.2231 -1.4667
 7593TIP3   OH244269   1.586   0.781  12.573  0.0600  0.0449  0.0773
 7593TIP3    H144270   1.570   0.763  12.665  0.8258 -1.1120  0.0081
 7593TIP3    H244271   1.505   0.755  12.529  0.1151 -0.5134  0.2993
 7594TIP3   OH244272   1.032   2.707  11.697 -0.0287 -0.1265  0.1349
 7594TIP3    H144273   1.098   2.644  11.728  1.3125  0.8258 -0.6819
 7594TIP3    H244274   1.020   2.767  11.771 -0.1286 -0.4204  0.3591
 7595TIP3   OH244275   1.733   2.518  13.280  0.3633 -1.2826 -0.1543
 7595TIP3    H144276   1.700   2.578  13.347  0.4126 -1.4406  0.0133
 7595TIP3    H244277   1.655   2.486  13.235  0.4339  1.3539 -2.4255
 7596TIP3   OH244278   1.938   1.997  11.120  0.2267  0.7017 -0.0475
 7596TIP3    H144279   1.913   2.042  11.201  0.1216  0.7240 -0.0916
 7596TIP3    H244280   2.031   1.980  11.129  0.1746  0.5312  0.1620
 7597TIP3   OH244281   3.339   2.053  59.637  0.0040  0.0945 -0.4966
 7597TIP3    H144282   3.418   2.080  59.683 -1.0932  1.4868  0.6618
 7597TIP3    H244283   3.358   1.964  59.607  1.8125  0.2191  0.1499
 7598TIP3   OH244284   0.770   0.742  17.411  0.2862 -0.4982 -0.3091
 7598TIP3    H144285   0.733   0.828  17.395 -2.4315 -1.6060 -0.4659
 7598TIP3    H244286   0.784   0.738  17.506  0.7926  0.2159 -0.3482
 7599TIP3   OH244287   3.134   0.926   8.465  0.1184  0.0234 -0.1359
 7599TIP3    H144288   3.150   0.839   8.502 -0.1809 -1.1058 -2.4574
 7599TIP3    H244289   3.211   0.944   8.411  0.4182  1.4714  0.7222
 7600TIP3   OH244290   0.729   1.358   0.173 -0.2807 -0.4737 -0.0797
 7600TIP3    H144291   0.643   1.397   0.156 -0.7829 -1.5395 -0.1096
 7600TIP3    H244292   0.778   1.426   0.218 -1.4844 -0.1827  0.8433
 7601TIP3   OH244293   0.017   2.472   0.742 -0.0151  0.8188 -0.1162
 7601TIP3    H144294   0.060   2.420   0.809  0.0939  0.5555 -0.3880
 7601TIP3    H244295  -0.047   2.412   0.702 -1.2663  1.4446  0.8615
 7602TIP3   OH244296   3.116   2.221  42.496  0.1010 -0.6477 -0.3173
 7602TIP3    H144297   3.127   2.131  42.467 -2.2965 -0.6978 -1.3232
 7602TIP3    H244298   3.148   2.274  42.423  3.2090 -0.5434  0.9640
 7603TIP3   OH244299   3.386   2.317  52.565  0.0474  0.4028  0.0952
 7603TIP3    H144300   3.431   2.241  52.601  0.4464  1.1138  1.1335
 7603TIP3    H244301   3.306   2.281  52.525 -0.4643 -0.4067  1.7740
 7604TIP3   OH244302   0.433   0.847  12.574 -0.1060 -0.3453 -0.6373
 7604TIP3    H144303   0.368   0.799  12.523 -0.2498  0.9888 -1.7410
 7604TIP3    H244304   0.512   0.792  12.570  0.3035  0.2946 -3.4445
 7605TIP3   OH244305   0.601   0.560   3.141 -0.0801  0.4343 -0.0475
 7605TIP3    H144306   0.563   0.523   3.220  0.9944  1.4673  0.9939
 7605TIP3    H244307   0.668   0.621   3.172  1.6175 -0.4295 -1.7538
 7606TIP3   OH244308   1.456   2.798  52.325  0.1842  0.8637 -0.5228
 7606TIP3    H144309   1.379   2.814  52.378  0.9395  0.6476  0.6818
 7606TIP3    H244310   1.528   2.790  52.388  0.9750 -0.2789 -1.5078
 7607TIP3   OH244311   2.934   0.986  18.986  0.8088 -0.1540  0.0503
 7607TIP3    H144312   2.979   1.011  18.905  0.6189  2.1903  0.5855
 7607TIP3    H244313   2.901   1.069  19.022  1.0364 -1.0803  2.6316
 7608TIP3   OH244314   1.976   1.581  20.006  0.0575 -0.2694  0.1129
 7608TIP3    H144315   2.045   1.646  19.993  0.1325 -0.4373 -0.3205
 7608TIP3    H244316   1.963   1.542  19.920 -0.3834 -0.4355  0.2530
 7609TIP3   OH244317   0.966   0.895  46.973  0.1080  0.2673 -0.8271
 7609TIP3    H144318   0.969   0.983  47.013  0.5876  0.1705 -0.6455
 7609TIP3    H244319   0.956   0.912  46.879 -0.9474  0.5002 -0.6939
 7610TIP3   OH244320   3.451   1.267  56.898 -0.1331  0.2572  1.0880
 7610TIP3    H144321   3.483   1.209  56.968 -0.7798 -0.2669  0.9609
 7610TIP3    H244322   3.378   1.219  56.859  0.6791  0.1979 -0.4431
 7611TIP3   OH244323   1.863   1.759  43.863  0.2540 -0.3345 -0.3513
 7611TIP3    H144324   1.903   1.783  43.779  1.8002  0.1458  0.4953
 7611TIP3    H244325   1.911   1.811  43.928 -0.8791 -0.7476  0.8484
 7612TIP3   OH244326   2.692   2.411  52.229 -0.2068  0.8286 -0.1960
 7612TIP3    H144327   2.717   2.479  52.166  1.6540 -0.6998 -1.2279
 7612TIP3    H244328   2.767   2.352  52.232 -1.3938 -0.7248  1.3172
 7613TIP3   OH244329   1.470   2.067  20.099 -0.2944  0.0193  0.3014
 7613TIP3    H144330   1.475   1.995  20.036 -0.5756 -0.5590  0.9326
 7613TIP3    H244331   1.398   2.121  20.067 -0.9657 -0.7049  0.5671
 7614TIP3   OH244332   1.581   2.118   5.839 -0.0063 -0.4858  0.4289
 7614TIP3    H144333   1.665   2.079   5.862  0.4192 -0.0491 -0.3291
 7614TIP3    H244334   1.560   2.176   5.912 -0.1266 -1.3141  1.0623
 7615TIP3   OH244335   0.690   0.532  34.725 -0.1989  0.1907 -0.1043
 7615TIP3    H144336   0.604   0.551  34.762 -1.1991 -0.3457 -1.9863
 7615TIP3    H244337   0.714   0.446  34.761 -0.4260  0.3529  0.4431
 7616TIP3   OH244338   1.935   2.718   1.462  0.3730  0.0590  0.5751
 7616TIP3    H144339   2.029   2.706   1.468  0.5104  1.0279  0.5109
 7616TIP3    H244340   1.915   2.700   1.370  0.4190 -0.5805  0.6840
 7617TIP3   OH244341   0.893   2.387  66.410 -0.2715 -0.3478  0.5973
 7617TIP3    H144342   0.832   2.313  66.405 -0.3697 -0.2596  0.4796
 7617TIP3    H244343   0.848   2.451  66.465 -0.5294 -0.0552  0.0584
 7618TIP3   OH244344   1.630   3.090  10.196  0.3813  0.0908 -0.7512
 7618TIP3    H144345   1.693   3.055  10.133 -0.3611 -0.7071 -1.0714
 7618TIP3    H244346   1.603   3.175  10.160  2.2331  1.0726  0.0542
 7619TIP3   OH244347   1.030   0.742   3.467  0.1405  0.1834  0.3939
 7619TIP3    H144348   1.125   0.753   3.473  0.2211 -0.7507  0.9515
 7619TIP3    H244349   1.016   0.647   3.477 -0.9048  0.3963  1.0751
 7620TIP3   OH244350   2.841   0.603  21.839  0.5697 -0.0619 -0.1400
 7620TIP3    H144351   2.781   0.533  21.813  0.1352  0.6970 -1.2167
 7620TIP3    H244352   2.846   0.596  21.935 -1.3457 -0.0602 -0.0051
 7621TIP3   OH244353   1.177   1.715  52.152  0.5044  0.0428 -0.1340
 7621TIP3    H144354   1.114   1.684  52.216  0.8690 -0.1032  0.1619
 7621TIP3    H244355   1.209   1.798  52.189  0.5480  0.0702 -0.2340
 7622TIP3   OH244356   2.650   1.497  15.474  0.4772  0.0428 -0.3782
 7622TIP3    H144357   2.624   1.547  15.397 -1.5723 -1.7127 -0.9410
 7622TIP3    H244358   2.742   1.518  15.487  0.0290  2.9410 -1.2667
 7623TIP3   OH244359   3.315   1.779  61.777 -0.1644  0.4735 -0.0725
 7623TIP3    H144360   3.316   1.688  61.748  1.8821  0.1012  0.9736
 7623TIP3    H244361   3.225   1.795  61.805 -1.4339 -0.1324 -3.3449
 7624TIP3   OH244362   2.478   0.420  15.802 -0.0145  0.4138  0.3112
 7624TIP3    H144363   2.549   0.388  15.746  1.0829  0.9309  1.3554
 7624TIP3    H244364   2.398   0.395  15.756  0.7205 -3.3293  0.7340
 7625TIP3   OH244365   0.828   2.115  45.546  0.0012  0.1327 -0.2396
 7625TIP3    H144366   0.824   2.210  45.557 -0.1236  0.4330 -2.4325
 7625TIP3    H244367   0.898   2.102  45.482 -0.0148 -1.2563 -0.0009
 7626TIP3   OH244368   0.900   2.641  59.674 -0.3297 -0.1151 -0.1147
 7626TIP3    H144369   0.981   2.635  59.725 -0.5237 -2.7268  0.0208
 7626TIP3    H244370   0.836   2.592  59.725 -1.7131  0.9247 -0.7916
 7627TIP3   OH244371   1.406   0.722  53.755 -0.3311  0.1473 -0.1598
 7627TIP3    H144372   1.418   0.736  53.661 -1.5797  1.1842 -0.1949
 7627TIP3    H244373   1.313   0.702  53.764 -0.4850  1.2443  0.9652
 7628TIP3   OH244374   0.130   2.365  63.804 -0.6201  0.3549  0.0282
 7628TIP3    H144375   0.099   2.282  63.842 -0.2224 -0.0036 -0.4217
 7628TIP3    H244376   0.079   2.432  63.850 -3.6152 -0.2831 -2.0684
 7629TIP3   OH244377   0.688   1.036  53.534  0.3524 -0.0840  0.4097
 7629TIP3    H144378   0.747   0.969  53.501  0.1634 -0.3576  0.6300
 7629TIP3    H244379   0.667   1.089  53.457  0.6741 -0.1436  0.2794
 7630TIP3   OH244380   3.378   1.496  52.524  0.4101 -0.1040 -0.5197
 7630TIP3    H144381   3.393   1.434  52.595  0.0299 -0.2153 -0.5372
 7630TIP3    H244382   3.370   1.581  52.568 -0.0084 -0.1973 -0.4111
 7631TIP3   OH244383   0.070   2.315  49.860  0.0975 -0.3220 -0.0019
 7631TIP3    H144384   0.036   2.331  49.772 -0.7899 -0.6167  0.2845
 7631TIP3    H244385   0.155   2.272  49.845 -1.1822 -2.7412 -0.7334
 7632TIP3   OH244386   2.565   0.943  44.465  0.0674  0.5449  0.2168
 7632TIP3    H144387   2.474   0.920  44.452 -0.1442  1.3304  0.2358
 7632TIP3    H244388   2.601   0.872  44.518 -0.5355  0.2466  0.2288
 7633TIP3   OH244389   2.852   1.763   1.344  0.2705  0.1248  0.3748
 7633TIP3    H144390   2.866   1.670   1.326 -1.0792 -0.4763  2.1540
 7633TIP3    H244391   2.897   1.808   1.272  1.3985 -1.8673 -0.2619
 7634TIP3   OH244392   1.587   1.091   0.369  0.4099  0.1549 -0.2586
 7634TIP3    H144393   1.543   1.030   0.310 -0.8267 -0.7520  1.5024
 7634TIP3    H244394   1.598   1.042   0.451  2.4678  1.2103  0.1607
 7635TIP3   OH244395   3.260   2.650  18.470  0.0685  0.1224 -0.1661
 7635TIP3    H144396   3.295   2.585  18.531 -1.0795 -0.5388 -0.1821
 7635TIP3    H244397   3.236   2.725  18.525 -0.1331 -0.1221  0.0810
 7636TIP3   OH244398   1.428   1.744   2.084 -0.2885 -0.0854 -0.1178
 7636TIP3    H144399   1.422   1.796   2.003 -1.3934 -0.2612 -0.1619
 7636TIP3    H244400   1.401   1.805   2.153  1.7299  0.4068  0.3002
 7637TIP3   OH244401   3.380   2.329  11.602  0.4713  0.0206  0.0033
 7637TIP3    H144402   3.356   2.280  11.523  0.5037 -0.3282  0.2091
 7637TIP3    H244403   3.408   2.414  11.569  1.4202 -0.4510 -0.4411
 7638TIP3   OH244404   0.850   0.441  12.457 -0.0515 -0.1566  0.0176
 7638TIP3    H144405   0.775   0.438  12.398  0.6480 -0.6422 -0.8755
 7638TIP3    H244406   0.813   0.460  12.544 -1.3331 -1.7190 -0.1647
 7639TIP3   OH244407   3.172   1.106  54.512  0.0351  0.1582 -0.0713
 7639TIP3    H144408   3.211   1.039  54.568  0.1787  0.0273 -0.3249
 7639TIP3    H244409   3.246   1.145  54.466 -0.2283 -1.0795 -1.6554
 7640TIP3   OH244410   1.895   1.180   1.452  0.1976 -0.5133 -0.4556
 7640TIP3    H144411   1.823   1.124   1.424 -0.2530 -0.2579  0.1817
 7640TIP3    H244412   1.874   1.204   1.542  1.9034 -1.7946  0.3507
 7641TIP3   OH244413   0.209   1.714  22.445 -0.0425  0.0746 -0.6376
 7641TIP3    H144414   0.234   1.631  22.486 -1.9351  0.0885  0.6898
 7641TIP3    H244415   0.279   1.731  22.381  0.5718 -2.3607 -0.7411
 7642TIP3   OH244416   3.064   2.143  17.865  0.3855  0.0143 -0.5760
 7642TIP3    H144417   3.034   2.209  17.802  1.4008  0.5216 -0.5394
 7642TIP3    H244418   3.126   2.089  17.816  1.7488  0.8589  0.1471
 7643TIP3   OH244419   2.487   0.434   3.571 -0.3464 -0.5719  0.0156
 7643TIP3    H144420   2.485   0.526   3.597 -0.2246  0.5910 -3.5679
 7643TIP3    H244421   2.398   0.415   3.543 -0.1471 -1.2452 -0.1821
 7644TIP3   OH244422   0.774   3.128  11.350  0.0319 -0.2360 -0.0229
 7644TIP3    H144423   0.720   3.206  11.339 -0.0659 -0.2276  0.4626
 7644TIP3    H244424   0.860   3.153  11.317  0.0989  0.2051  0.4614
 7645TIP3   OH244425   1.245   0.141   2.748  0.3404  0.6224 -0.6889
 7645TIP3    H144426   1.288   0.133   2.663 -2.3110  2.3034 -2.3320
 7645TIP3    H244427   1.274   0.227   2.781 -1.6479  1.8139 -1.8559
 7646TIP3   OH244428   2.848   1.931   2.066 -0.7383  0.2357  0.2315
 7646TIP3    H144429   2.915   1.981   2.113 -0.0558 -0.7480  0.3364
 7646TIP3    H244430   2.786   1.997   2.036 -0.3774  1.0472  1.1926
 7647TIP3   OH244431   0.172   0.223  14.089  0.2491  0.4352 -0.1775
 7647TIP3    H144432   0.223   0.190  14.163  0.0613 -0.3722 -0.3980
 7647TIP3    H244433   0.194   0.164  14.017  0.7601  1.4668 -0.8856
 7648TIP3   OH244434   2.327   0.505  11.768  0.2620 -0.5695 -0.1682
 7648TIP3    H144435   2.376   0.558  11.705  1.9483 -2.5049 -0.5729
 7648TIP3    H244436   2.296   0.569  11.833  1.0501  1.0790 -1.3340
 7649TIP3   OH244437   0.774   3.419   4.016  0.3923  0.3435 -0.2199
 7649TIP3    H144438   0.789   3.388   3.927  0.7642 -0.4518  0.1134
 7649TIP3    H244439   0.853   3.469   4.038  0.5646  0.0336 -0.1250
 7650TIP3   OH244440   0.873   1.217   6.872 -0.0145  0.0489 -0.1828
 7650TIP3    H144441   0.813   1.244   6.802  0.4232  0.3225 -0.4627
 7650TIP3    H244442   0.828   1.240   6.953 -0.3016  0.2196 -0.3894
 7651TIP3   OH244443   2.119   2.038  16.367 -0.9066 -0.2082 -0.0481
 7651TIP3    H144444   2.207   2.073  16.357 -0.7640 -0.8238 -1.0523
 7651TIP3    H244445   2.095   2.059  16.457 -0.1713  0.9385 -0.0951
 7652TIP3   OH244446   0.317   2.292  16.868 -0.2490 -0.3089 -0.4802
 7652TIP3    H144447   0.223   2.304  16.882 -0.2197 -0.8143  0.2059
 7652TIP3    H244448   0.324   2.206  16.826 -0.0535 -0.5739  0.0834
 7653TIP3   OH244449   2.488   0.940  58.659 -0.0741 -0.0404 -0.7072
 7653TIP3    H144450   2.463   0.948  58.751 -0.7958  1.4566 -1.0033
 7653TIP3    H244451   2.563   0.999  58.650 -1.0024  1.0596 -1.4164
 7654TIP3   OH244452   0.546   3.449   2.468 -0.9882 -0.0609  0.5473
 7654TIP3    H144453   0.562   3.541   2.488 -0.4339 -0.3734  1.5838
 7654TIP3    H244454   0.629   3.405   2.484 -1.2232 -0.7411 -0.0125
 7655TIP3   OH244455   1.751   3.371   0.373  0.4023 -0.0546  0.0412
 7655TIP3    H144456   1.807   3.429   0.425  0.1788  1.2337 -1.0805
 7655TIP3    H244457   1.810   3.304   0.339  1.0801  0.6743 -0.2568
 7656TIP3   OH244458   1.415   2.227  48.345  0.2579 -0.9626 -0.6282
 7656TIP3    H144459   1.491   2.170  48.357  0.9913  0.2953  0.9933
 7656TIP3    H244460   1.425   2.295  48.412 -2.2056 -0.6731 -0.4690
 7657TIP3   OH244461   0.044   3.115  67.466  0.0824  0.1834  0.4493
 7657TIP3    H144462   0.086   3.031  67.446 -2.1298 -0.9278  0.1927
 7657TIP3    H244463  -0.049   3.100  67.449 -0.5273  2.3569  1.5442
 7658TIP3   OH244464   0.355   0.610   0.256 -0.0914  0.1390  0.2846
 7658TIP3    H144465   0.305   0.664   0.196 -1.1573 -0.0206  0.9925
 7658TIP3    H244466   0.289   0.560   0.304  0.8299 -1.5397 -0.1006
 7659TIP3   OH244467   0.440   0.601  67.247 -0.1870 -0.3757  0.9768
 7659TIP3    H144468   0.500   0.673  67.228  0.3967 -0.8579  0.9372
 7659TIP3    H244469   0.375   0.638  67.306  0.4231  0.0358  1.3994
 7660TIP3   OH244470   1.487   2.071  16.734 -0.0653  0.1400 -0.3200
 7660TIP3    H144471   1.550   2.083  16.662  0.1146  1.4118  0.0295
 7660TIP3    H244472   1.405   2.105  16.699 -0.1323  0.1602 -0.1408
 7661TIP3   OH244473   3.321   3.191  20.226 -0.1782 -0.0940  0.1822
 7661TIP3    H144474   3.340   3.098  20.241 -1.1546 -0.4894 -0.9096
 7661TIP3    H244475   3.225   3.196  20.226 -0.1336  0.9354  0.2929
 7662TIP3   OH244476   0.611   0.874   4.365 -0.2794  0.0126 -0.2324
 7662TIP3    H144477   0.664   0.801   4.396 -2.6510 -1.1667  1.3000
 7662TIP3    H244478   0.618   0.870   4.270  2.7475  0.2839 -0.1227
 7663TIP3   OH244479   1.229   2.515  55.753 -0.3359 -0.2670  0.3346
 7663TIP3    H144480   1.167   2.496  55.823  1.1897 -2.8702  1.1192
 7663TIP3    H244481   1.175   2.526  55.675 -1.9341  0.5922  1.5335
 7664TIP3   OH244482   0.979   3.046  61.151  0.2701  0.1217 -0.5491
 7664TIP3    H144483   1.057   3.092  61.180  0.9585 -0.5003 -1.3488
 7664TIP3    H244484   1.003   2.953  61.156 -0.7538 -0.1235  0.1139
 7665TIP3   OH244485   2.383   1.313  64.107 -0.0505 -0.1404  0.1121
 7665TIP3    H144486   2.465   1.265  64.097  0.2865  0.2098  1.1693
 7665TIP3    H244487   2.344   1.310  64.019  2.0181  1.4134 -0.9420
 7666TIP3   OH244488   0.320   2.603  10.763  0.4225  0.1462 -0.1367
 7666TIP3    H144489   0.280   2.516  10.761 -0.2367  0.4410 -0.0876
 7666TIP3    H244490   0.414   2.586  10.768  0.2806 -0.5617  0.2479
 7667TIP3   OH244491   2.813   3.348  52.641  0.0914  0.6834 -0.0673
 7667TIP3    H144492   2.868   3.423  52.621  3.4893 -1.1593  1.5904
 7667TIP3    H244493   2.829   3.286  52.570 -1.5822  0.8903 -0.6797
 7668TIP3   OH244494   2.899   0.129  58.389 -0.3034  0.0304  0.1523
 7668TIP3    H144495   2.882   0.064  58.458 -1.0059 -2.0489 -1.8472
 7668TIP3    H244496   2.951   0.082  58.324  0.4748  1.9699 -0.6977
 7669TIP3   OH244497   1.761   2.310   3.472 -0.0282 -0.0153 -0.0393
 7669TIP3    H144498   1.780   2.252   3.398  1.5423 -0.4318  0.6614
 7669TIP3    H244499   1.699   2.374   3.436 -0.8638 -1.3706 -1.1636
 7670TIP3   OH244500   1.714   1.312  22.238  0.6706 -0.0508 -0.0036
 7670TIP3    H144501   1.709   1.264  22.155  0.2108 -0.4504  0.2513
 7670TIP3    H244502   1.735   1.245  22.303  0.9684  0.2510  0.2122
 7671TIP3   OH244503   2.478   0.310  10.647 -0.0266 -0.3534 -0.1949
 7671TIP3    H144504   2.451   0.301  10.738  0.2508 -0.7145 -0.1465
 7671TIP3    H244505   2.434   0.238  10.601 -0.1808 -0.1623 -0.3497
 7672TIP3   OH244506   3.044   2.804  60.159  0.0264 -0.2523  0.3328
 7672TIP3    H144507   3.035   2.733  60.095 -0.1385 -0.5131  0.6403
 7672TIP3    H244508   2.971   2.790  60.219  0.3969 -0.2303  0.7881
 7673TIP3   OH244509   2.997   2.822  46.624 -0.0149 -0.0427  0.6017
 7673TIP3    H144510   2.931   2.787  46.564 -0.6423  0.0154  1.2371
 7673TIP3    H244511   2.947   2.843  46.704  0.3957  1.9849  0.3593
 7674TIP3   OH244512   2.629   2.721  65.461 -0.3503 -0.0509 -0.1570
 7674TIP3    H144513   2.621   2.638  65.415  2.4571 -0.2279 -0.5067
 7674TIP3    H244514   2.692   2.772  65.409 -0.3214  1.4089  1.2154
 7675TIP3   OH244515   1.001   2.022  58.795 -0.1196 -0.0000  0.2473
 7675TIP3    H144516   0.932   2.086  58.777 -0.0173 -0.0171 -0.2402
 7675TIP3    H244517   1.025   1.989  58.708  1.3086  0.8517  0.2795
 7676TIP3   OH244518   3.420   0.422   3.527  0.6986  0.0347 -0.5316
 7676TIP3    H144519   3.499   0.454   3.572  0.1579 -0.8170  1.0953
 7676TIP3    H244520   3.369   0.378   3.596 -0.7908 -0.1952 -1.7304
 7677TIP3   OH244521   0.294   1.553  20.241 -0.4445 -0.3896 -0.9619
 7677TIP3    H144522   0.253   1.633  20.209  0.7586  0.3258 -0.7752
 7677TIP3    H244523   0.224   1.488  20.240 -1.1052  0.2982 -2.4469
 7678TIP3   OH244524   1.045   1.868  43.877  0.2489 -0.0392 -0.4422
 7678TIP3    H144525   1.045   1.806  43.804 -1.2952 -2.7012  1.6541
 7678TIP3    H244526   1.055   1.814  43.955  1.5683  2.6574  1.4295
 7679TIP3   OH244527   2.633   1.689  62.068  0.7373 -0.2480  0.1388
 7679TIP3    H144528   2.610   1.597  62.075 -1.2461  0.0923 -1.1157
 7679TIP3    H244529   2.590   1.718  61.987 -0.6100  2.3073  1.6531
 7680TIP3   OH244530   0.520   2.754  51.097 -0.1222 -0.0929  0.4153
 7680TIP3    H144531   0.431   2.790  51.102 -0.4386 -0.5882 -1.0422
 7680TIP3    H244532   0.575   2.823  51.133 -1.1869 -0.3416  2.7343
 7681TIP3   OH244533   0.525   2.529  47.139  0.5733  0.1635  0.1076
 7681TIP3    H144534   0.513   2.503  47.230  0.5667 -2.1010 -0.4821
 7681TIP3    H244535   0.437   2.525  47.101  0.9038 -1.5142 -0.5809
 7682TIP3   OH244536   2.299   1.675  17.367 -0.4465 -0.2268 -0.0227
 7682TIP3    H144537   2.363   1.706  17.302 -2.2586 -0.4531 -2.0405
 7682TIP3    H244538   2.222   1.651  17.315 -2.8986  1.7409  2.3790
 7683TIP3   OH244539   2.344   0.251  56.580 -0.4004  0.6137 -0.1095
 7683TIP3    H144540   2.339   0.283  56.490  1.5919 -0.6329 -0.7201
 7683TIP3    H244541   2.255   0.225  56.602 -0.8844  0.7742 -1.7836
 7684TIP3   OH244542   0.742   1.041  12.797 -0.5566 -0.1647  0.0474
 7684TIP3    H144543   0.810   0.980  12.767  0.0254  0.6155 -0.2487
 7684TIP3    H244544   0.721   1.092  12.719 -0.0839  0.9071  0.6122
 7685TIP3   OH244545   3.401   3.422  12.664  0.1798  0.2478 -0.4503
 7685TIP3    H144546   3.483   3.372  12.664  0.2282  0.3235 -0.2002
 7685TIP3    H244547   3.372   3.419  12.755  0.1877  0.6770 -0.4307
 7686TIP3   OH244548   0.196   0.708  58.534  0.0152  0.2210 -0.1652
 7686TIP3    H144549   0.177   0.755  58.452 -0.9246  1.1823  0.5759
 7686TIP3    H244550   0.259   0.764  58.579 -2.0920  1.5385  1.3195
 7687TIP3   OH244551   2.761   1.372  48.204 -0.0047 -0.1919 -0.2979
 7687TIP3    H144552   2.739   1.303  48.141 -0.9293 -0.8619  0.7245
 7687TIP3    H244553   2.822   1.331  48.265  2.3418  0.9716 -1.7230
 7688TIP3   OH244554   2.477   0.506  47.874 -0.2786 -0.2011 -0.1991
 7688TIP3    H144555   2.425   0.540  47.801 -0.4403  0.8757  0.3904
 7688TIP3    H244556   2.453   0.562  47.948  0.8277 -0.4615  0.3713
 7689TIP3   OH244557   2.355   2.284   6.835 -0.2174 -0.0696  0.1225
 7689TIP3    H144558   2.450   2.301   6.839 -0.3922  1.0112  0.0040
 7689TIP3    H244559   2.342   2.240   6.752  0.3188 -1.2216  0.6263
 7690TIP3   OH244560   0.470   0.299  60.902  0.3072 -0.3104 -0.3501
 7690TIP3    H144561   0.465   0.285  60.808  2.0091 -1.1290 -0.3558
 7690TIP3    H244562   0.470   0.211  60.940 -0.5030  0.0140  0.4384
 7691TIP3   OH244563   1.628   1.912  17.406 -0.3396  0.2107  0.5236
 7691TIP3    H144564   1.672   1.853  17.345  0.7326 -0.4830  1.9292
 7691TIP3    H244565   1.584   1.976  17.349 -1.1783 -1.6344 -1.0254
 7692TIP3   OH244566   0.459   1.890  46.500 -0.1254  0.5506 -0.0270
 7692TIP3    H144567   0.486   1.967  46.550 -1.8129  0.7843  0.5831
 7692TIP3    H244568   0.419   1.926  46.421 -2.3551  0.4347  0.9684
 7693TIP3   OH244569   3.022   0.576  21.654 -0.1643 -1.0303 -0.0807
 7693TIP3    H144570   2.959   0.565  21.582 -0.4845 -1.1127  0.2122
 7693TIP3    H244571   2.970   0.606  21.728  0.0689 -1.5202  0.2917
 7694TIP3   OH244572   2.284   3.361  12.692 -0.1119 -0.1445  0.1350
 7694TIP3    H144573   2.375   3.353  12.721 -0.9020 -1.5890  2.4792
 7694TIP3    H244574   2.264   3.454  12.703  0.4548 -0.1805  1.7905
 7695TIP3   OH244575   2.617   1.046  53.754 -0.0407 -0.0618 -0.2115
 7695TIP3    H144576   2.640   0.980  53.689 -1.6984 -0.3527 -0.5623
 7695TIP3    H244577   2.524   1.065  53.737 -0.1441  0.8568  1.1954
 7696TIP3   OH244578   0.186   3.233  47.631  0.3588 -0.4989  0.1423
 7696TIP3    H144579   0.127   3.308  47.639  0.4155 -0.4312 -0.0638
 7696TIP3    H244580   0.199   3.223  47.537  1.4458  0.0987  0.2023
 7697TIP3   OH244581   1.415   0.337  50.498 -0.0945  0.1080 -0.3747
 7697TIP3    H144582   1.433   0.344  50.592 -0.3860  0.7290 -0.3632
 7697TIP3    H244583   1.466   0.261  50.470 -1.2642 -1.0656  0.5906
 7698TIP3   OH244584   1.901   2.852  43.268 -0.4735  0.2121  0.1913
 7698TIP3    H144585   1.966   2.783  43.256  0.6839  1.3797 -0.6005
 7698TIP3    H244586   1.870   2.842  43.358  0.6513 -0.5032  0.5146
 7699TIP3   OH244587   0.521   1.045  18.210  0.8761 -0.4565  0.0551
 7699TIP3    H144588   0.428   1.068  18.204  1.4290  1.7745 -2.1551
 7699TIP3    H244589   0.538   1.034  18.303 -2.0192 -3.1660  0.4149
 7700TIP3   OH244590   1.167   2.831  11.413  0.3789  0.9353 -0.1713
 7700TIP3    H144591   1.080   2.840  11.374  0.0701  0.5160  0.4060
 7700TIP3    H244592   1.174   2.738  11.433 -0.5078  1.4097  3.0656
 7701TIP3   OH244593   1.496   2.560   3.929 -0.0296 -0.5000  0.5721
 7701TIP3    H144594   1.494   2.620   4.004 -0.5478 -1.0528  1.0076
 7701TIP3    H244595   1.518   2.475   3.966  0.2178 -0.6796  0.0235
 7702TIP3   OH244596   3.011   2.794  12.120 -0.3172 -0.2398 -0.4406
 7702TIP3    H144597   2.962   2.713  12.105  0.1250 -0.4208 -0.9261
 7702TIP3    H244598   3.092   2.782  12.072  0.5594 -0.2734  0.9962
 7703TIP3   OH244599   1.250   1.297  46.585 -0.1926  0.1372  0.5040
 7703TIP3    H144600   1.211   1.384  46.597  0.3506  0.3999  0.4143
 7703TIP3    H244601   1.231   1.250  46.666 -1.5901 -0.1019  0.0563
 7704TIP3   OH244602   2.194   1.234  13.183 -0.2092  0.1240 -0.0504
 7704TIP3    H144603   2.141   1.276  13.115  2.5737  1.0163 -1.8092
 7704TIP3    H244604   2.181   1.288  13.261 -1.7461  0.3597 -0.4363
 7705TIP3   OH244605   1.106   2.409  63.640  0.5286  0.1722 -0.0728
 7705TIP3    H144606   1.094   2.362  63.722 -0.2474  0.8162  0.2000
 7705TIP3    H244607   1.051   2.362  63.577  1.3345 -0.4846 -0.3044
 7706TIP3   OH244608   2.535   2.821  27.051  0.3350 -0.3105 -0.0814
 7706TIP3    H144609   2.440   2.817  27.058  0.1919 -2.1520 -1.9644
 7706TIP3    H244610   2.551   2.876  26.974  0.9131  1.6445  1.3788
 7707TIP3   OH244611   2.984   2.636  22.692  0.1590  0.2547 -0.2455
 7707TIP3    H144612   3.027   2.721  22.690  0.0280  0.3196 -1.5118
 7707TIP3    H244613   2.894   2.655  22.665 -0.7015  0.1174  2.2763
 7708TIP3   OH244614   0.641   1.010  59.154  0.2684  0.3817  0.0645
 7708TIP3    H144615   0.598   1.058  59.225  1.9861  3.3554 -0.7255
 7708TIP3    H244616   0.594   1.037  59.075  1.2856  0.8358 -0.4017
 7709TIP3   OH244617   2.484   1.222  58.401  0.2125 -0.3979  0.2042
 7709TIP3    H144618   2.502   1.297  58.344  0.4233  0.4687  1.3704
 7709TIP3    H244619   2.402   1.186  58.368  0.8792 -0.6069 -1.3276
 7710TIP3   OH244620   0.099   3.214  11.432  0.2873 -0.0728  0.3013
 7710TIP3    H144621   0.111   3.303  11.400 -1.6263  0.4014  0.7592
 7710TIP3    H244622   0.060   3.167  11.358 -1.8313  0.3930  1.0287
 7711TIP3   OH244623   2.233   2.118  44.633 -0.5215 -0.0736 -0.0867
 7711TIP3    H144624   2.293   2.186  44.663  0.2711 -0.5664 -0.5214
 7711TIP3    H244625   2.146   2.150  44.658 -0.1878  1.2036 -0.4983
 7712TIP3   OH244626   1.336   0.943  10.679  0.6113  0.1030 -0.1746
 7712TIP3    H144627   1.256   0.909  10.640  0.8295  0.0546 -0.5904
 7712TIP3    H244628   1.377   0.867  10.721  1.1766 -0.2078 -1.2339
 7713TIP3   OH244629   3.069   0.645  45.660  0.1479 -0.1225 -0.5752
 7713TIP3    H144630   3.107   0.557  45.666  0.6266 -0.0574 -2.1784
 7713TIP3    H244631   3.138   0.704  45.690  0.0074 -0.2606  0.0153
 7714TIP3   OH244632   0.914   3.398  62.494 -0.0156 -0.1967  0.5014
 7714TIP3    H144633   0.870   3.476  62.462 -0.7357  0.0446  1.9606
 7714TIP3    H244634   0.993   3.431  62.537  1.9594 -0.6638 -2.5055
 7715TIP3   OH244635   1.951   2.353   2.880 -0.1517 -0.5937 -0.2506
 7715TIP3    H144636   1.887   2.292   2.916 -0.6615  0.2678  0.3583
 7715TIP3    H244637   1.905   2.396   2.808  0.3386 -1.2029 -0.9318
 7716TIP3   OH244638   3.261   1.122  49.051  0.1257 -0.4497  0.4927
 7716TIP3    H144639   3.296   1.140  49.138  2.3739  1.3738 -0.6597
 7716TIP3    H244640   3.333   1.079  49.004 -0.4789 -0.0644 -0.8554
 7717TIP3   OH244641   1.957   0.768   8.278  0.4889  0.3144  0.4825
 7717TIP3    H144642   1.918   0.681   8.286  0.8937 -0.2576 -2.5123
 7717TIP3    H244643   2.051   0.754   8.289  0.5672  0.3248 -0.1259
 7718TIP3   OH244644   2.990   2.335   2.427  0.1280  0.0943  0.7141
 7718TIP3    H144645   2.959   2.358   2.339  0.6977 -4.7026 -1.0371
 7718TIP3    H244646   2.915   2.352   2.484 -0.4555  2.7763 -0.6818
 7719TIP3   OH244647   0.079   1.628  61.026  0.2325 -0.0098  0.2680
 7719TIP3    H144648   0.036   1.710  61.004 -2.4089 -1.4174 -0.1815
 7719TIP3    H244649   0.071   1.620  61.121 -1.5215 -0.7034  0.1061
 7720TIP3   OH244650   1.683   2.927  33.903  0.3082  0.0868  0.1712
 7720TIP3    H144651   1.635   2.928  33.986  0.1671 -0.0155  0.0896
 7720TIP3    H244652   1.691   2.835  33.881 -1.3149  0.1595 -0.8720
 7721TIP3   OH244653   2.172   1.143  18.215  0.1816 -0.3555  0.6712
 7721TIP3    H144654   2.236   1.073  18.202  0.4534 -0.0612  0.4005
 7721TIP3    H244655   2.205   1.216  18.162  0.2656  0.2162  1.4818
 7722TIP3   OH244656   1.647   2.770  66.581 -0.3917 -0.0225  0.0013
 7722TIP3    H144657   1.670   2.835  66.514 -0.0306 -1.0529 -0.8967
 7722TIP3    H244658   1.575   2.720  66.543 -0.4654 -0.3523  0.5610
 7723TIP3   OH244659   3.341   0.691  18.249  0.0249  0.0981 -0.2763
 7723TIP3    H144660   3.320   0.614  18.302 -1.8478 -0.3626 -1.5853
 7723TIP3    H244661   3.364   0.758  18.313 -0.4358 -0.9374  1.0310
 7724TIP3   OH244662   0.788   0.641  65.845 -0.5167 -0.4962 -0.3437
 7724TIP3    H144663   0.851   0.629  65.916 -0.0583 -1.5110 -0.9040
 7724TIP3    H244664   0.749   0.554  65.833 -1.3313 -0.1010 -0.6512
 7725TIP3   OH244665   2.300   1.603  44.531 -0.2967 -1.0303 -0.4641
 7725TIP3    H144666   2.373   1.560  44.575  0.6729 -1.0353 -2.0298
 7725TIP3    H244667   2.340   1.653  44.460 -1.8407 -1.3234 -1.5854
 7726TIP3   OH244668   0.982   1.280  60.355 -0.0762  0.0031 -0.7275
 7726TIP3    H144669   1.050   1.233  60.308  0.6454  1.2477 -0.9465
 7726TIP3    H244670   1.026   1.316  60.432 -0.4090  1.0315 -1.0010
 7727TIP3   OH244671   3.371   2.100  55.301 -0.7439 -0.8774  0.0446
 7727TIP3    H144672   3.463   2.100  55.276 -1.1903 -3.0767 -1.8525
 7727TIP3    H244673   3.333   2.173  55.253 -0.3367 -1.0469 -0.5392
 7728TIP3   OH244674   0.515   0.179   1.010  0.0316 -0.4755  0.0245
 7728TIP3    H144675   0.430   0.175   1.054 -1.6163  0.9000 -2.7844
 7728TIP3    H244676   0.562   0.250   1.054 -1.5211  0.8096 -0.3058
 7729TIP3   OH244677   2.513   2.118  43.314  0.0086  0.6095  0.2863
 7729TIP3    H144678   2.605   2.136  43.332 -0.0695  1.8335 -0.4494
 7729TIP3    H244679   2.480   2.198  43.273 -1.2215 -0.0459 -0.0548
 7730TIP3   OH244680   0.241   1.711   6.329  0.4226  0.2112 -0.5569
 7730TIP3    H144681   0.149   1.739   6.327  0.3032 -0.0929  0.1945
 7730TIP3    H244682   0.237   1.619   6.357  0.9568  0.2350 -0.4021
 7731TIP3   OH244683   1.541   1.417  15.105  0.3984 -0.0620 -0.1598
 7731TIP3    H144684   1.542   1.371  15.022 -0.2453 -1.0992  0.3875
 7731TIP3    H244685   1.521   1.349  15.170  0.0068  0.8849  0.7375
 7732TIP3   OH244686   2.633   0.408  45.548 -0.2172 -0.4005  0.8255
 7732TIP3    H144687   2.604   0.337  45.490 -1.1111  0.3466  0.3275
 7732TIP3    H244688   2.696   0.457  45.495  0.9344 -1.2036  1.4126
 7733TIP3   OH244689   3.136   1.692  21.167 -0.1962  0.2042 -0.0627
 7733TIP3    H144690   3.138   1.767  21.225 -0.7466 -0.5522  0.9529
 7733TIP3    H244691   3.055   1.646  21.189  1.2822 -2.0098  1.0619
 7734TIP3   OH244692   1.704   3.291  55.162 -0.1318 -0.3285  0.0500
 7734TIP3    H144693   1.689   3.245  55.244  1.5165  0.5027  0.8756
 7734TIP3    H244694   1.708   3.222  55.096 -2.1783 -0.9569  0.5179
 7735TIP3   OH244695   1.215   3.083  53.460 -0.0635  0.2400 -0.6298
 7735TIP3    H144696   1.122   3.067  53.475  0.2376 -0.2688  0.8400
 7735TIP3    H244697   1.237   3.029  53.384 -0.9750  0.4745 -1.0786
 7736TIP3   OH244698   1.486   1.176  15.233 -0.2431  0.1939 -0.1817
 7736TIP3    H144699   1.471   1.153  15.324  2.4075 -1.2412 -0.0215
 7736TIP3    H244700   1.423   1.122  15.184 -1.6355  0.9259  0.7292
 7737TIP3   OH244701   2.153   1.915  17.118  0.3885  0.2898 -0.0382
 7737TIP3    H144702   2.103   1.859  17.178  1.5746  0.7229  1.4296
 7737TIP3    H244703   2.238   1.871  17.109  0.8811  1.1890  0.1233
 7738TIP3   OH244704   3.067   0.159  61.983 -0.0312  0.3498  0.4093
 7738TIP3    H144705   3.026   0.150  61.897 -0.6878  1.2107  0.6202
 7738TIP3    H244706   3.011   0.108  62.041  1.6387 -2.1043 -0.0036
 7739TIP3   OH244707   0.617   1.741  48.293 -0.2980 -0.0235 -0.1167
 7739TIP3    H144708   0.621   1.669  48.357 -1.0715  0.3328  0.3427
 7739TIP3    H244709   0.556   1.710  48.227  1.8910 -1.1785 -1.7124
 7740TIP3   OH244710   1.930   1.098  43.501 -0.2656  0.7602 -0.7447
 7740TIP3    H144711   1.985   1.109  43.423 -1.7411  0.2644 -1.8944
 7740TIP3    H244712   1.910   1.188  43.529  1.6310  0.9655  0.1076
 7741TIP3   OH244713   2.745   1.796  16.328  0.0128  0.2905  0.5866
 7741TIP3    H144714   2.726   1.728  16.392 -2.2564  0.9683  0.7286
 7741TIP3    H244715   2.682   1.781  16.257  2.2008 -0.2147 -1.3623
 7742TIP3   OH244716   1.205   1.688  14.053 -0.1468 -0.1874 -0.4425
 7742TIP3    H144717   1.209   1.744  13.976  0.0830  0.9166  0.3485
 7742TIP3    H244718   1.118   1.647  14.049 -1.0329  1.5731 -0.1359
 7743TIP3   OH244719   3.180   2.738  10.161 -0.7071  0.0108 -0.0479
 7743TIP3    H144720   3.153   2.808  10.220 -1.3110 -0.3530  0.1228
 7743TIP3    H244721   3.272   2.755  10.143  0.0622 -0.9438  2.5293
 7744TIP3   OH244722   1.307   2.500   2.088  0.1859  0.3813 -0.9500
 7744TIP3    H144723   1.356   2.479   2.009 -0.1503  0.2914 -1.1330
 7744TIP3    H244724   1.252   2.575   2.064  2.1295  2.2234 -0.0233
 7745TIP3   OH244725   2.811   0.152  65.788  0.1893 -0.0000 -0.5668
 7745TIP3    H144726   2.718   0.168  65.806  1.1173  1.9861  3.5503
 7745TIP3    H244727   2.836   0.220  65.726 -0.7992  0.2844 -0.6693
 7746TIP3   OH244728   0.643   1.506   7.740  0.4633  0.0540  0.4054
 7746TIP3    H144729   0.625   1.465   7.824 -0.3513  0.0387  0.2300
 7746TIP3    H244730   0.622   1.598   7.753  0.1039  0.0109  0.1588
 7747TIP3   OH244731   1.841   1.338  60.440 -0.2724 -0.3093  0.5938
 7747TIP3    H144732   1.885   1.340  60.525  1.3365 -2.0071 -0.1426
 7747TIP3    H244733   1.875   1.414  60.393 -2.4626  1.6718  1.9825
 7748TIP3   OH244734   0.523   3.098  54.290  0.1068  0.8926 -0.2205
 7748TIP3    H144735   0.542   3.110  54.383  1.3128 -1.1276 -0.1474
 7748TIP3    H244736   0.434   3.063  54.288  0.2384  0.5237  0.2094
 7749TIP3   OH244737   1.790   2.880  13.630  0.3340  0.5838 -0.3117
 7749TIP3    H144738   1.880   2.877  13.599  0.1075  0.6261 -0.9989
 7749TIP3    H244739   1.790   2.828  13.710  1.2398  1.6615  0.4271
 7750TIP3   OH244740   1.540   0.008   9.405 -0.1434  0.2275  0.2833
 7750TIP3    H144741   1.545  -0.083   9.433 -0.3092  0.6351  1.7000
 7750TIP3    H244742   1.616   0.020   9.348  0.4512 -0.5306  0.9029
 7751TIP3   OH244743   0.214   2.691  64.007  0.3090 -0.4003  0.4742
 7751TIP3    H144744   0.254   2.662  64.089 -1.8042 -2.0616  0.9865
 7751TIP3    H244745   0.150   2.758  64.033 -0.2264 -0.7836  0.1646
 7752TIP3   OH244746   3.220   1.359  19.316  0.0686 -0.4549  0.3536
 7752TIP3    H144747   3.190   1.312  19.394 -0.9102 -0.4579 -0.0100
 7752TIP3    H244748   3.287   1.303  19.278  0.0919 -0.7617  0.8380
 7753TIP3   OH244749   1.421   2.587  17.599  0.1853 -0.5007  0.3117
 7753TIP3    H144750   1.498   2.542  17.634 -0.2793 -2.0477 -0.5538
 7753TIP3    H244751   1.409   2.550  17.512 -1.4287 -0.1593  0.3573
 7754TIP3   OH244752   2.029   3.310  64.346  0.0549 -0.3752 -0.9035
 7754TIP3    H144753   1.965   3.325  64.276 -1.4742 -2.4572 -0.0457
 7754TIP3    H244754   2.099   3.260  64.304 -1.0753 -2.0246 -0.8900
 7755TIP3   OH244755   3.028   2.743   4.474 -0.0738  0.6478  0.3579
 7755TIP3    H144756   2.941   2.754   4.436  0.6673 -1.7329 -2.3654
 7755TIP3    H244757   3.013   2.692   4.553 -1.1429 -0.3584 -0.4513
 7756TIP3   OH244758   3.386   1.556  64.576  0.1030  0.4790 -0.6298
 7756TIP3    H144759   3.344   1.626  64.526  0.3148  0.2603 -1.1155
 7756TIP3    H244760   3.398   1.485  64.512 -0.7683 -0.2796  0.0178
 7757TIP3   OH244761   3.262   2.503  57.146 -0.0793  0.2985  0.7727
 7757TIP3    H144762   3.323   2.533  57.213 -0.0232  1.3292  0.2857
 7757TIP3    H244763   3.211   2.581  57.124 -1.9467 -0.6497  1.5384
 7758TIP3   OH244764   1.064   2.826  66.814  0.4240  0.1034  0.2255
 7758TIP3    H144765   1.096   2.916  66.824  0.2775  0.2660 -0.6895
 7758TIP3    H244766   1.104   2.778  66.887  0.8413  0.8182  0.4824
 7759TIP3   OH244767   2.603   0.425  64.305  0.0046 -0.7576 -0.2255
 7759TIP3    H144768   2.559   0.434  64.390 -0.0840 -2.0192 -0.1254
 7759TIP3    H244769   2.691   0.458  64.321 -0.8185  1.8257 -0.4329
 7760TIP3   OH244770   3.031   0.152  43.851  0.3573 -0.5048 -0.2586
 7760TIP3    H144771   3.031   0.082  43.917  0.5049  0.3287  0.6429
 7760TIP3    H244772   3.110   0.202  43.869  0.3196 -0.1665 -0.9813
 7761TIP3   OH244773   1.578   0.772  36.540 -0.0684  0.2580  0.9001
 7761TIP3    H144774   1.594   0.680  36.559 -1.4647 -0.0558  0.6525
 7761TIP3    H244775   1.491   0.774  36.501  0.0313  1.6607  0.6859
 7762TIP3   OH244776   2.386   0.244  19.474  0.2129 -0.2685  0.4576
 7762TIP3    H144777   2.474   0.227  19.507  1.1807  1.3728 -1.1113
 7762TIP3    H244778   2.394   0.235  19.379 -1.9314 -2.5672  0.3797
 7763TIP3   OH244779   1.743   0.076  19.354  0.1101  0.8424  1.1045
 7763TIP3    H144780   1.829   0.049  19.324 -0.2408 -1.8033  2.1346
 7763TIP3    H244781   1.694   0.096  19.274  1.4604  1.8101  0.4909
 7764TIP3   OH244782   0.592   1.318  53.052 -0.2044 -0.3404  1.1624
 7764TIP3    H144783   0.668   1.279  53.007 -0.9583 -2.2967  1.4817
 7764TIP3    H244784   0.616   1.410  53.064  0.0610  0.3550 -3.1588
 7765TIP3   OH244785   2.487   1.365  54.729 -0.0872  0.9584 -0.0845
 7765TIP3    H144786   2.483   1.274  54.702  1.5748  0.5345  0.9726
 7765TIP3    H244787   2.500   1.414  54.648  0.2469  0.1526 -0.5230
 7766TIP3   OH244788   2.873   3.388   5.668 -0.5381 -0.0349 -0.0709
 7766TIP3    H144789   2.839   3.456   5.612 -0.4196  0.6713  0.6915
 7766TIP3    H244790   2.864   3.423   5.757  1.1215 -0.2814  0.2259
 7767TIP3   OH244791   2.788   0.937  11.813 -0.4096  0.0221  0.6867
 7767TIP3    H144792   2.838   0.952  11.893 -0.0583 -1.7964  0.8716
 7767TIP3    H244793   2.827   0.857  11.776 -1.0421  0.4156 -0.9173
 7768TIP3   OH244794   0.903   1.165  59.629 -0.1925 -0.2093 -0.1007
 7768TIP3    H144795   0.839   1.095  59.616  1.4404 -1.5042 -1.5831
 7768TIP3    H244796   0.957   1.135  59.702 -1.1013  0.8210  1.0550
 7769TIP3   OH244797   0.426   1.768  54.856 -0.6677  0.6138 -0.2147
 7769TIP3    H144798   0.506   1.783  54.906  0.3040 -0.0758 -1.4956
 7769TIP3    H244799   0.362   1.828  54.894  0.3256  0.8734  1.1172
 7770TIP3   OH244800   1.555   1.345   1.220  0.0522  0.4781 -0.1850
 7770TIP3    H144801   1.520   1.255   1.219  0.3968  0.3269  0.4078
 7770TIP3    H244802   1.527   1.379   1.305  0.8483  0.5514  0.0551
 7771TIP3   OH244803   0.921   2.456  12.361  0.1385 -0.2569 -0.5077
 7771TIP3    H144804   0.940   2.501  12.443  2.5154  0.4513 -1.3640
 7771TIP3    H244805   0.950   2.366  12.376 -0.4334 -0.4081 -0.2586
 7772TIP3   OH244806   1.641   0.399  12.437  0.2595 -0.2013  0.2117
 7772TIP3    H144807   1.662   0.330  12.500 -2.1633  0.5114  1.9733
 7772TIP3    H244808   1.675   0.479  12.478  1.3894 -0.0899 -0.9096
 7773TIP3   OH244809   1.080   3.164  56.046 -0.0724 -0.2166  0.1905
 7773TIP3    H144810   1.151   3.185  56.106  0.4318  1.0708 -0.7941
 7773TIP3    H244811   1.041   3.248  56.024 -0.1781 -0.6310 -1.3441
 7774TIP3   OH244812   0.680   1.935  59.706 -0.3875  0.6662  0.7752
 7774TIP3    H144813   0.654   2.020  59.740 -0.9010  1.2855 -1.0570
 7774TIP3    H244814   0.611   1.875  59.734 -1.0546  1.2489  0.3937
 7775TIP3   OH244815   0.953   1.714   2.673 -0.8311 -0.2488  0.4524
 7775TIP3    H144816   0.945   1.664   2.753 -1.0933 -1.1774 -0.1393
 7775TIP3    H244817   1.026   1.674   2.626 -1.5701 -0.6416 -0.4027
 7776TIP3   OH244818   1.200   2.943   7.330 -0.0320 -0.3899 -0.1895
 7776TIP3    H144819   1.129   2.956   7.267 -1.1942  0.2362  1.1945
 7776TIP3    H244820   1.262   2.886   7.284 -0.5558  0.4747 -2.0851
 7777TIP3   OH244821   3.007   3.039  54.398  0.2055  0.0121  0.3719
 7777TIP3    H144822   3.035   2.948  54.408  0.3874 -0.2890 -2.1951
 7777TIP3    H244823   2.921   3.042  54.439  0.6732 -1.0113  1.5033
 7778TIP3   OH244824   1.497   2.639  58.141  0.3448  0.2247  0.1561
 7778TIP3    H144825   1.559   2.693  58.092 -0.1106  2.5607  1.9322
 7778TIP3    H244826   1.544   2.559  58.162  0.6786 -0.7075 -3.5908
 7779TIP3   OH244827   2.054   3.409  16.926 -0.0294  0.1048 -0.5776
 7779TIP3    H144828   2.120   3.456  16.978 -0.5935 -0.1595  0.4035
 7779TIP3    H244829   2.099   3.389  16.844  1.6496 -1.4110  0.6336
 7780TIP3   OH244830   0.328   1.873  17.241  0.0573 -0.1902  0.1490
 7780TIP3    H144831   0.397   1.813  17.266  2.0747  1.1113 -1.9052
 7780TIP3    H244832   0.366   1.961  17.252 -1.9216  0.6624  0.6943
 7781TIP3   OH244833   0.343   2.868  45.250 -0.1975 -0.0021  0.3922
 7781TIP3    H144834   0.277   2.930  45.219  0.3716  0.1744 -0.5303
 7781TIP3    H244835   0.413   2.923  45.284  0.1839 -0.1365 -0.1613
 7782TIP3   OH244836   3.069   1.653  55.288  0.6267  0.3145 -0.1218
 7782TIP3    H144837   3.155   1.694  55.296  1.1511 -0.6516 -0.6040
 7782TIP3    H244838   3.082   1.583  55.224 -0.4427 -0.0503  0.0421
 7783TIP3   OH244839   0.727   1.453   2.724  0.4648  0.4508 -0.3199
 7783TIP3    H144840   0.786   1.481   2.794  2.1987  0.0368 -1.5415
 7783TIP3    H244841   0.785   1.418   2.656 -1.2071 -0.0384 -1.5759
 7784TIP3   OH244842   2.440   2.765  65.204 -0.2289  0.1399  0.0389
 7784TIP3    H144843   2.473   2.689  65.251 -0.8649  0.6010  1.2715
 7784TIP3    H244844   2.494   2.770  65.125  1.9940  0.2718  1.4693
 7785TIP3   OH244845   1.161   0.410  47.000  0.1357  0.0699  0.0716
 7785TIP3    H144846   1.129   0.324  46.974 -1.5778  0.3437  1.1190
 7785TIP3    H244847   1.207   0.395  47.082 -1.4958  0.3081  1.0832
 7786TIP3   OH244848   1.080   1.664  17.548  0.0695 -0.3049  0.3737
 7786TIP3    H144849   1.009   1.666  17.612  0.0498 -1.7668  0.4219
 7786TIP3    H244850   1.041   1.703  17.469 -0.1452  0.7737  0.9798
 7787TIP3   OH244851   1.386   1.234   8.088  0.0011  0.1082 -0.0766
 7787TIP3    H144852   1.435   1.212   8.167  0.1654  0.9933  0.0814
 7787TIP3    H244853   1.305   1.272   8.119 -0.8259 -1.3651 -0.3424
 7788TIP3   OH244854   0.243   1.765   6.001 -0.4819  0.0595 -0.1615
 7788TIP3    H144855   0.297   1.764   6.080  0.5844 -0.2765 -0.8710
 7788TIP3    H244856   0.153   1.768   6.033 -0.0335  1.9881  1.0399
 7789TIP3   OH244857   1.580   1.745  10.746  0.2854  0.3293  0.4390
 7789TIP3    H144858   1.560   1.713  10.834 -0.4628  0.2215  0.2368
 7789TIP3    H244859   1.674   1.731  10.736  0.8682  2.4636  2.0962
 7790TIP3   OH244860   1.045   0.204  36.048  0.1846 -0.0019  0.2367
 7790TIP3    H144861   0.973   0.142  36.050 -0.5275  0.6700 -1.9285
 7790TIP3    H244862   1.016   0.276  36.104 -0.1407 -0.4156  0.6065
 7791TIP3   OH244863   3.157   0.065   3.747 -0.6712  0.1932 -0.1575
 7791TIP3    H144864   3.135   0.052   3.839 -1.5722  0.6761 -0.2991
 7791TIP3    H244865   3.076   0.095   3.706 -0.1502  0.4899 -1.0075
 7792TIP3   OH244866   2.594   3.204  46.216  0.3168  0.2025 -0.4427
 7792TIP3    H144867   2.535   3.185  46.143  0.2304  0.4171 -0.4272
 7792TIP3    H244868   2.593   3.124  46.269  0.5392 -0.0299 -0.7833
 7793TIP3   OH244869   3.190   3.045  12.206 -0.5695  0.2601 -0.6766
 7793TIP3    H144870   3.249   2.994  12.151 -0.0201  1.1123 -0.8988
 7793TIP3    H244871   3.246   3.085  12.272 -1.0095  0.4216 -0.3978
 7794TIP3   OH244872   0.878   1.419  60.783  0.3032 -0.1287  0.4542
 7794TIP3    H144873   0.821   1.342  60.782 -1.6259  1.2188  1.2408
 7794TIP3    H244874   0.959   1.389  60.741 -0.6195 -2.3761  0.1249
 7795TIP3   OH244875   1.823   2.117  26.656  0.1578  1.2206  0.0118
 7795TIP3    H144876   1.814   2.189  26.718  0.9287  0.7636  0.6652
 7795TIP3    H244877   1.813   2.038  26.709 -0.7803  0.8319 -0.7130
 7796TIP3   OH244878   0.124   0.003  58.369  0.3761  0.8494  0.2123
 7796TIP3    H144879   0.114   0.077  58.428 -1.5240  0.4174  0.4819
 7796TIP3    H244880   0.150   0.043  58.285  0.9987  1.6423  0.7669
 7797TIP3   OH244881   2.322   2.882  66.336  0.7516 -0.1828 -0.1741
 7797TIP3    H144882   2.281   2.900  66.251  0.7390 -0.1468 -0.1596
 7797TIP3    H244883   2.250   2.884  66.399  0.8653  0.5288 -0.0550
 7798TIP3   OH244884   0.975   1.331  11.931 -0.6160 -0.0882 -0.2036
 7798TIP3    H144885   0.903   1.388  11.902  1.2322  0.9999 -3.0340
 7798TIP3    H244886   0.974   1.258  11.870  1.0593  0.2906 -0.7203
 7799TIP3   OH244887   3.191   1.413  59.694  0.2040  0.9859  0.0724
 7799TIP3    H144888   3.228   1.368  59.618  1.4896 -2.4237  2.4900
 7799TIP3    H244889   3.105   1.373  59.706  0.2084  1.1554  0.6811
 7800TIP3   OH244890   0.714   0.642  61.910 -0.2689  0.5493  0.0415
 7800TIP3    H144891   0.686   0.568  61.964 -0.4266  0.6684  0.1224
 7800TIP3    H244892   0.748   0.603  61.830  1.8666  0.2292  1.0380
 7801TIP3   OH244893   0.973   1.469  13.980 -0.1752 -0.4216 -0.0119
 7801TIP3    H144894   0.903   1.517  14.024 -0.3314 -0.5449 -0.1233
 7801TIP3    H244895   0.946   1.377  13.987 -0.1568 -0.4479 -0.2877
 7802TIP3   OH244896   2.472   3.052   6.513 -0.3878  0.3132 -0.0476
 7802TIP3    H144897   2.448   3.039   6.422 -0.7948 -2.1559  0.3520
 7802TIP3    H244898   2.526   2.976   6.535  0.9498  1.5896  1.3892
 7803TIP3   OH244899   2.520   1.063   5.637 -0.2810  0.0135  0.6565
 7803TIP3    H144900   2.486   0.979   5.607  0.5857 -0.1052 -0.0177
 7803TIP3    H244901   2.587   1.086   5.573  0.0363  0.8428  1.2759
 7804TIP3   OH244902   1.730   2.874  47.264  0.3602 -0.2455  0.7934
 7804TIP3    H144903   1.815   2.907  47.292  0.3497 -1.1164  1.9463
 7804TIP3    H244904   1.734   2.780  47.283 -0.7116 -0.3599  0.4921
 7805TIP3   OH244905   2.756   1.096  54.398 -0.0162  0.2767  0.4750
 7805TIP3    H144906   2.839   1.053  54.377  0.7832  1.8211  0.3001
 7805TIP3    H244907   2.750   1.169  54.336 -1.1754  0.5759  0.9112
 7806TIP3   OH244908   2.611   0.305  61.572 -0.1878 -0.1604 -0.1887
 7806TIP3    H144909   2.580   0.217  61.549  0.2102 -0.4965  0.5287
 7806TIP3    H244910   2.562   0.363  61.514 -1.1200 -0.7869 -0.0542
 7807TIP3   OH244911   1.851   2.358  50.874 -0.3246  0.2889  0.1955
 7807TIP3    H144912   1.891   2.283  50.828 -0.0381  1.1912 -1.0767
 7807TIP3    H244913   1.758   2.334  50.882 -0.5130  0.3756 -1.4609
 7808TIP3   OH244914   0.433   0.237  10.861  0.0531  0.4426  0.8935
 7808TIP3    H144915   0.448   0.303  10.929  0.0284  0.8575  0.4970
 7808TIP3    H244916   0.348   0.259  10.824 -1.0712 -1.1916  2.3165
 7809TIP3   OH244917   2.762   1.081  60.274 -0.1361  0.1232 -0.4095
 7809TIP3    H144918   2.694   1.046  60.215 -1.0198  0.6206  0.2967
 7809TIP3    H244919   2.838   1.025  60.257 -0.5356 -0.0993 -1.6197
 7810TIP3   OH244920   3.376   2.101  66.274  0.4438  0.2204  0.0562
 7810TIP3    H144921   3.414   2.140  66.196  0.6853  0.4808  0.3039
 7810TIP3    H244922   3.337   2.019  66.243  0.9965  0.0667 -0.2417
 7811TIP3   OH244923   1.369   1.365  45.192 -0.0678 -0.1287 -0.2982
 7811TIP3    H144924   1.454   1.333  45.223 -0.2585 -0.6769 -0.3304
 7811TIP3    H244925   1.380   1.460  45.185  1.1385 -0.3534 -2.1053
 7812TIP3   OH244926   0.737   2.326  61.817  0.3329 -0.0751 -0.4603
 7812TIP3    H144927   0.694   2.308  61.900 -0.7322  0.0480 -0.9682
 7812TIP3    H244928   0.825   2.289  61.826  0.9115  1.6072  1.3984
 7813TIP3   OH244929   2.614   1.640  27.396 -0.1995 -0.1515 -0.5203
 7813TIP3    H144930   2.670   1.566  27.372 -1.2360 -0.7737 -1.0702
 7813TIP3    H244931   2.559   1.655  27.319 -1.7420 -0.4511  0.4782
 7814TIP3   OH244932   2.506   0.843   1.337  0.2294  0.0782 -0.6206
 7814TIP3    H144933   2.519   0.782   1.410  0.1883  1.1494  0.3139
 7814TIP3    H244934   2.413   0.863   1.339  0.1948 -0.0353 -1.0908
 7815TIP3   OH244935   0.807   2.094   2.640 -0.1290  0.1541  0.6485
 7815TIP3    H144936   0.730   2.072   2.691 -0.7018 -0.5116 -0.4609
 7815TIP3    H244937   0.783   2.074   2.549  0.8796  1.1911  0.1132
 7816TIP3   OH244938   2.659   2.172  65.529  0.3533 -0.4754  0.1034
 7816TIP3    H144939   2.679   2.263  65.551  0.1494 -1.1597  3.7914
 7816TIP3    H244940   2.569   2.174  65.498  0.8843  0.7198 -1.5030
 7817TIP3   OH244941   1.337   2.134  46.973  0.0177 -0.4532 -0.2313
 7817TIP3    H144942   1.407   2.188  46.938  1.0085  0.0103  2.2459
 7817TIP3    H244943   1.365   2.112  47.062 -3.0089 -0.1333  0.9385
 7818TIP3   OH244944   2.963   0.685  65.125 -0.2517  0.2516  0.1149
 7818TIP3    H144945   2.968   0.710  65.032  0.5085 -1.5283 -0.3643
 7818TIP3    H244946   2.906   0.607  65.125 -0.9569  0.7480  1.2818
 7819TIP3   OH244947   0.294   2.757  42.775  0.3095  0.2755 -0.4889
 7819TIP3    H144948   0.324   2.819  42.709  2.6951  0.0201  0.2934
 7819TIP3    H244949   0.365   2.752  42.839 -1.7483  0.2060  1.9420
 7820TIP3   OH244950   3.105   2.236  13.951  0.7131 -0.3940 -0.0321
 7820TIP3    H144951   3.015   2.204  13.948  0.2245  0.9411 -0.5661
 7820TIP3    H244952   3.129   2.234  14.043 -0.6111  1.1375  0.3920
 7821TIP3   OH244953   1.660   2.429  61.749  0.1176  0.7981 -0.3434
 7821TIP3    H144954   1.619   2.361  61.694  0.4845 -0.4801  0.9007
 7821TIP3    H244955   1.754   2.416  61.736  0.3020 -0.8838  2.0473
 7822TIP3   OH244956   2.896   1.713  46.435  0.1212  0.0764  0.2554
 7822TIP3    H144957   2.842   1.652  46.385 -1.9342  3.0174 -1.3626
 7822TIP3    H244958   2.841   1.740  46.508  1.1559 -0.2121  1.1729
 7823TIP3   OH244959   2.386   2.287  10.532  0.1035  0.0279 -0.3702
 7823TIP3    H144960   2.447   2.342  10.580  1.8534 -0.4532 -1.9214
 7823TIP3    H244961   2.361   2.339  10.456  0.4494 -0.6411 -0.9600
 7824TIP3   OH244962   2.088   2.626  43.746 -0.1793 -0.2737  0.6471
 7824TIP3    H144963   2.037   2.551  43.716  1.5698 -2.3518  2.5292
 7824TIP3    H244964   2.034   2.666  43.814  0.0981 -1.7033  1.7496
 7825TIP3   OH244965   1.551   2.997  43.411  0.2848 -0.0035 -0.0179
 7825TIP3    H144966   1.460   3.022  43.426  0.3056  0.6965 -0.9136
 7825TIP3    H244967   1.600   3.043  43.480  0.1701  1.4367 -0.8432
 7826TIP3   OH244968   3.395   2.909  18.159  0.7754  0.0517 -0.0360
 7826TIP3    H144969   3.426   2.982  18.213 -0.9015 -0.2140  1.3882
 7826TIP3    H244970   3.446   2.834  18.188 -0.4008 -0.1788  1.5936
 7827TIP3   OH244971   0.900   2.491   3.915  0.5245 -0.2493  0.0438
 7827TIP3    H144972   0.931   2.415   3.963  0.1293 -0.5717 -0.2003
 7827TIP3    H244973   0.898   2.562   3.980  3.7487  0.3598 -0.3622
 7828TIP3   OH244974   1.362   1.158  65.506  0.5015  0.1756 -0.0839
 7828TIP3    H144975   1.317   1.180  65.587 -0.0508  0.2881 -0.4170
 7828TIP3    H244976   1.324   1.218  65.441  0.5992 -0.2331 -0.5215
 7829TIP3   OH244977   1.365   2.126  59.247  0.0531 -0.0859 -0.1570
 7829TIP3    H144978   1.274   2.112  59.220 -0.1243 -0.6506  0.6596
 7829TIP3    H244979   1.363   2.207  59.298  0.1744  0.3699 -0.8752
 7830TIP3   OH244980   2.668   3.418  50.620 -0.3724  0.4749 -0.4553
 7830TIP3    H144981   2.689   3.325  50.630 -1.7758  0.1295 -0.4863
 7830TIP3    H244982   2.721   3.462  50.686  1.4792 -0.1547 -1.4656
 7831TIP3   OH244983   0.974   2.461   1.974  0.2996 -0.2518 -0.3773
 7831TIP3    H144984   0.963   2.504   1.889 -1.6931 -1.8027 -0.9808
 7831TIP3    H244985   0.900   2.401   1.980  1.3189 -1.3978  1.7474
 7832TIP3   OH244986   2.549   1.842  54.660  0.3643  0.5449 -0.3717
 7832TIP3    H144987   2.535   1.923  54.708  1.0238  0.7136 -0.4494
 7832TIP3    H244988   2.644   1.835  54.653  0.2864  0.4136 -1.4518
 7833TIP3   OH244989   2.430   1.230  12.599  0.3007 -0.5328 -0.0370
 7833TIP3    H144990   2.479   1.308  12.623  0.1086 -0.5199  0.3261
 7833TIP3    H244991   2.346   1.240  12.643  0.3698 -1.0645  0.2361
 7834TIP3   OH244992   1.772   2.313  66.548  0.1748 -0.0448 -0.6815
 7834TIP3    H144993   1.696   2.255  66.547  0.4427 -0.3996 -0.8860
 7834TIP3    H244994   1.842   2.262  66.507  0.5103  0.2918 -0.5447
 7835TIP3   OH244995   1.201   2.214  12.869  0.2707  0.2170 -0.2380
 7835TIP3    H144996   1.279   2.187  12.822  0.3826  1.5208 -0.8633
 7835TIP3    H244997   1.215   2.185  12.959  0.3824 -1.6764 -0.8242
 7836TIP3   OH244998   0.618   2.191   5.780  0.3452  0.9404 -0.1059
 7836TIP3    H144999   0.646   2.170   5.691 -1.3762  0.4055 -0.5565
 7836TIP3    H245000   0.699   2.213   5.826  1.2725  1.2275 -1.7896
 7837TIP3   OH245001   0.511   1.150  43.406 -0.2078 -0.1471 -0.3116
 7837TIP3    H145002   0.500   1.131  43.499 -0.0373 -3.8999 -0.9140
 7837TIP3    H245003   0.605   1.139  43.390 -0.1530  0.9743 -0.8696
 7838TIP3   OH245004   1.718   2.112   3.257 -0.1432 -0.6573  0.2882
 7838TIP3    H145005   1.667   2.188   3.227 -0.1929 -0.0587  1.7953
 7838TIP3    H245006   1.673   2.037   3.219 -1.3560 -0.0502  0.4759
 7839TIP3   OH245007   2.099   3.041  48.204 -0.2308 -0.0345  0.2680
 7839TIP3    H145008   2.171   3.043  48.267 -1.1423  1.6323  1.3247
 7839TIP3    H245009   2.021   3.053  48.257 -0.9724  2.1884 -1.2155
 7840TIP3   OH245010   1.016   0.067  12.404 -0.2343  0.0328 -0.1529
 7840TIP3    H145011   1.053   0.004  12.466 -0.3489  0.8841  0.8073
 7840TIP3    H245012   1.092   0.100  12.356 -0.2102 -1.0723 -0.9093
 7841TIP3   OH245013   0.765   3.122  43.412  0.0432 -0.3714  0.1289
 7841TIP3    H145014   0.720   3.185  43.356 -0.4748 -1.6218 -0.9299
 7841TIP3    H245015   0.740   3.147  43.501 -1.1447  0.1803 -0.3253
 7842TIP3   OH245016   0.419   2.526   4.806 -0.6662  0.5380 -0.0425
 7842TIP3    H145017   0.380   2.560   4.887 -0.3975 -0.2930  0.4476
 7842TIP3    H245018   0.380   2.439   4.795 -0.1284  0.3383 -0.3889
 7843TIP3   OH245019   2.820   2.697  13.817  0.0682  0.0701 -0.0065
 7843TIP3    H145020   2.787   2.664  13.900 -0.5946 -0.2074 -0.3800
 7843TIP3    H245021   2.742   2.721  13.767  0.4544  0.0511 -0.6298
 7844TIP3   OH245022   2.546   0.699  47.251 -0.0161  0.0088 -0.4214
 7844TIP3    H145023   2.624   0.644  47.252  1.1213  1.5591 -1.1299
 7844TIP3    H245024   2.577   0.787  47.271 -1.3551  0.9161 -2.0316
 7845TIP3   OH245025   0.302   1.542  56.448  0.4642  0.0658  0.3381
 7845TIP3    H145026   0.246   1.586  56.384 -1.3196  0.2023  1.9020
 7845TIP3    H245027   0.252   1.465  56.474  0.7414  0.4714  2.1861
 7846TIP3   OH245028   0.567   1.799  56.939 -0.1259 -0.1775  0.4906
 7846TIP3    H145029   0.576   1.865  56.870 -1.3892 -1.2420 -0.7489
 7846TIP3    H245030   0.503   1.837  57.000  0.9903  0.7634  1.1148
 7847TIP3   OH245031   1.122   2.736  64.494  0.6105 -0.3815  0.0383
 7847TIP3    H145032   1.140   2.691  64.412  0.6595 -0.7441  0.2484
 7847TIP3    H245033   1.197   2.794  64.506  0.7769 -0.5893  0.0090
 7848TIP3   OH245034   1.036   1.856  44.311 -0.0398 -0.4221 -0.1922
 7848TIP3    H145035   0.959   1.800  44.320  0.1755 -0.6491  0.2423
 7848TIP3    H245036   1.040   1.905  44.393 -0.3824  0.4350 -0.6706
 7849TIP3   OH245037   3.149   2.066   1.880  0.1306  0.0888  0.1382
 7849TIP3    H145038   3.087   2.032   1.815  0.9665  0.5058 -0.9196
 7849TIP3    H245039   3.224   2.006   1.875 -0.3685 -0.7381  1.8042
 7850TIP3   OH245040   2.026   1.907   3.862  0.2596  0.4214 -0.6002
 7850TIP3    H145041   1.978   1.983   3.894  0.5629 -0.3732  2.0658
 7850TIP3    H245042   1.966   1.863   3.802 -1.9087  0.1662  1.6111
 7851TIP3   OH245043   1.105   0.632  19.129  0.3916 -0.0991  0.1489
 7851TIP3    H145044   1.162   0.563  19.163  0.5866 -0.7386 -1.3639
 7851TIP3    H245045   1.018   0.593  19.129  0.1045  0.4942  1.4360
 7852TIP3   OH245046   2.675   2.943  21.648 -0.3662 -0.4363  0.3077
 7852TIP3    H145047   2.665   2.985  21.733 -0.3078 -0.3250  0.2612
 7852TIP3    H245048   2.693   3.015  21.587 -0.9729 -0.4589  0.1020
 7853TIP3   OH245049   2.067   2.423  17.480 -0.0226  0.8519 -0.0161
 7853TIP3    H145050   2.062   2.498  17.539 -2.4405  0.1791  0.7281
 7853TIP3    H245051   2.105   2.353  17.532 -0.0916  0.8601  0.0444
 7854TIP3   OH245052   3.151   0.619  62.895  0.0349 -0.1130 -0.0823
 7854TIP3    H145053   3.118   0.550  62.953 -1.7562  0.7486  0.0139
 7854TIP3    H245054   3.080   0.632  62.832  2.4050 -1.9249 -3.4307
 7855TIP3   OH245055   1.772   0.896  52.760  0.2395  0.6327 -0.5925
 7855TIP3    H145056   1.737   0.964  52.703 -3.0738  0.0539  0.5307
 7855TIP3    H245057   1.736   0.814  52.726  1.9361 -0.2886 -0.3204
 7856TIP3   OH245058   1.865   1.882  60.119 -0.3916 -0.2518  0.8646
 7856TIP3    H145059   1.829   1.807  60.165  1.3356 -0.1583  2.5018
 7856TIP3    H245060   1.833   1.958  60.167 -0.6653 -0.0192  0.3229
 7857TIP3   OH245061   2.030   2.812  61.323  0.1399  0.2721  0.2911
 7857TIP3    H145062   2.015   2.728  61.280  1.9958 -0.3372  0.7255
 7857TIP3    H245063   2.124   2.826  61.315  0.0747  1.6056  1.5273
 7858TIP3   OH245064   1.900   1.649  17.575  0.0364 -0.2848  0.1192
 7858TIP3    H145065   1.835   1.595  17.620  1.1322 -0.6167  1.3890
 7858TIP3    H245066   1.875   1.739  17.594  0.0346 -0.4140  0.7425
 7859TIP3   OH245067   2.244   0.020  58.684  0.0990  0.7728 -0.0184
 7859TIP3    H145068   2.166  -0.028  58.712  0.6299  0.9884  1.9966
 7859TIP3    H245069   2.212   0.086  58.623 -1.4099  1.3180  1.3077
 7860TIP3   OH245070   2.929   0.595  56.509 -0.3497 -0.6714  0.1127
 7860TIP3    H145071   2.902   0.616  56.419  1.2299 -0.0421 -0.2562
 7860TIP3    H245072   2.922   0.678  56.556  0.7570 -0.5081  0.0273
 7861TIP3   OH245073   3.317   0.926   8.903 -0.0008 -0.0438  0.3862
 7861TIP3    H145074   3.234   0.893   8.868 -0.9013  0.6775  1.7519
 7861TIP3    H245075   3.330   1.010   8.860  0.6383 -0.6667 -0.6836
 7862TIP3   OH245076   0.473   3.438   5.026 -0.0277  0.0080  0.3268
 7862TIP3    H145077   0.384   3.416   4.997 -1.2126  1.2011  2.6839
 7862TIP3    H245078   0.482   3.531   5.004  0.9133 -0.2578 -0.4586
 7863TIP3   OH245079   1.016   1.734  11.312 -0.1257  0.0527 -0.4380
 7863TIP3    H145080   0.966   1.768  11.238 -2.0780  1.2157  1.3044
 7863TIP3    H245081   1.077   1.804  11.334  1.3940 -0.8176 -1.7007
 7864TIP3   OH245082   0.333   2.113  49.447 -0.2528 -0.4928  0.0364
 7864TIP3    H145083   0.298   2.100  49.359  1.3411  0.9632 -0.8722
 7864TIP3    H245084   0.342   2.025  49.483  0.1240 -1.1931 -1.6854
 7865TIP3   OH245085   2.714   3.068  59.879  0.1528 -0.1871  0.0658
 7865TIP3    H145086   2.621   3.085  59.890 -0.1387 -0.4186 -1.7200
 7865TIP3    H245087   2.746   3.049  59.967 -1.2759  0.8468  0.8527
 7866TIP3   OH245088   0.917   1.944   7.228  0.4633  0.0397  0.4585
 7866TIP3    H145089   0.883   1.933   7.139 -0.4582 -0.5502  0.8745
 7866TIP3    H245090   0.841   1.972   7.279  0.7346 -0.7221  1.2919
 7867TIP3   OH245091   0.763   0.497  30.566 -0.2880 -0.4990  0.1299
 7867TIP3    H145092   0.732   0.484  30.477  1.4682 -2.8855 -0.2242
 7867TIP3    H245093   0.774   0.409  30.602  0.5764  0.3515  2.1332
 7868TIP3   OH245094   1.520   2.341  67.467  0.1266  0.5687 -0.1453
 7868TIP3    H145095   1.480   2.313  67.549 -0.0736  1.2453 -0.0111
 7868TIP3    H245096   1.525   2.436  67.473  0.0323  0.6352 -0.9534
 7869TIP3   OH245097   1.373   2.258  19.434  0.1909 -0.0480  0.2326
 7869TIP3    H145098   1.378   2.351  19.415 -0.6832  0.1974  1.1472
 7869TIP3    H245099   1.311   2.223  19.370 -0.1510  0.1585  0.4521
 7870TIP3   OH245100   2.215   1.702  64.101  0.3358 -0.2968  0.0258
 7870TIP3    H145101   2.301   1.677  64.135  1.8040  1.3468 -2.2048
 7870TIP3    H245102   2.227   1.705  64.006 -1.8166  1.3037 -0.2526
 7871TIP3   OH245103   0.099   1.617  10.323  0.0017  0.0582  0.0856
 7871TIP3    H145104   0.108   1.639  10.230  1.6239  3.1250  0.8632
 7871TIP3    H245105   0.173   1.559  10.341 -0.0805 -0.2164 -0.4351
 7872TIP3   OH245106   0.554   2.014  36.255 -0.2430 -0.2305  0.7547
 7872TIP3    H145107   0.643   2.012  36.291 -0.7116 -1.4389  1.9226
 7872TIP3    H245108   0.559   1.958  36.177  0.0672 -0.1204  0.6945
 7873TIP3   OH245109   0.325   2.920  59.282 -0.4258 -0.2403  0.6777
 7873TIP3    H145110   0.399   2.961  59.237 -1.8838 -0.7199 -2.4664
 7873TIP3    H245111   0.294   2.986  59.344  0.0015  1.7005 -1.0651
 7874TIP3   OH245112   0.041   1.622  51.848 -0.0421 -0.4398  0.1513
 7874TIP3    H145113   0.049   1.691  51.914  1.0700 -0.8769  0.4981
 7874TIP3    H245114   0.130   1.589  51.837 -0.5001 -1.6109 -0.2377
 7875TIP3   OH245115   2.645   1.295  66.100  0.4129 -0.3719 -0.1296
 7875TIP3    H145116   2.730   1.277  66.140 -0.0836 -0.8870  0.7249
 7875TIP3    H245117   2.659   1.374  66.049  1.3398 -0.3022  0.2111
 7876TIP3   OH245118   1.179   1.890   4.737  0.3728 -0.2500 -0.0714
 7876TIP3    H145119   1.106   1.900   4.799  0.1663 -1.8782 -0.0146
 7876TIP3    H245120   1.257   1.895   4.792  0.2714  0.3787  0.0240
 7877TIP3   OH245121   2.414   1.808  21.090  0.4508  0.4305  0.2083
 7877TIP3    H145122   2.509   1.799  21.088  0.4941  0.8046  0.4312
 7877TIP3    H245123   2.384   1.735  21.144  0.4291 -0.9685 -1.5875
 7878TIP3   OH245124   1.962   0.966  21.772  0.3397  0.2196 -0.9526
 7878TIP3    H145125   2.017   0.941  21.846  0.0496 -0.2242 -0.8804
 7878TIP3    H245126   1.957   1.062  21.777 -2.8281  0.1180  1.9813
 7879TIP3   OH245127   1.869   1.084   0.308 -0.1169 -0.1695  0.0334
 7879TIP3    H145128   1.778   1.081   0.335 -0.2319 -2.3406 -0.4045
 7879TIP3    H245129   1.908   1.154   0.360 -1.5053 -0.7443  1.9243
 7880TIP3   OH245130   0.759   2.352  17.827 -0.1714 -0.3366 -0.0762
 7880TIP3    H145131   0.740   2.258  17.826 -0.8348 -0.2018 -1.1066
 7880TIP3    H245132   0.673   2.394  17.829  0.0723  0.2586 -1.4193
 7881TIP3   OH245133   1.584   2.321  50.883  0.3598  0.4223  0.4292
 7881TIP3    H145134   1.502   2.316  50.834  0.2496  0.8010  0.5682
 7881TIP3    H245135   1.594   2.235  50.923  0.6901 -0.0454 -0.6378
 7882TIP3   OH245136   0.892   0.222   6.062  0.0589 -0.2979  0.1336
 7882TIP3    H145137   0.921   0.175   5.983  1.9524 -1.2916  1.3499
 7882TIP3    H245138   0.841   0.296   6.028  1.0557 -0.5290 -2.0462
 7883TIP3   OH245139   2.612   0.626  42.303 -0.6247 -0.9541 -0.1767
 7883TIP3    H145140   2.645   0.587  42.223  1.0834 -1.3068  0.6510
 7883TIP3    H245141   2.560   0.556  42.344 -4.1153  0.1283 -2.3097
 7884TIP3   OH245142   2.317   2.539  65.008  0.8926 -0.4572  0.0473
 7884TIP3    H145143   2.345   2.549  65.099 -0.1710 -1.7362  0.5577
 7884TIP3    H245144   2.378   2.475  64.971  1.8650  0.7156 -0.4124
 7885TIP3   OH245145   0.908   1.304   6.538  0.4663 -0.0834  0.2747
 7885TIP3    H145146   0.886   1.381   6.486  2.4696  0.3955  0.0502
 7885TIP3    H245147   0.830   1.288   6.591 -0.6113  1.0685 -0.8719
 7886TIP3   OH245148   0.281   0.955   8.956 -0.3679 -0.2147 -0.2267
 7886TIP3    H145149   0.255   0.976   8.866  0.6267 -0.4780 -0.5843
 7886TIP3    H245150   0.368   0.994   8.966  0.5358 -2.1136 -0.1481
 7887TIP3   OH245151   2.278   0.839  45.835 -0.2842 -0.8076 -0.0676
 7887TIP3    H145152   2.239   0.894  45.767  0.8393  0.5421  0.3284
 7887TIP3    H245153   2.345   0.787  45.789 -1.8962 -2.5158 -0.5894
 7888TIP3   OH245154   1.418   1.182  19.130  0.4362  0.5036  0.2219
 7888TIP3    H145155   1.397   1.094  19.161 -0.3648  1.4234  2.5160
 7888TIP3    H245156   1.337   1.213  19.090 -0.2367  1.1794  1.9948
 7889TIP3   OH245157   1.640   3.307  11.464 -0.8220  0.1310 -0.5087
 7889TIP3    H145158   1.570   3.307  11.399 -1.7415  1.7074  0.4190
 7889TIP3    H245159   1.660   3.214  11.477 -1.2132 -0.2506 -2.3636
 7890TIP3   OH245160   0.970   2.316   3.410 -0.0105  0.4257  0.3286
 7890TIP3    H145161   0.952   2.394   3.461 -1.0288 -0.5485  1.5328
 7890TIP3    H245162   1.057   2.288   3.438  0.8138  1.6548 -0.8682
 7891TIP3   OH245163   3.359   2.130   5.722 -0.0299  0.3595 -0.0697
 7891TIP3    H145164   3.420   2.186   5.768 -0.5422  0.9451 -0.0823
 7891TIP3    H245165   3.301   2.191   5.675 -1.0307 -0.1420  0.4689
 7892TIP3   OH245166   0.586   0.316  58.218  0.1920  0.2674 -0.6600
 7892TIP3    H145167   0.666   0.264  58.213  0.2411  0.3986 -1.4656
 7892TIP3    H245168   0.554   0.304  58.307  0.6684 -0.4422 -0.5815
 7893TIP3   OH245169   2.206   3.226   5.412 -0.3683  0.1937  0.1191
 7893TIP3    H145170   2.284   3.241   5.359 -1.3472 -2.4931 -2.2929
 7893TIP3    H245171   2.239   3.227   5.502  1.6878  3.0002 -0.5176
 7894TIP3   OH245172   0.150   0.451  29.181 -0.4366 -0.3060  0.6790
 7894TIP3    H145173   0.137   0.366  29.225 -0.3946 -0.2110  0.8739
 7894TIP3    H245174   0.061   0.483  29.166 -0.6423 -1.9093 -2.4112
 7895TIP3   OH245175   0.004   0.725  44.544 -0.3060  0.8148  0.1043
 7895TIP3    H145176  -0.045   0.755  44.620 -2.9145 -2.9037  0.1770
 7895TIP3    H245177  -0.060   0.721  44.474  0.5020 -1.5347 -0.5915
 7896TIP3   OH245178   2.282   3.166  46.622 -0.3410 -0.5801 -0.8147
 7896TIP3    H145179   2.254   3.081  46.588 -1.2943 -1.3179  1.6164
 7896TIP3    H245180   2.229   3.179  46.701  0.1331  2.0561 -0.8323
 7897TIP3   OH245181   0.353   1.458  48.750  0.1143 -0.1730  0.0749
 7897TIP3    H145182   0.316   1.458  48.661  0.0490 -2.6614  0.0384
 7897TIP3    H245183   0.317   1.379  48.790  0.0379  0.9749  2.3982
 7898TIP3   OH245184   2.879   0.214  49.249  0.3957  0.3750 -0.0076
 7898TIP3    H145185   2.802   0.164  49.224 -0.2040  1.0362  0.4826
 7898TIP3    H245186   2.922   0.160  49.315  0.0435  0.2741  0.1402
 7899TIP3   OH245187   1.918   0.296  42.942 -0.2970 -0.1543 -0.2075
 7899TIP3    H145188   1.991   0.283  42.882 -1.7160  1.3053 -2.3744
 7899TIP3    H245189   1.890   0.386  42.927 -1.8886 -0.3263  1.3403
 7900TIP3   OH245190   2.821   2.389  57.766 -0.0268 -0.2906  0.1735
 7900TIP3    H145191   2.891   2.371  57.829 -0.4558  1.1234  1.1033
 7900TIP3    H245192   2.865   2.435  57.695  0.2414 -0.7583  0.0293
 7901TIP3   OH245193   1.046   1.087  54.767  0.1696 -0.1765 -0.0333
 7901TIP3    H145194   1.119   1.134  54.728 -0.1490 -0.8801 -1.5454
 7901TIP3    H245195   0.969   1.140  54.748  0.1221 -0.0727  0.4385
 7902TIP3   OH245196   1.023   1.178  66.561 -0.4615  0.0505 -0.2147
 7902TIP3    H145197   1.042   1.263  66.600 -0.5927 -0.3278  0.6906
 7902TIP3    H245198   1.022   1.117  66.635  1.1139 -1.0058 -1.0235
 7903TIP3   OH245199   2.905   2.777  61.825  0.2172  0.0128 -0.2112
 7903TIP3    H145200   2.933   2.733  61.905  0.5135  0.3047 -0.1536
 7903TIP3    H245201   2.958   2.857  61.821 -1.1775  1.0026  0.3394
 7904TIP3   OH245202   2.723   3.300  29.662  0.3454  0.5622  0.8167
 7904TIP3    H145203   2.761   3.215  29.684 -0.6709  0.1224  0.9528
 7904TIP3    H245204   2.707   3.342  29.747 -0.5006  0.2669  0.8106
 7905TIP3   OH245205   2.737   1.856  65.016 -0.3245  0.2778  0.0610
 7905TIP3    H145206   2.711   1.825  65.103  0.2010  1.0824  0.5196
 7905TIP3    H245207   2.831   1.869  65.022 -0.1191 -0.6108 -0.9547
 7906TIP3   OH245208   1.227   0.668  13.304 -0.3375  0.0356 -0.3486
 7906TIP3    H145209   1.318   0.649  13.327 -0.2852 -2.6615 -2.2840
 7906TIP3    H245210   1.214   0.626  13.219 -3.2805  0.6984 -0.3527
 7907TIP3   OH245211   2.477   1.529  44.700 -0.0270 -0.0006 -0.8410
 7907TIP3    H145212   2.564   1.498  44.725  0.1024  1.8309  1.3028
 7907TIP3    H245213   2.418   1.482  44.758 -0.2098  0.6681 -0.4825
 7908TIP3   OH245214   2.837   2.284  55.311 -0.6089 -0.4899  0.1330
 7908TIP3    H145215   2.808   2.283  55.220 -0.8827 -0.5461  0.2204
 7908TIP3    H245216   2.881   2.200  55.324 -0.6205 -0.5056  0.0668
 7909TIP3   OH245217   1.722   3.323  65.476  0.3778  0.3092  0.0869
 7909TIP3    H145218   1.761   3.343  65.561  2.9625 -1.6281 -0.5223
 7909TIP3    H245219   1.661   3.252  65.494  1.0312 -0.2005  0.3322
 7910TIP3   OH245220   2.489   2.611  53.937  0.2608 -0.0812  0.0519
 7910TIP3    H145221   2.475   2.685  53.997  1.9705  0.5667 -0.2839
 7910TIP3    H245222   2.584   2.608  53.924  0.0552 -1.0830 -1.5384
 7911TIP3   OH245223   0.598   0.994  13.684  0.1001 -0.6749 -0.2069
 7911TIP3    H145224   0.669   0.939  13.649  2.0590  1.4946  0.0837
 7911TIP3    H245225   0.634   1.029  13.766 -0.3680  2.2134 -1.1275
 7912TIP3   OH245226   2.652   0.174   2.764  0.2344 -0.2902  0.1252
 7912TIP3    H145227   2.577   0.172   2.823 -0.0427 -2.0185 -0.2210
 7912TIP3    H245228   2.634   0.105   2.700  2.8031 -1.9096  0.9506
 7913TIP3   OH245229   2.290   1.534  47.024 -0.6200  0.2854  0.0714
 7913TIP3    H145230   2.353   1.510  46.956  0.9582  0.0688  1.5646
 7913TIP3    H245231   2.316   1.483  47.100 -1.1660  1.9266  1.4096
 7914TIP3   OH245232   3.332   3.264  53.760 -0.6477 -0.3926  0.1609
 7914TIP3    H145233   3.406   3.324  53.753 -0.0978 -1.1157 -0.3925
 7914TIP3    H245234   3.355   3.205  53.831 -0.4082 -0.9858 -0.3979
 7915TIP3   OH245235   2.099   2.511  53.055  0.5629  0.2428  0.4813
 7915TIP3    H145236   2.175   2.458  53.078 -0.1272 -1.9582 -1.7945
 7915TIP3    H245237   2.130   2.568  52.985  0.2787 -0.2844 -0.0872
 7916TIP3   OH245238   3.009   3.169  45.981 -0.6366 -0.2541 -0.0391
 7916TIP3    H145239   3.094   3.129  45.963 -0.1997  0.5277  0.2168
 7916TIP3    H245240   3.023   3.220  46.061 -0.8278  1.3859 -1.0048
 7917TIP3   OH245241   1.370   1.047   1.454  0.3348 -0.2731  0.2742
 7917TIP3    H145242   1.390   1.058   1.361  0.4206 -4.4706 -0.4065
 7917TIP3    H245243   1.275   1.043   1.457  0.3561 -1.2391  0.1235
 7918TIP3   OH245244   1.608   2.328  61.391 -0.3892 -0.5189 -0.5374
 7918TIP3    H145245   1.693   2.366  61.416 -0.0450 -1.6481  0.1079
 7918TIP3    H245246   1.628   2.271  61.317 -0.5961 -0.7047 -0.4535
 7919TIP3   OH245247   2.694   1.617  26.554  0.6036  0.1294 -1.3030
 7919TIP3    H145248   2.704   1.527  26.586 -1.1931  1.0672  2.4346
 7919TIP3    H245249   2.616   1.614  26.499 -0.8990 -0.3232  0.7090
 7920TIP3   OH245250   2.466   2.658  52.759 -0.0425 -0.7091 -0.7449
 7920TIP3    H145251   2.548   2.632  52.800  0.2457  2.6210  1.1626
 7920TIP3    H245252   2.489   2.733  52.704 -1.8641  1.1230  0.8313
 7921TIP3   OH245253   3.124   0.762  66.117  0.5275 -0.0867  0.6366
 7921TIP3    H145254   3.171   0.789  66.037 -1.0674  0.1153 -0.2725
 7921TIP3    H245255   3.144   0.669  66.126  0.3264 -0.2323 -0.2935
 7922TIP3   OH245256   3.194   0.819  10.603  0.2511  0.9055  0.3452
 7922TIP3    H145257   3.242   0.818  10.520  1.9774  1.7279  1.2808
 7922TIP3    H245258   3.236   0.750  10.655  0.2597  1.4796  1.1052
 7923TIP3   OH245259   1.218   0.672   8.462 -0.3232 -0.5948 -0.2914
 7923TIP3    H145260   1.125   0.652   8.457 -0.3146 -1.3841  1.6670
 7923TIP3    H245261   1.252   0.652   8.375 -2.1862  1.0509 -1.4998
 7924TIP3   OH245262   0.833   2.488  50.850  0.0402 -0.3316  0.1462
 7924TIP3    H145263   0.764   2.554  50.857 -1.2861 -1.4075 -1.7295
 7924TIP3    H245264   0.910   2.530  50.887 -1.1265  1.6834  0.4398
 7925TIP3   OH245265   0.034   0.032   8.399  0.2132  0.6018  0.0075
 7925TIP3    H145266  -0.002   0.104   8.451 -0.1615  0.5907 -0.2348
 7925TIP3    H245267   0.109   0.001   8.451 -0.9764 -0.3208  1.2552
 7926TIP3   OH245268   0.538   2.467  58.375 -0.0216 -0.2670  0.4399
 7926TIP3    H145269   0.631   2.487  58.384  0.0223 -0.0607 -0.4411
 7926TIP3    H245270   0.494   2.528  58.435  0.2936  0.7603 -0.3488
 7927TIP3   OH245271   3.258   1.368  11.046  0.0202  0.2140  0.1043
 7927TIP3    H145272   3.234   1.453  11.009 -0.2764  0.1378  0.1222
 7927TIP3    H245273   3.239   1.305  10.977  1.4126  0.2858 -0.3742
 7928TIP3   OH245274   3.024   3.394  49.374 -0.6594 -0.1581 -0.9225
 7928TIP3    H145275   3.092   3.364  49.314 -1.6348 -1.7875 -1.2773
 7928TIP3    H245276   2.964   3.320  49.381  0.0697 -0.5800  3.1173
 7929TIP3   OH245277   0.366   0.010  56.505  0.3326 -0.2764  0.7709
 7929TIP3    H145278   0.366  -0.056  56.436 -1.6501 -0.7178  1.1499
 7929TIP3    H245279   0.441   0.067  56.483 -0.9758  0.4197 -2.5422
 7930TIP3   OH245280   3.416   0.572  17.628  0.2397 -0.2207  0.2203
 7930TIP3    H145281   3.490   0.511  17.634 -0.5702 -1.3163 -0.4973
 7930TIP3    H245282   3.385   0.581  17.719  1.0573  0.0127  0.4825
 7931TIP3   OH245283   1.407   0.174  62.292  0.5047  0.0974  0.0376
 7931TIP3    H145284   1.466   0.130  62.354 -0.2977 -0.9999  0.0560
 7931TIP3    H245285   1.323   0.179  62.338  0.5729  1.7248  0.0449
 7932TIP3   OH245286   3.244   2.788  52.774 -0.6820  0.3330 -0.2060
 7932TIP3    H145287   3.259   2.694  52.784  1.5710  0.6748  0.1119
 7932TIP3    H245288   3.297   2.812  52.698 -1.3373  1.3319 -0.3589
 7933TIP3   OH245289   2.377   1.840   8.407 -0.1160  0.4823  0.2871
 7933TIP3    H145290   2.431   1.781   8.459 -0.4479 -0.7682 -0.7359
 7933TIP3    H245291   2.321   1.884   8.470  0.8510  0.4746  1.1707
 7934TIP3   OH245292   2.308   2.446  55.696 -0.0999  0.2312 -0.5179
 7934TIP3    H145293   2.378   2.434  55.632  0.2632 -1.6432  0.1938
 7934TIP3    H245294   2.310   2.367  55.750 -0.5117  1.6723  1.7314
 7935TIP3   OH245295   0.932   1.078  45.992 -0.3315 -0.0050 -0.0465
 7935TIP3    H145296   0.912   1.003  45.936 -2.0428 -0.5876  1.2578
 7935TIP3    H245297   0.913   1.155  45.938  1.1722 -0.4438 -1.3045
 7936TIP3   OH245298   0.035   0.792  18.485  0.0082 -0.4307 -0.7002
 7936TIP3    H145299   0.047   0.708  18.529  1.0591  0.1756  0.2010
 7936TIP3    H245300   0.107   0.847  18.516 -2.0381  1.6405  0.7218
 7937TIP3   OH245301   0.643   1.017  64.972 -0.0499  0.1789 -0.3117
 7937TIP3    H145302   0.706   1.086  64.995  1.0667 -1.1908  0.9368
 7937TIP3    H245303   0.638   1.020  64.877  1.1576  0.9884 -0.3728
 7938TIP3   OH245304   0.394   1.095  49.946  0.6026  0.5190  0.4160
 7938TIP3    H145305   0.374   1.135  49.861  2.1114 -0.7690 -0.6066
 7938TIP3    H245306   0.441   1.015  49.924 -0.5627 -0.8093  2.4479
 7939TIP3   OH245307   1.541   0.810  48.802  0.4873  0.1027 -0.2944
 7939TIP3    H145308   1.606   0.782  48.866  2.9578  0.0663 -2.6265
 7939TIP3    H245309   1.473   0.743  48.806  1.8816 -1.3399  0.4565
 7940TIP3   OH245310   2.907   0.683  62.767  0.3452 -0.2020  0.2759
 7940TIP3    H145311   2.900   0.766  62.813 -0.6145  0.4207 -0.9164
 7940TIP3    H245312   2.817   0.649  62.766 -0.1515  0.8228 -2.8298
 7941TIP3   OH245313   0.580   1.083  58.236  0.9409  0.1040 -0.2497
 7941TIP3    H145314   0.623   1.134  58.305  0.8295  0.6749 -0.5965
 7941TIP3    H245315   0.500   1.050  58.276 -0.1657  2.1249 -0.6812
 7942TIP3   OH245316   2.765   0.652  65.498 -0.2314 -0.9636  0.2421
 7942TIP3    H145317   2.711   0.613  65.567  0.9060 -1.5272  0.8385
 7942TIP3    H245318   2.776   0.743  65.525 -1.0317 -0.7899  0.0111
 7943TIP3   OH245319   0.669   1.895  42.482 -0.6915  0.1088  0.2330
 7943TIP3    H145320   0.617   1.889  42.402 -0.6812 -1.1206  0.3003
 7943TIP3    H245321   0.696   1.987  42.486  0.5202 -0.0834 -1.9523
 7944TIP3   OH245322   1.109   0.506   8.146 -0.4533 -0.4016  0.2834
 7944TIP3    H145323   1.065   0.577   8.192  2.0996  1.1598  0.4817
 7944TIP3    H245324   1.068   0.427   8.180 -4.0587  0.8671 -0.6256
 7945TIP3   OH245325   0.317   3.213  17.621  0.1194  0.1085 -0.3851
 7945TIP3    H145326   0.243   3.252  17.576  0.1118  0.5923  0.0500
 7945TIP3    H245327   0.374   3.287  17.643  1.4342 -0.3634 -1.9652
 7946TIP3   OH245328   1.711   1.303  61.236 -0.2598 -0.1258 -0.0958
 7946TIP3    H145329   1.618   1.321  61.222 -0.4249 -0.7128  0.1984
 7946TIP3    H245330   1.755   1.385  61.214 -0.9230  0.4621  0.7271
 7947TIP3   OH245331   0.889   2.109  46.555 -0.1492 -0.1112  1.3193
 7947TIP3    H145332   0.973   2.079  46.589  0.3780 -0.2809 -0.0503
 7947TIP3    H245333   0.841   2.028  46.535  0.0190 -0.0430  0.5977
 7948TIP3   OH245334   0.776   2.001   9.782 -0.4094  0.0048 -0.6047
 7948TIP3    H145335   0.827   2.020   9.860 -0.7681  0.1081 -0.3894
 7948TIP3    H245336   0.835   2.017   9.709 -0.4499  1.1402 -0.4005
 7949TIP3   OH245337   2.521   2.871  17.327 -0.2514 -0.7924  0.3780
 7949TIP3    H145338   2.576   2.947  17.345  1.2946 -2.1860  2.0344
 7949TIP3    H245339   2.436   2.893  17.364  0.1465  0.1815  0.7342
 7950TIP3   OH245340   1.008   1.553  43.939 -0.3631  0.3056  0.0862
 7950TIP3    H145341   1.075   1.495  43.902  0.2789 -0.8383  2.7893
 7950TIP3    H245342   0.950   1.494  43.988 -0.4731  1.7695  1.8207
 7951TIP3   OH245343   0.689   0.043  13.701  0.3426  0.0628  0.1707
 7951TIP3    H145344   0.776   0.047  13.661  1.4443  1.3851  2.5269
 7951TIP3    H245345   0.695  -0.029  13.764  0.2936  1.2227  1.5286
 7952TIP3   OH245346   2.102   0.274   5.127  0.2078  0.1456 -0.7911
 7952TIP3    H145347   2.049   0.220   5.185 -0.2376 -0.2470 -1.5395
 7952TIP3    H245348   2.057   0.358   5.124  0.6085  0.3993 -0.0452
 7953TIP3   OH245349   0.603   2.883  48.096 -0.2102 -0.1040  0.5968
 7953TIP3    H145350   0.680   2.847  48.051 -0.8316 -1.9812  0.9437
 7953TIP3    H245351   0.528   2.853  48.044 -0.8274 -0.5849  1.7315
 7954TIP3   OH245352   2.446   2.264  20.664  0.4653 -0.1688 -0.1292
 7954TIP3    H145353   2.385   2.202  20.625  0.1968 -0.3487  0.5509
 7954TIP3    H245354   2.407   2.285  20.749  1.8847 -1.1134  0.7963
 7955TIP3   OH245355   2.055   1.473  55.243 -0.1293 -0.1890  0.0707
 7955TIP3    H145356   2.034   1.521  55.323 -1.7446  1.5260 -1.2790
 7955TIP3    H245357   2.133   1.517  55.208 -1.2058  1.1171 -0.8063
 7956TIP3   OH245358   1.236   1.076  60.351 -0.2452 -0.1287 -0.3515
 7956TIP3    H145359   1.299   1.079  60.279 -1.7256  1.2182 -1.6766
 7956TIP3    H245360   1.229   1.167  60.379 -0.9737 -0.3837  0.3244
 7957TIP3   OH245361   0.364   3.398  12.293  0.4250 -0.4013 -0.4054
 7957TIP3    H145362   0.339   3.436  12.209 -2.4868 -1.8878 -0.3554
 7957TIP3    H245363   0.406   3.315  12.271  0.7632 -0.2323 -0.4019
 7958TIP3   OH245364   2.683   0.126   0.324  0.2863 -0.0028 -0.6277
 7958TIP3    H145365   2.651   0.049   0.370  3.1710 -1.5113 -0.9324
 7958TIP3    H245366   2.712   0.094   0.239 -2.4193  2.2584 -2.5906
 7959TIP3   OH245367   1.115   1.312  16.978  0.0178  0.6415 -0.2511
 7959TIP3    H145368   1.188   1.360  16.938  0.4998 -0.0431 -0.2296
 7959TIP3    H245369   1.043   1.322  16.916  0.8430 -0.6783 -1.5124
 7960TIP3   OH245370   3.343   3.025   5.703  0.3851 -0.1586 -0.1041
 7960TIP3    H145371   3.353   2.990   5.792  0.6901 -1.8454 -0.7648
 7960TIP3    H245372   3.254   3.000   5.678  0.7143 -0.7455 -0.7031
 7961TIP3   OH245373   0.617   3.415  43.759  0.4442 -0.2982 -0.3314
 7961TIP3    H145374   0.603   3.416  43.853 -3.9644 -0.4517 -0.7361
 7961TIP3    H245375   0.607   3.322  43.734 -0.4094 -0.0281 -1.0728
 7962TIP3   OH245376   3.112   3.353  61.415 -0.2640 -0.3264  0.5329
 7962TIP3    H145377   3.102   3.389  61.327  2.9378  1.0921  0.6030
 7962TIP3    H245378   3.090   3.425  61.474 -0.7765 -0.7601  0.8871
 7963TIP3   OH245379   1.094   1.630  16.216 -0.1622 -0.5887  0.4285
 7963TIP3    H145380   1.122   1.683  16.141 -0.8853 -0.3243  0.3431
 7963TIP3    H245381   1.048   1.555  16.177  1.4351 -1.6729  0.5120
 7964TIP3   OH245382   2.028   2.823  55.499 -0.3071  0.0999  0.3771
 7964TIP3    H145383   2.005   2.732  55.520  1.7997 -0.7717 -0.7965
 7964TIP3    H245384   2.073   2.855  55.578 -0.7020 -0.0090  0.6494
 7965TIP3   OH245385   3.061   3.190  57.392  0.2065 -0.3454  0.3348
 7965TIP3    H145386   3.063   3.220  57.483  1.9959 -1.8117  0.8472
 7965TIP3    H245387   2.968   3.184  57.370 -0.2496  1.7015  1.4549
 7966TIP3   OH245388   1.157   0.392  66.052 -0.2404 -0.0008  0.5795
 7966TIP3    H145389   1.201   0.460  66.103  1.0555  0.6731 -1.3137
 7966TIP3    H245390   1.215   0.316  66.058 -0.1173  0.0596  0.1829
 7967TIP3   OH245391   1.968   1.600  65.101  0.4771 -0.2687  0.1333
 7967TIP3    H145392   2.057   1.624  65.075  0.0546 -0.9595 -2.1107
 7967TIP3    H245393   1.912   1.665  65.058 -0.2112 -0.8901  0.0782
 7968TIP3   OH245394   1.807   0.637  63.830  0.0295  0.2402  0.2679
 7968TIP3    H145395   1.854   0.708  63.874  1.8744 -0.9155  0.2752
 7968TIP3    H245396   1.866   0.561  63.838  0.1080 -0.2572 -3.3781
 7969TIP3   OH245397   1.487   1.814  52.038  0.0846 -0.2285  0.1425
 7969TIP3    H145398   1.537   1.813  51.956 -0.3444 -2.0651 -0.1357
 7969TIP3    H245399   1.398   1.835  52.012 -0.6987 -3.6602 -0.3503
 7970TIP3   OH245400   1.656   1.699   8.508 -0.1336  0.4064 -0.2797
 7970TIP3    H145401   1.655   1.724   8.415 -2.0179  1.4038 -0.0397
 7970TIP3    H245402   1.720   1.758   8.547 -0.1592  0.7590 -0.7587
 7971TIP3   OH245403   0.002   2.290  16.137 -0.1586 -0.0637 -0.0190
 7971TIP3    H145404   0.002   2.253  16.048  0.5559  0.5173 -0.2746
 7971TIP3    H245405   0.092   2.276  16.168 -0.3961 -0.2346  0.6084
 7972TIP3   OH245406   1.659   0.230  65.865 -0.0296  0.3929  0.3629
 7972TIP3    H145407   1.744   0.273  65.857 -0.3331  0.7857 -1.1536
 7972TIP3    H245408   1.645   0.221  65.959  1.1785  1.3355  0.6627
 7973TIP3   OH245409   0.871   3.408  47.981  0.4254  0.4944 -0.3403
 7973TIP3    H145410   0.915   3.486  47.948  0.8761  1.5570  2.5439
 7973TIP3    H245411   0.791   3.441  48.022 -0.0310 -0.7144 -0.2076
 7974TIP3   OH245412   0.559   2.537  15.947 -0.2356  0.5502 -0.2194
 7974TIP3    H145413   0.636   2.489  15.918 -1.3996 -0.9082 -1.0270
 7974TIP3    H245414   0.516   2.565  15.867 -0.6314  1.2193  0.2161
 7975TIP3   OH245415   1.053   2.062  56.705 -0.1291 -0.1035  0.4803
 7975TIP3    H145416   1.095   2.036  56.788  1.0312  3.0750  1.0411
 7975TIP3    H245417   1.112   2.028  56.637  0.4517 -0.3012  1.0637
 7976TIP3   OH245418   2.551   1.535  43.832  0.1479  0.6602 -0.1514
 7976TIP3    H145419   2.578   1.502  43.747 -1.9550  0.0037 -0.6153
 7976TIP3    H245420   2.506   1.462  43.874 -0.6444  1.5744  0.6660
 7977TIP3   OH245421   0.043   0.366  17.348  0.3154 -0.3416 -0.3638
 7977TIP3    H145422   0.082   0.279  17.338  2.2404  0.5532 -1.0410
 7977TIP3    H245423   0.087   0.404  17.424 -1.0641 -0.2099  0.4018
 7978TIP3   OH245424   3.009   0.740   1.895  0.1709 -0.2846  0.1115
 7978TIP3    H145425   2.959   0.658   1.901  2.7368 -1.9613  0.1820
 7978TIP3    H245426   3.070   0.725   1.823  0.6821  1.6293  0.1032
 7979TIP3   OH245427   1.219   0.065  48.804 -0.0225  0.5993  0.1302
 7979TIP3    H145428   1.193   0.153  48.776 -1.4197  0.3140  0.4682
 7979TIP3    H245429   1.156   0.042  48.873  0.3887 -0.6278  0.1209
 7980TIP3   OH245430   1.577   2.076  55.807 -0.3507 -0.6704  0.5498
 7980TIP3    H145431   1.493   2.077  55.854 -1.8410 -1.9957 -1.8918
 7980TIP3    H245432   1.566   2.141  55.737  1.3524  0.3526  1.1566
 7981TIP3   OH245433   1.078   2.969  14.782  0.4746 -0.1434 -0.0876
 7981TIP3    H145434   1.094   3.059  14.754  0.6770 -0.2603 -0.3543
 7981TIP3    H245435   1.162   2.926  14.774  0.1083 -0.6857 -1.2256
 7982TIP3   OH245436   3.020   3.426  64.341 -0.8906  0.4364  0.0684
 7982TIP3    H145437   3.063   3.392  64.262 -0.0219 -2.5628  1.6555
 7982TIP3    H245438   2.944   3.474  64.308 -1.5765 -2.1479 -2.6146
 7983TIP3   OH245439   0.322   1.121  21.634 -0.0183  0.1404  0.1214
 7983TIP3    H145440   0.236   1.099  21.670 -0.3440  1.3963  0.1591
 7983TIP3    H245441   0.362   1.178  21.699  0.5503  0.1536 -0.2284
 7984TIP3   OH245442   0.079   0.611   4.762 -0.2998  0.4761  0.0158
 7984TIP3    H145443   0.018   0.673   4.801 -0.5509 -0.1251  0.6050
 7984TIP3    H245444   0.032   0.577   4.685 -0.1469  1.0290 -0.3279
 7985TIP3   OH245445   2.927   0.245   0.420 -0.5160  0.1989 -0.7778
 7985TIP3    H145446   2.841   0.203   0.418 -1.1493  1.1189  2.3107
 7985TIP3    H245447   2.967   0.215   0.502  1.7690  0.5319 -1.6783
 7986TIP3   OH245448   1.521   2.342   6.758 -0.3690  0.0560 -0.3053
 7986TIP3    H145449   1.605   2.387   6.763 -0.7650  0.7815 -0.0670
 7986TIP3    H245450   1.523   2.279   6.830 -0.1233  0.2458 -0.1455
 7987TIP3   OH245451   2.377   2.130  56.713  0.5893  0.3729 -0.3601
 7987TIP3    H145452   2.448   2.169  56.663  1.4902  1.9777  2.0130
 7987TIP3    H245453   2.420   2.070  56.773 -0.3511 -0.6880 -0.7192
 7988TIP3   OH245454   3.411   0.133   6.413  0.1337 -0.3922 -0.3485
 7988TIP3    H145455   3.426   0.170   6.326 -1.3025 -1.8633 -1.2745
 7988TIP3    H245456   3.492   0.085   6.432  0.4413 -0.1098 -0.9009
 7989TIP3   OH245457   3.172   1.211   9.336  0.2245  0.1185 -0.4610
 7989TIP3    H145458   3.155   1.202   9.430  0.5298 -1.2388 -0.5250
 7989TIP3    H245459   3.255   1.258   9.332 -0.1806  0.8914 -0.0753
 7990TIP3   OH245460   2.283   2.659  16.127 -0.2145 -0.3734 -0.2936
 7990TIP3    H145461   2.317   2.585  16.179  1.0460  0.8809  0.7512
 7990TIP3    H245462   2.303   2.636  16.036  1.5777 -0.6388  0.1392
 7991TIP3   OH245463   2.665   2.088   9.426 -0.4082 -0.0155  0.7732
 7991TIP3    H145464   2.712   2.168   9.403  0.8572 -1.2048 -1.0565
 7991TIP3    H245465   2.572   2.111   9.418 -0.0509  1.1199 -0.2774
 7992TIP3   OH245466   1.118   2.665  54.084  0.8354 -0.3719  0.3665
 7992TIP3    H145467   1.042   2.609  54.073 -0.2719  1.1926 -0.3890
 7992TIP3    H245468   1.176   2.643  54.011 -0.5538  0.8874 -1.1715
 7993TIP3   OH245469   1.143   2.187  66.434  0.0986  0.1879  0.3062
 7993TIP3    H145470   1.165   2.278  66.455  1.2910  0.2732 -1.1419
 7993TIP3    H245471   1.109   2.191  66.345  2.3449 -1.0109 -0.6806
 7994TIP3   OH245472   1.215   3.029  52.968  0.6360 -0.4652 -0.0940
 7994TIP3    H145473   1.132   3.062  52.932  1.2457  0.5035 -0.6608
 7994TIP3    H245474   1.282   3.076  52.918  1.5226 -1.0583  0.5314
 7995TIP3   OH245475   0.532   2.429  66.396 -0.2531  0.0393  0.4586
 7995TIP3    H145476   0.439   2.449  66.406 -0.2720 -0.0949  0.5544
 7995TIP3    H245477   0.549   2.362  66.462 -0.2811 -0.5462 -0.1274
 7996TIP3   OH245478   1.026   2.802   0.002 -0.2591  0.2991  1.2137
 7996TIP3    H145479   1.022   2.879   0.059 -0.1008  0.4330  1.0463
 7996TIP3    H245480   0.949   2.751   0.026  0.2794 -0.0946  2.1795
 7997TIP3   OH245481   1.094   1.134   1.360  0.2426 -0.7134 -0.2565
 7997TIP3    H145482   1.020   1.161   1.414  0.1756 -0.3047 -0.5506
 7997TIP3    H245483   1.086   1.186   1.281 -0.2766 -2.0705 -1.1415
 7998TIP3   OH245484   3.254   2.898  53.448 -0.3667 -0.5614  0.4002
 7998TIP3    H145485   3.298   2.984  53.447 -3.0465  0.9122 -0.1981
 7998TIP3    H245486   3.310   2.842  53.395  0.7449  1.2299 -0.4194
 7999TIP3   OH245487   0.363   3.271  22.131  0.1707  0.2766 -0.6999
 7999TIP3    H145488   0.295   3.266  22.198  1.4641  0.9728  0.7141
 7999TIP3    H245489   0.438   3.226  22.169  1.7742  2.8396 -0.5543
 8000TIP3   OH245490   1.667   1.535  59.563 -0.0044 -0.1184 -0.6027
 8000TIP3    H145491   1.644   1.583  59.643  0.7415  2.3144 -1.7373
 8000TIP3    H245492   1.668   1.602  59.494  3.3053 -1.3012 -1.9395
 8001TIP3   OH245493   1.099   0.850  66.445  0.7985 -0.5843  0.5711
 8001TIP3    H145494   1.105   0.875  66.537  2.3058 -1.7643  0.8298
 8001TIP3    H245495   1.064   0.760  66.447 -1.7008  0.2762 -0.1910
 8002TIP3   OH245496   2.341   2.901  44.676 -0.0347  0.1969  0.0002
 8002TIP3    H145497   2.246   2.901  44.677 -0.0754 -1.0193 -0.8027
 8002TIP3    H245498   2.367   2.841  44.746  0.0038 -1.7556 -1.5605
 8003TIP3   OH245499   2.372   3.099   6.836 -0.3717  0.4610  0.2265
 8003TIP3    H145500   2.293   3.118   6.885  0.9819  0.2025  2.6485
 8003TIP3    H245501   2.356   3.012   6.799 -1.9128  1.1929 -0.9482
 8004TIP3   OH245502   0.480   2.813   7.653  0.4243  0.0716 -0.5170
 8004TIP3    H145503   0.406   2.847   7.604 -0.4489  0.0365  0.7334
 8004TIP3    H245504   0.498   2.727   7.615 -1.3682 -0.7211  0.3310
 8005TIP3   OH245505   1.763   1.658  56.188  0.2811  0.3891 -0.0091
 8005TIP3    H145506   1.843   1.610  56.206  0.2286  0.5612  0.7310
 8005TIP3    H245507   1.776   1.695  56.101  0.9138  0.2363  0.0148
 8006TIP3   OH245508   0.302   0.498  47.984  0.2105 -0.7110  0.2925
 8006TIP3    H145509   0.353   0.572  48.019 -1.0483  0.5223 -0.3917
 8006TIP3    H245510   0.326   0.495  47.892  0.3928 -1.2937  0.3590
 8007TIP3   OH245511   3.316   0.016   8.072  0.2934  0.2279  0.0880
 8007TIP3    H145512   3.372  -0.016   8.143  3.4487  0.9604 -1.8716
 8007TIP3    H245513   3.326   0.111   8.074 -2.7884  0.6634  1.0111
 8008TIP3   OH245514   1.438   1.109  21.854  0.1448  0.0990  0.1136
 8008TIP3    H145515   1.482   1.187  21.822  0.4328  0.3447  1.0751
 8008TIP3    H245516   1.499   1.038  21.836 -0.3102  0.0086 -1.1793
 8009TIP3   OH245517   2.868   1.970  18.664  0.5270  0.7550 -0.1155
 8009TIP3    H145518   2.897   2.059  18.644 -0.2059  1.4166  1.5702
 8009TIP3    H245519   2.773   1.973  18.654  0.6055 -0.2246 -1.3438
 8010TIP3   OH245520   1.864   1.943   0.097 -0.1804 -0.2392  0.5286
 8010TIP3    H145521   1.863   2.027   0.143  0.8728  0.6743 -1.0312
 8010TIP3    H245522   1.778   1.938   0.054  0.7438  1.5115 -1.7580
 8011TIP3   OH245523   0.785   1.682   4.268  0.1207  0.2932  0.2919
 8011TIP3    H145524   0.752   1.772   4.269 -1.2651 -0.1913  1.0120
 8011TIP3    H245525   0.710   1.629   4.243  0.7017 -0.7467  0.6741
 8012TIP3   OH245526   0.127   1.200  53.838 -0.4042 -0.2024  0.4775
 8012TIP3    H145527   0.118   1.162  53.751 -0.0866  0.4493  0.1532
 8012TIP3    H245528   0.038   1.201  53.873 -0.5617 -0.2752  0.0858
 8013TIP3   OH245529   2.126   1.559  53.061  0.0668  0.0216  0.0947
 8013TIP3    H145530   2.071   1.480  53.055  0.3234 -0.0780 -1.3029
 8013TIP3    H245531   2.198   1.542  53.000  2.0834 -0.1375  2.3770
 8014TIP3   OH245532   3.027   0.648  44.189 -0.2126  1.1116  0.4764
 8014TIP3    H145533   2.933   0.664  44.199 -0.0957  1.0597  1.9537
 8014TIP3    H245534   3.040   0.637  44.095 -1.7543  0.6816  0.2818
 8015TIP3   OH245535   2.966   0.471  18.194 -0.1651  0.2730  0.6420
 8015TIP3    H145536   2.908   0.412  18.243 -2.9650  0.4570 -2.0682
 8015TIP3    H245537   2.964   0.553  18.242 -2.1934  0.2451  0.6888
 8016TIP3   OH245538   3.190   2.051  18.797 -0.4207 -0.2864  0.1201
 8016TIP3    H145539   3.178   1.983  18.863 -0.9921 -0.8085 -0.4927
 8016TIP3    H245540   3.136   2.124  18.827 -1.9282 -1.0891 -0.5119
 8017TIP3   OH245541   2.964   0.328  16.245 -0.3577 -0.4646 -0.2674
 8017TIP3    H145542   2.877   0.287  16.239 -0.4323 -0.7759  2.1969
 8017TIP3    H245543   2.951   0.403  16.302  0.7809  0.2234 -0.8732
 8018TIP3   OH245544   2.461   1.059  48.869  0.0456 -0.0061 -0.1421
 8018TIP3    H145545   2.518   1.037  48.795 -0.5918  0.7761 -0.9017
 8018TIP3    H245546   2.372   1.044  48.836 -0.2421  0.2286  0.5070
 8019TIP3   OH245547   2.678   1.098  20.738 -0.1592  0.0108  0.4635
 8019TIP3    H145548   2.716   1.171  20.786 -1.5607  0.3919  1.0546
 8019TIP3    H245549   2.682   1.024  20.798 -1.0340  0.2474  0.8277
 8020TIP3   OH245550   2.413   2.043  22.110  0.6398 -0.2979  0.5824
 8020TIP3    H145551   2.503   2.066  22.130  0.7069  0.6984 -0.7292
 8020TIP3    H245552   2.365   2.126  22.117  0.1510 -0.4820 -0.3710
 8021TIP3   OH245553   2.600   1.492  44.393  0.0019 -0.3002  0.4904
 8021TIP3    H145554   2.658   1.420  44.368 -0.0927 -0.4828  0.7853
 8021TIP3    H245555   2.560   1.462  44.475 -0.3969 -0.1171  0.3644
 8022TIP3   OH245556   2.810   0.754   0.740  0.3879 -0.3625  0.1527
 8022TIP3    H145557   2.898   0.787   0.755 -0.1559  0.3926  1.9267
 8022TIP3    H245558   2.756   0.800   0.804 -1.7569  1.1160 -2.4859
 8023TIP3   OH245559   2.084   0.989  54.240  0.4176 -0.0729  0.4547
 8023TIP3    H145560   2.177   1.009  54.227  0.5576 -1.1476 -0.3621
 8023TIP3    H245561   2.059   1.041  54.316  2.1332 -1.0714  1.7713
 8024TIP3   OH245562   1.480   2.024  17.609 -0.3956 -0.2153 -0.1273
 8024TIP3    H145563   1.532   1.959  17.563  0.7549 -0.0826  0.9422
 8024TIP3    H245564   1.396   2.025  17.562  0.3991 -0.7332 -1.6212
 8025TIP3   OH245565   0.347   2.734  49.554 -0.5317  0.1729 -0.2087
 8025TIP3    H145566   0.341   2.823  49.588  0.8352 -0.1710  1.0386
 8025TIP3    H245567   0.258   2.713  49.524 -1.2081  1.4217  0.8304
 8026TIP3   OH245568   3.344   0.477  62.604 -0.2978 -0.0663  1.0462
 8026TIP3    H145569   3.361   0.562  62.564 -2.8773  1.2440  2.4710
 8026TIP3    H245570   3.411   0.468  62.672  0.1660  0.6972  0.6982
 8027TIP3   OH245571   1.232   0.739  43.977  0.2241  0.1319  0.2410
 8027TIP3    H145572   1.323   0.749  43.949  0.1988 -1.1775 -0.4146
 8027TIP3    H245573   1.204   0.658  43.935 -1.6040  1.1074 -0.4969
 8028TIP3   OH245574   0.930   0.023   3.135 -0.0571 -0.1538 -0.1702
 8028TIP3    H145575   0.887   0.033   3.050  1.1572 -0.8410 -0.8918
 8028TIP3    H245576   1.020   0.053   3.120  0.1171 -0.0752  0.9432
 8029TIP3   OH245577   0.168   3.307  17.138 -0.3970  0.0175 -0.3266
 8029TIP3    H145578   0.096   3.354  17.179  0.2728  1.2343 -0.5115
 8029TIP3    H245579   0.165   3.220  17.177 -1.5160  0.2695  0.1924
 8030TIP3   OH245580   1.175   0.497  42.640  0.1503 -0.1883  0.6494
 8030TIP3    H145581   1.189   0.408  42.674  0.9611 -0.4216 -0.2622
 8030TIP3    H245582   1.222   0.499  42.557  2.9443  2.1120  2.1359
 8031TIP3   OH245583   2.135   0.996  53.607  0.0438  0.2669 -0.0523
 8031TIP3    H145584   2.060   1.053  53.626  1.0945  0.8906  2.8539
 8031TIP3    H245585   2.110   0.911  53.644  0.4449  0.2787  0.2571
 8032TIP3   OH245586   2.892   1.249   9.914  0.4964 -0.0509  0.0137
 8032TIP3    H145587   2.963   1.305   9.946  1.2520 -0.1220 -1.4453
 8032TIP3    H245588   2.926   1.160   9.919  0.3074 -0.1369 -0.1788
 8033TIP3   OH245589   1.135   1.694  55.850  0.1103  0.5276  0.4419
 8033TIP3    H145590   1.056   1.692  55.905 -0.0247 -2.7624  0.3219
 8033TIP3    H245591   1.200   1.739  55.904 -1.0744  0.8172  1.7065
 8034TIP3   OH245592   1.748   1.309  17.311  0.8098 -0.5428  0.0883
 8034TIP3    H145593   1.818   1.366  17.340 -0.9658  1.0339  1.5685
 8034TIP3    H245594   1.770   1.223  17.347  1.9979 -0.0832  0.4848
 8035TIP3   OH245595   0.132   0.759  17.138 -0.7426  0.1462  0.2899
 8035TIP3    H145596   0.102   0.819  17.070 -2.6921 -0.2094  0.7637
 8035TIP3    H245597   0.099   0.796  17.219  2.9753  1.4801  1.3779
 8036TIP3   OH245598   3.140   0.405  64.245  0.2069  0.1732  0.3575
 8036TIP3    H145599   3.058   0.453  64.234  0.2952  0.5608  1.2815
 8036TIP3    H245600   3.182   0.447  64.320 -0.0286 -1.7712  1.6660
 8037TIP3   OH245601   1.444   1.970   8.001  0.0885  0.1926 -0.4979
 8037TIP3    H145602   1.460   1.878   7.980  3.8051  0.4728  0.4485
 8037TIP3    H245603   1.481   2.018   7.926  0.3038  0.9443  0.0814
 8038TIP3   OH245604   1.546   2.204  53.401 -0.3636  0.3656 -0.3666
 8038TIP3    H145605   1.527   2.264  53.329  0.2787  0.2976 -0.5895
 8038TIP3    H245606   1.641   2.199  53.405 -0.3987  0.0027  0.1867
 8039TIP3   OH245607   0.104   2.910  60.514  0.1922  0.0965 -0.5410
 8039TIP3    H145608   0.090   2.889  60.422  0.7363  0.3393 -0.6824
 8039TIP3    H245609   0.049   2.848  60.562 -0.7398  0.5121 -1.0494
 8040TIP3   OH245610   2.889   2.001  54.971  1.2151 -0.2726 -0.0675
 8040TIP3    H145611   2.820   2.043  55.022  0.6911 -1.2053  0.0180
 8040TIP3    H245612   2.873   2.028  54.881  0.6715 -0.5509 -0.0626
 8041TIP3   OH245613   2.467   2.280  12.701 -0.6289  0.2822  0.3223
 8041TIP3    H145614   2.540   2.217  12.700  0.2796  1.2949 -1.3368
 8041TIP3    H245615   2.498   2.351  12.759 -0.7457  0.2217  0.4596
 8042TIP3   OH245616   0.562   2.051   0.126 -0.0716 -0.0367 -0.2757
 8042TIP3    H145617   0.477   2.017   0.098  0.4445 -0.5605 -1.2376
 8042TIP3    H245618   0.604   1.977   0.171  0.9192 -0.6551 -2.0883
 8043TIP3   OH245619   0.773   0.469  61.339 -0.2311 -0.7011 -0.0192
 8043TIP3    H145620   0.714   0.526  61.289  0.8410  0.7652  0.3173
 8043TIP3    H245621   0.813   0.527  61.404 -0.4592 -2.2468  1.5696
 8044TIP3   OH245622   2.413   2.445   9.482 -0.0677  0.0078 -0.3362
 8044TIP3    H145623   2.396   2.374   9.544  1.1971 -1.0614 -1.1566
 8044TIP3    H245624   2.351   2.514   9.506 -1.6428 -1.5424  0.2011
 8045TIP3   OH245625   2.460   0.896   9.643 -0.4825  0.2059 -0.1977
 8045TIP3    H145626   2.517   0.954   9.591 -0.2302 -0.5506 -0.7823
 8045TIP3    H245627   2.459   0.813   9.595 -1.0783 -0.1924  0.4721
 8046TIP3   OH245628   1.340   3.340   7.424 -0.1706  0.4696 -0.6516
 8046TIP3    H145629   1.260   3.296   7.453 -1.9299  2.1511 -2.5388
 8046TIP3    H245630   1.376   3.282   7.357  0.3130 -0.3739  0.3188
 8047TIP3   OH245631   2.916   3.067   9.818  0.1711  0.2051 -0.1340
 8047TIP3    H145632   2.957   3.052   9.903 -1.4397  1.0187  0.8390
 8047TIP3    H245633   2.977   3.125   9.772  1.7100 -1.3047 -0.1087
 8048TIP3   OH245634   2.658   2.777  11.781 -0.8527 -0.5598  0.0641
 8048TIP3    H145635   2.590   2.716  11.753 -1.4228 -0.4945  1.2036
 8048TIP3    H245636   2.625   2.811  11.865  0.0371  0.3657  0.0517
 8049TIP3   OH245637   2.528   1.260  59.940 -0.3914 -0.6466 -0.0534
 8049TIP3    H145638   2.461   1.326  59.951  0.5195  0.0414  1.6632
 8049TIP3    H245639   2.608   1.309  59.922  0.2691 -1.2667  1.0761
 8050TIP3   OH245640   0.026   1.623  18.388  0.6414  0.1645  0.1998
 8050TIP3    H145641  -0.003   1.706  18.427  0.0820  0.1581 -0.1987
 8050TIP3    H245642   0.051   1.646  18.298  1.1994  0.0340  0.3147
 8051TIP3   OH245643   1.733   0.201  11.893 -0.3603  0.4417 -0.4088
 8051TIP3    H145644   1.824   0.221  11.917 -0.3828  1.3481 -1.0116
 8051TIP3    H245645   1.733   0.204  11.797 -0.9321  0.0089 -0.4210
 8052TIP3   OH245646   1.574   3.173  49.762 -0.1410  0.3441 -0.1091
 8052TIP3    H145647   1.580   3.080  49.738 -0.6023  0.4371 -0.5999
 8052TIP3    H245648   1.658   3.210  49.736 -0.1789  0.1851 -0.4670
 8053TIP3   OH245649   2.714   0.137   7.746  0.1539 -0.6376  0.5236
 8053TIP3    H145650   2.710   0.225   7.708  2.2606 -0.7081  0.0160
 8053TIP3    H245651   2.733   0.152   7.839 -1.4130 -0.5492  0.8566
 8054TIP3   OH245652   2.050   1.785   0.907  0.4925  0.1489  0.2698
 8054TIP3    H145653   1.986   1.721   0.939 -0.6205  0.3934 -1.2884
 8054TIP3    H245654   2.019   1.869   0.941 -1.0986  0.5082 -1.8244
 8055TIP3   OH245655   1.052   2.222  48.514 -0.2892 -0.2217  0.0277
 8055TIP3    H145656   1.025   2.281  48.443  0.9376 -0.5469 -0.7466
 8055TIP3    H245657   0.983   2.157  48.519  0.2280 -0.9894 -1.8333
 8056TIP3   OH245658   2.224   3.046  19.526 -0.3830  0.1097  0.0467
 8056TIP3    H145659   2.299   3.027  19.583 -0.4341 -0.7650 -0.1704
 8056TIP3    H245660   2.233   2.985  19.453 -0.1987  1.3671 -1.0114
 8057TIP3   OH245661   0.307   2.542  66.255  0.1386  0.8036  0.2658
 8057TIP3    H145662   0.251   2.605  66.209  0.6076  0.1290 -1.2889
 8057TIP3    H245663   0.394   2.556  66.218  0.6570  0.6083  1.3765
 8058TIP3   OH245664   0.152   3.109  47.866 -0.9572 -0.0998  0.6323
 8058TIP3    H145665   0.128   3.196  47.898  1.6066  0.6785  0.6714
 8058TIP3    H245666   0.172   3.121  47.774 -0.5951 -0.6342  0.6348
 8059TIP3   OH245667   1.302   1.467  43.041  0.1170  0.0565 -0.2562
 8059TIP3    H145668   1.300   1.547  43.094 -2.7749 -1.1988  1.7691
 8059TIP3    H245669   1.289   1.497  42.952 -0.2252  1.8866  0.3657
 8060TIP3   OH245670   1.103   2.739  51.146 -0.0668 -0.6592 -0.0032
 8060TIP3    H145671   1.015   2.729  51.184 -0.5890 -0.5515 -1.1409
 8060TIP3    H245672   1.159   2.758  51.221 -0.7599 -2.1386  0.9414
 8061TIP3   OH245673   1.715   1.645  37.060  0.4355  0.0163 -0.5773
 8061TIP3    H145674   1.714   1.733  37.098  0.0920 -0.2313  0.0047
 8061TIP3    H245675   1.700   1.659  36.966 -1.4754  0.4625 -0.2348
 8062TIP3   OH245676   1.377   1.858  59.686 -0.2392 -0.0555  0.4254
 8062TIP3    H145677   1.407   1.867  59.595  1.3581  1.9781  1.0741
 8062TIP3    H245678   1.294   1.906  59.689  0.3312  0.9665  0.2849
 8063TIP3   OH245679   1.647   2.324  54.263 -0.0695 -0.1572  0.5240
 8063TIP3    H145680   1.555   2.330  54.237 -0.0051  0.5102  0.4421
 8063TIP3    H245681   1.696   2.342  54.182  0.1604 -1.9859  0.1966
 8064TIP3   OH245682   0.081   0.751  60.296  0.0363  0.0045 -0.1704
 8064TIP3    H145683   0.079   0.676  60.236  1.2023 -0.0417 -0.1848
 8064TIP3    H245684   0.085   0.827  60.238 -1.4552  0.1033 -0.1616
 8065TIP3   OH245685   1.192   1.336  16.501 -0.3798 -0.0317  0.2985
 8065TIP3    H145686   1.169   1.250  16.536 -1.9822  0.3923  0.4079
 8065TIP3    H245687   1.121   1.393  16.531  0.5557  1.2915  0.0749
 8066TIP3   OH245688   2.747   3.016  53.162 -0.0449 -0.0945  0.0270
 8066TIP3    H145689   2.724   2.927  53.135  0.1932 -0.3016  0.4958
 8066TIP3    H245690   2.819   3.041  53.105 -1.6585  0.7182 -1.7500
 8067TIP3   OH245691   2.623   0.741  42.977  0.2496  0.0090  0.1176
 8067TIP3    H145692   2.607   0.811  43.040  0.1970  0.3051 -0.2183
 8067TIP3    H245693   2.631   0.786  42.893 -0.0176 -0.4150 -0.1359
 8068TIP3   OH245694   0.359   2.298  19.920  0.3655 -0.3432  0.1748
 8068TIP3    H145695   0.362   2.256  19.834  1.3399  2.1012 -1.0929
 8068TIP3    H245696   0.400   2.383  19.906 -0.0653  0.4056  2.9373
 8069TIP3   OH245697   2.727   2.367  64.777 -0.0509 -0.5700 -0.6411
 8069TIP3    H145698   2.701   2.277  64.796 -0.4578 -0.2310  0.4826
 8069TIP3    H245699   2.791   2.359  64.706  0.4172 -1.7866 -0.1018
 8070TIP3   OH245700   2.511   1.111  46.896 -0.2886  0.6392  0.2661
 8070TIP3    H145701   2.547   1.080  46.979 -0.6982 -0.4360  0.0638
 8070TIP3    H245702   2.525   1.038  46.836  2.4488  2.3640 -1.3807
 8071TIP3   OH245703   1.671   1.578  66.125  0.0510 -0.4403  0.0460
 8071TIP3    H145704   1.678   1.508  66.061  0.3347  0.4164 -0.8930
 8071TIP3    H245705   1.592   1.626  66.099  0.2265 -0.0173  0.2815
 8072TIP3   OH245706   3.381   2.064  60.621  0.2292 -0.0910 -0.4695
 8072TIP3    H145707   3.401   1.988  60.567  0.2186 -0.7993  0.4884
 8072TIP3    H245708   3.381   2.138  60.560  0.8996 -0.7559 -1.3091
 8073TIP3   OH245709   3.145   1.464  12.979 -0.3188  0.1368  0.2918
 8073TIP3    H145710   3.224   1.420  13.008 -0.7410 -1.2027 -0.4587
 8073TIP3    H245711   3.174   1.525  12.912 -0.0802 -2.0871 -1.8042
 8074TIP3   OH245712   0.499   1.071  12.071 -0.3115 -0.7301 -0.3225
 8074TIP3    H145713   0.487   1.075  12.165  0.3376  1.1041 -0.2813
 8074TIP3    H245714   0.566   1.003  12.058 -0.4032 -0.9867  0.5230
 8075TIP3   OH245715   1.799   1.091   9.554 -0.0205  0.1053 -0.1181
 8075TIP3    H145716   1.814   1.060   9.465  1.0879 -0.5940  0.2967
 8075TIP3    H245717   1.746   1.024   9.595 -0.1499  0.2080 -0.1174
 8076TIP3   OH245718   0.878   0.186   5.656  0.7740 -0.0945 -0.5646
 8076TIP3    H145719   0.927   0.238   5.593  1.1744  0.6441  0.3348
 8076TIP3    H245720   0.796   0.164   5.611  0.5808  1.3356 -0.9564
 8077TIP3   OH245721   0.629   2.489  52.358  0.2567  0.4087  0.1624
 8077TIP3    H145722   0.566   2.538  52.305  0.3259  0.0090 -0.2914
 8077TIP3    H245723   0.621   2.399  52.328 -0.7802 -0.1101  1.8608
 8078TIP3   OH245724   1.839   0.874  53.394 -0.3960 -0.2183 -0.1302
 8078TIP3    H145725   1.765   0.917  53.437 -0.8548 -1.2346  0.1224
 8078TIP3    H245726   1.882   0.944  53.344 -1.1304  0.5182  0.2551
 8079TIP3   OH245727   1.289   1.990  51.965 -0.3204  0.2975  0.2819
 8079TIP3    H145728   1.270   2.002  52.058  1.0209  4.0093  0.2487
 8079TIP3    H245729   1.213   1.942  51.931 -0.7658 -1.3115  3.2480
 8080TIP3   OH245730   1.817   0.843   0.762  0.6213  0.3694  0.0976
 8080TIP3    H145731   1.893   0.794   0.731 -0.2509 -0.5310 -0.6877
 8080TIP3    H245732   1.779   0.788   0.830  1.0303  1.1265  0.9651
 8081TIP3   OH245733   0.441   0.742  48.030 -0.1374  0.0054 -0.4606
 8081TIP3    H145734   0.527   0.737  48.072  0.0170  1.0986 -0.6017
 8081TIP3    H245735   0.460   0.772  47.941 -0.4543 -2.3032 -1.3714
 8082TIP3   OH245736   0.343   3.364  11.787 -0.2148  0.5960 -0.7067
 8082TIP3    H145737   0.400   3.325  11.721 -1.0656 -0.0181 -1.0982
 8082TIP3    H245738   0.256   3.360  11.749 -0.9353 -0.9667  0.9457
 8083TIP3   OH245739   2.379   0.011  12.974  0.1029  0.0936 -0.2818
 8083TIP3    H145740   2.284   0.017  12.966  0.0896  2.2777  0.6926
 8083TIP3    H245741   2.413   0.058  12.897  0.3244  1.1384  0.4291
 8084TIP3   OH245742   0.796   2.098  63.615  0.0317 -0.4942  0.9197
 8084TIP3    H145743   0.779   2.012  63.653  0.3089 -1.0803 -0.2520
 8084TIP3    H245744   0.891   2.103  63.607 -0.0528 -0.7131 -0.4070
 8085TIP3   OH245745   3.018   2.683   3.862  0.3895  0.0999  0.4724
 8085TIP3    H145746   2.949   2.703   3.925  1.5541 -0.3326  1.9180
 8085TIP3    H245747   3.017   2.759   3.802 -0.6461  0.5764  1.0609
 8086TIP3   OH245748   2.688   1.916  60.218  0.3104 -0.4394  0.5967
 8086TIP3    H145749   2.618   1.967  60.258  0.7979  1.2291 -0.6121
 8086TIP3    H245750   2.647   1.872  60.144  0.0636 -1.2437  1.1963
 8087TIP3   OH245751   2.783   1.644  51.532 -0.4941 -0.2527 -0.3172
 8087TIP3    H145752   2.707   1.674  51.481 -1.1693 -0.0518  0.7863
 8087TIP3    H245753   2.858   1.670  51.478 -1.2049 -1.0501 -1.7455
 8088TIP3   OH245754   3.245   3.184   9.244  0.0404 -1.0249 -0.1579
 8088TIP3    H145755   3.155   3.215   9.239 -0.4052 -2.3556 -1.4620
 8088TIP3    H245756   3.238   3.096   9.280  0.7816 -1.2117 -0.4449
 8089TIP3   OH245757   3.290   0.299  18.998 -0.0657  0.3840 -0.0589
 8089TIP3    H145758   3.321   0.374  18.947 -1.3095 -0.9919 -3.0372
 8089TIP3    H245759   3.257   0.237  18.933  0.7497 -2.7354  2.2572
 8090TIP3   OH245760   3.400   2.229  12.345 -0.6447  0.0715  0.5911
 8090TIP3    H145761   3.451   2.308  12.329 -0.3165  0.0948  1.6957
 8090TIP3    H245762   3.325   2.236  12.285 -0.4776  1.0801  0.4861
 8091TIP3   OH245763   1.342   0.122  22.699 -0.1160  0.1723 -0.1177
 8091TIP3    H145764   1.249   0.121  22.675 -0.3090  0.1493  0.6049
 8091TIP3    H245765   1.380   0.049  22.651 -0.5974 -0.1941  0.0441
 8092TIP3   OH245766   1.281   0.903  55.740 -0.1806 -0.0489 -0.1656
 8092TIP3    H145767   1.216   0.873  55.804 -0.2398  0.2204 -0.0952
 8092TIP3    H245768   1.269   0.845  55.664 -0.4319 -0.0703 -0.1112
 8093TIP3   OH245769   2.227   0.347   0.440 -0.0753  0.1203 -0.2951
 8093TIP3    H145770   2.271   0.322   0.522  0.4345 -0.3155 -0.6973
 8093TIP3    H245771   2.265   0.432   0.418 -1.9316  1.4228  1.1618
 8094TIP3   OH245772   2.355   3.063  15.440  0.5306  0.5212 -0.4247
 8094TIP3    H145773   2.428   3.092  15.494 -0.3581  1.4885  0.2980
 8094TIP3    H245774   2.391   3.054  15.352  1.7617 -0.0865  0.1266
 8095TIP3   OH245775   2.958   0.062   9.864  0.6796  0.4912  0.0461
 8095TIP3    H145776   2.871   0.028   9.843  0.8321  0.6602 -0.8803
 8095TIP3    H245777   2.953   0.083   9.957 -0.5120  1.2130 -0.1610
 8096TIP3   OH245778   3.268   1.352  48.539  0.1119  0.1003  0.2196
 8096TIP3    H145779   3.331   1.413  48.500  0.7692 -1.4080 -1.1915
 8096TIP3    H245780   3.183   1.393  48.527  0.3860  0.1139 -2.0881
 8097TIP3   OH245781   3.288   0.861  44.744 -0.0750  0.3543 -0.3554
 8097TIP3    H145782   3.279   0.922  44.817 -0.8170 -0.7683  0.5286
 8097TIP3    H245783   3.212   0.879  44.688 -0.1513  0.4119 -0.2327
 8098TIP3   OH245784   2.765   0.173  28.135 -0.0670 -0.4983 -0.2499
 8098TIP3    H145785   2.692   0.133  28.183  0.7508 -0.0202  1.4900
 8098TIP3    H245786   2.733   0.183  28.046 -2.2654  0.0041  0.5317
 8099TIP3   OH245787   3.253   0.240  60.878 -0.2533 -0.1340  0.2271
 8099TIP3    H145788   3.316   0.180  60.918 -0.3584 -0.2316  0.2517
 8099TIP3    H245789   3.181   0.244  60.940 -0.2245  0.0575  0.2502
 8100TIP3   OH245790   0.279   2.170  46.428 -0.1277  0.2538 -0.7703
 8100TIP3    H145791   0.261   2.255  46.389  0.3242  0.3602 -0.7564
 8100TIP3    H245792   0.353   2.136  46.378  0.8426  0.6521  0.3439
 8101TIP3   OH245793   0.697   1.364   2.106 -0.2004  0.3306 -0.3553
 8101TIP3    H145794   0.697   1.451   2.065 -1.9280  0.8400  0.6234
 8101TIP3    H245795   0.697   1.382   2.200  1.5193 -0.7908 -0.0998
 8102TIP3   OH245796   0.327   2.519  18.224 -0.2323  0.1121 -0.5447
 8102TIP3    H145797   0.372   2.593  18.265 -1.3876  1.0391 -0.8890
 8102TIP3    H245798   0.388   2.485  18.159 -0.4389  2.0929 -1.8426
 8103TIP3   OH245799   2.812   1.196  58.223  0.2478  0.3560 -0.7255
 8103TIP3    H145800   2.905   1.216  58.211  0.2518  0.2846 -0.8090
 8103TIP3    H245801   2.769   1.281  58.216  0.2014  0.2653 -1.7058
 8104TIP3   OH245802   0.568   3.112  35.398 -0.5136  0.5447  0.9349
 8104TIP3    H145803   0.613   3.028  35.405 -1.2651 -0.0527 -0.9567
 8104TIP3    H245804   0.637   3.174  35.374 -0.6537 -0.5037 -2.7469
 8105TIP3   OH245805   0.345   2.845  15.393  0.1113 -0.7238  0.1480
 8105TIP3    H145806   0.277   2.904  15.362 -0.3637 -0.9764  0.7070
 8105TIP3    H245807   0.317   2.758  15.364  0.4663 -0.7640 -0.0833
 8106TIP3   OH245808   1.725   3.023  59.212  0.0036  1.0772  0.9324
 8106TIP3    H145809   1.810   2.978  59.210 -0.6251 -0.1058  0.0285
 8106TIP3    H245810   1.665   2.964  59.168 -1.6344  1.2471  2.8031
 8107TIP3   OH245811   1.167   1.637  63.874  0.5860 -0.3706  0.2724
 8107TIP3    H145812   1.186   1.600  63.788  1.2500 -0.5356  0.4812
 8107TIP3    H245813   1.205   1.574  63.936 -1.0164 -0.9387  0.7405
 8108TIP3   OH245814   3.445   3.285   3.467  0.2913 -0.3085 -0.0658
 8108TIP3    H145815   3.492   3.207   3.437 -1.3200 -1.5706  0.5534
 8108TIP3    H245816   3.355   3.255   3.481  0.1603  1.0279  2.5636
 8109TIP3   OH245817   1.646   1.671  61.066  0.0368  0.2815  0.6819
 8109TIP3    H145818   1.574   1.645  61.123  0.1175 -0.8653  0.2800
 8109TIP3    H245819   1.662   1.595  61.010 -1.0190  1.8347 -1.9011
 8110TIP3   OH245820   1.722   3.273  46.819  0.1394 -0.1924  0.8667
 8110TIP3    H145821   1.798   3.216  46.810  0.1981 -0.3893  2.3801
 8110TIP3    H245822   1.742   3.328  46.895 -1.7899 -1.1616  2.1539
 8111TIP3   OH245823   2.806   2.643  10.076 -0.3785 -0.3429 -0.5763
 8111TIP3    H145824   2.890   2.611  10.042 -0.1813 -0.0704 -0.3553
 8111TIP3    H245825   2.758   2.673   9.999 -0.6386 -1.3268 -0.8116
 8112TIP3   OH245826   1.056   3.119  57.387 -0.1457 -0.1293 -0.4926
 8112TIP3    H145827   0.979   3.100  57.441 -0.4637  0.4373 -0.7348
 8112TIP3    H245828   1.049   3.213  57.369 -0.3109 -0.3943 -1.9300
 8113TIP3   OH245829   2.610   3.049  15.582  0.0708 -0.1690 -0.5475
 8113TIP3    H145830   2.642   3.139  15.594  0.7759 -0.4404 -0.2823
 8113TIP3    H245831   2.689   2.995  15.588 -0.3954 -0.8405 -0.2828
 8114TIP3   OH245832   1.782   1.990  54.496 -0.0812 -0.4992  0.0546
 8114TIP3    H145833   1.708   1.952  54.544 -0.8041  1.2839  0.4438
 8114TIP3    H245834   1.769   2.085  54.505  1.8652 -0.1541 -0.5045
 8115TIP3   OH245835   1.639   1.877  59.927 -0.1393 -0.1701 -0.0034
 8115TIP3    H145836   1.591   1.949  59.968 -0.6932 -0.8934  0.6233
 8115TIP3    H245837   1.729   1.888  59.958 -0.2198  0.2488  0.0899
 8116TIP3   OH245838   2.382   2.599  47.655 -0.2304  0.2106 -0.2017
 8116TIP3    H145839   2.421   2.515  47.629 -1.4020 -0.4190  0.0297
 8116TIP3    H245840   2.332   2.578  47.734  1.9440  1.7383  1.7292
 8117TIP3   OH245841   1.513   0.475  43.725 -0.1529  0.0528 -0.0770
 8117TIP3    H145842   1.466   0.514  43.651 -1.1775 -0.0000  0.5293
 8117TIP3    H245843   1.591   0.529  43.735 -1.6211  2.1384  0.8672
 8118TIP3   OH245844   2.037   1.243  26.038 -0.3240  0.4894 -0.9217
 8118TIP3    H145845   2.117   1.293  26.024 -0.4700  0.9881 -0.0998
 8118TIP3    H245846   2.017   1.257  26.131 -1.0328 -0.1135 -0.9768
 8119TIP3   OH245847   2.956   2.692  17.019  0.2941 -0.4853 -0.3035
 8119TIP3    H145848   2.886   2.628  17.006  0.3405 -0.6020  0.0086
 8119TIP3    H245849   2.910   2.775  17.032  0.2402 -0.4180 -0.9047
 8120TIP3   OH245850   2.259   1.343   9.458 -0.8614 -0.3697  0.3117
 8120TIP3    H145851   2.305   1.333   9.541 -0.8844  0.0213  0.3739
 8120TIP3    H245852   2.196   1.271   9.456  1.5258 -2.6409 -0.9922
 8121TIP3   OH245853   2.400   0.703   3.700  0.0707  0.2731  0.3477
 8121TIP3    H145854   2.392   0.792   3.732  1.0624  1.3164 -2.0519
 8121TIP3    H245855   2.342   0.699   3.624  0.1990 -1.0685  0.2973
 8122TIP3   OH245856   2.350   1.406  59.131 -0.4708 -0.3527 -0.1250
 8122TIP3    H145857   2.265   1.396  59.175 -0.6029  0.7832 -0.0915
 8122TIP3    H245858   2.336   1.370  59.043 -1.1816  0.3987 -0.3322
 8123TIP3   OH245859   0.776   2.392  11.550 -0.5081 -0.0610  0.6640
 8123TIP3    H145860   0.716   2.319  11.536  0.0330 -0.5501  0.8471
 8123TIP3    H245861   0.765   2.447  11.473 -0.5498 -0.6033  0.2733
 8124TIP3   OH245862   0.318   0.529  18.412  0.5191 -0.3659 -0.2894
 8124TIP3    H145863   0.224   0.540  18.422  0.4649  0.1551 -1.2697
 8124TIP3    H245864   0.356   0.569  18.491 -0.0132  0.7426 -0.5748
 8125TIP3   OH245865   1.149   1.489  66.192  0.5324  0.0599 -0.4373
 8125TIP3    H145866   1.094   1.568  66.197 -0.0648 -0.3809  0.1739
 8125TIP3    H245867   1.232   1.515  66.231 -0.2189 -0.0613  1.3365
 8126TIP3   OH245868   0.477   3.375  21.327  0.5984  0.2643 -0.1383
 8126TIP3    H145869   0.498   3.282  21.333  1.7107  0.3336 -2.0476
 8126TIP3    H245870   0.544   3.411  21.268 -0.2238  2.1430 -0.0098
 8127TIP3   OH245871   2.192   0.684  55.621  0.2659 -0.4894  0.2573
 8127TIP3    H145872   2.143   0.616  55.669 -1.8622  0.2672 -0.7004
 8127TIP3    H245873   2.180   0.660  55.528 -1.5580  1.7634 -0.1727
 8128TIP3   OH245874   0.195   2.682   3.431  0.2638 -1.0069 -0.2086
 8128TIP3    H145875   0.118   2.688   3.374  0.4869 -3.5170 -0.8895
 8128TIP3    H245876   0.174   2.612   3.492  0.3370  1.1164  2.4566
 8129TIP3   OH245877   1.404   1.587  49.493 -0.4899 -0.4670  0.6608
 8129TIP3    H145878   1.425   1.642  49.417  1.5299 -1.9895  0.0383
 8129TIP3    H245879   1.308   1.591  49.499 -0.6986 -0.0054 -1.7605
 8130TIP3   OH245880   0.321   1.445  10.976 -0.2541 -0.0683  0.0855
 8130TIP3    H145881   0.397   1.386  10.974  0.1003  0.2916  1.7117
 8130TIP3    H245882   0.261   1.404  11.038 -1.0315  0.1011 -0.5410
 8131TIP3   OH245883   0.119   1.703  16.314 -0.2991  0.0109 -0.4175
 8131TIP3    H145884   0.187   1.656  16.265 -0.9177  0.9381 -2.2848
 8131TIP3    H245885   0.151   1.704  16.404  1.8369 -0.1880 -1.1042
 8132TIP3   OH245886   2.653   0.955  21.025  0.0246  0.6388 -0.5423
 8132TIP3    H145887   2.588   1.023  21.007  0.0438  1.0226  0.7424
 8132TIP3    H245888   2.716   0.996  21.085 -0.2412 -0.6308  0.6800
 8133TIP3   OH245889   1.338   1.578  49.769 -0.3366  0.1947  0.1301
 8133TIP3    H145890   1.312   1.573  49.677 -2.4438 -2.9384  0.7594
 8133TIP3    H245891   1.400   1.507  49.781 -1.8045 -0.9178  1.5454
 8134TIP3   OH245892   2.053   2.706   2.631  0.0504  0.4977  0.6215
 8134TIP3    H145893   2.078   2.644   2.563  1.5430 -1.0272  2.4322
 8134TIP3    H245894   1.957   2.705   2.632  0.0392 -0.3602 -0.6263
 8135TIP3   OH245895   0.373   0.430  20.786 -0.2071  0.0586  0.3702
 8135TIP3    H145896   0.385   0.519  20.752 -0.2874 -1.0817 -2.8854
 8135TIP3    H245897   0.399   0.373  20.715 -1.4647 -2.5854  1.8896
 8136TIP3   OH245898   0.554   3.148   3.101 -0.0962 -0.2919 -0.0318
 8136TIP3    H145899   0.500   3.107   3.035  0.0766 -0.6500  0.0465
 8136TIP3    H245900   0.499   3.218   3.137 -0.0075  0.2448 -0.9028
 8137TIP3   OH245901   1.371   2.673  12.374  0.1625 -0.1196 -0.7391
 8137TIP3    H145902   1.408   2.588  12.349 -0.4210 -1.0967  1.4821
 8137TIP3    H245903   1.279   2.667  12.349  0.0582 -0.2604 -0.3267
 8138TIP3   OH245904   2.798   1.477  65.906  0.8063  0.2070 -0.6697
 8138TIP3    H145905   2.880   1.430  65.890  0.7853  0.2168 -0.8068
 8138TIP3    H245906   2.748   1.466  65.825  0.4824 -0.1872 -0.4199
 8139TIP3   OH245907   2.490   0.901   0.017  0.0131  0.3944  0.4580
 8139TIP3    H145908   2.528   0.891   0.104  2.3773  0.2294 -0.5458
 8139TIP3    H245909   2.525   0.828  -0.033 -0.9746  0.7381 -0.7799
 8140TIP3   OH245910   3.153   0.671   9.677 -0.0334 -0.4091  0.1897
 8140TIP3    H145911   3.242   0.641   9.693 -0.2234  0.2564  3.2320
 8140TIP3    H245912   3.162   0.764   9.657 -0.0695  0.4115  3.4257
 8141TIP3   OH245913   2.849   3.336  42.256 -0.2233  0.1482  0.2807
 8141TIP3    H145914   2.936   3.346  42.218  0.7173  0.9441  2.4622
 8141TIP3    H245915   2.843   3.243  42.277 -1.0637 -0.4587 -2.3371
 8142TIP3   OH245916   0.970   0.467   3.467  0.5979  0.3009 -0.4895
 8142TIP3    H145917   0.979   0.395   3.404  0.9972 -0.3140  0.2615
 8142TIP3    H245918   0.926   0.428   3.542  0.0757  1.0474 -0.3959
 8143TIP3   OH245919   3.371   0.696  63.093  0.1967  0.4274  0.2590
 8143TIP3    H145920   3.346   0.766  63.033  1.6329  0.3845 -0.4309
 8143TIP3    H245921   3.417   0.741  63.164 -0.2862  0.3425  0.6251
 8144TIP3   OH245922   0.675   1.839  47.325  0.1410 -0.3085  0.1094
 8144TIP3    H145923   0.625   1.772  47.278 -0.4839 -0.2839  0.7152
 8144TIP3    H245924   0.766   1.824  47.299 -0.0947 -0.8162 -0.4569
 8145TIP3   OH245925   3.036   1.598   5.511  0.6476  0.2061  0.3456
 8145TIP3    H145926   2.975   1.668   5.534  1.7826  0.5883  2.4807
 8145TIP3    H245927   3.119   1.624   5.552  1.9714 -0.8269 -1.5243
 8146TIP3   OH245928   2.537   0.906  44.840  0.8576  0.2094  0.2178
 8146TIP3    H145929   2.474   0.836  44.857  0.5416  0.3974 -0.1612
 8146TIP3    H245930   2.484   0.978  44.806  1.3573  0.1206 -0.7918
 8147TIP3   OH245931   0.226   2.544  43.513 -0.5458  0.9781  0.3195
 8147TIP3    H145932   0.275   2.493  43.578 -1.5274 -0.9247 -0.3723
 8147TIP3    H245933   0.136   2.541  43.543 -0.7445  1.5998 -0.1945
 8148TIP3   OH245934   1.340   0.225  44.506  0.3175 -0.3605 -0.7295
 8148TIP3    H145935   1.246   0.224  44.485  0.4135 -2.9995 -1.4111
 8148TIP3    H245936   1.373   0.144  44.468  2.2720 -1.0328  2.1398
 8149TIP3   OH245937   1.801   1.088  57.281 -0.0183 -0.0947  0.1938
 8149TIP3    H145938   1.756   1.016  57.239  0.8519 -0.8199  0.4759
 8149TIP3    H245939   1.875   1.048  57.326  1.2417  1.1217 -0.7204
 8150TIP3   OH245940   0.237   1.617   2.823  0.0261 -0.3684  0.0967
 8150TIP3    H145941   0.188   1.656   2.895  0.9689 -1.4193  1.3713
 8150TIP3    H245942   0.329   1.621   2.851  0.7463  1.5942 -2.2400
 8151TIP3   OH245943   0.908   2.263  11.740 -0.7432 -0.4435  0.0578
 8151TIP3    H145944   0.861   2.301  11.666 -0.8193 -0.0595  0.3033
 8151TIP3    H245945   0.997   2.250  11.708 -0.6851  0.0663  0.0192
 8152TIP3   OH245946   1.114   0.539  52.841  0.4297  0.1367 -0.3404
 8152TIP3    H145947   1.093   0.533  52.934 -1.8604 -1.0873 -0.8442
 8152TIP3    H245948   1.183   0.604  52.836  1.2093 -0.3578  2.2955
 8153TIP3   OH245949   1.870   1.911  22.202 -0.6516  0.0710  0.0938
 8153TIP3    H145950   1.868   1.912  22.297  0.5415  0.9698  0.1301
 8153TIP3    H245951   1.791   1.862  22.177 -0.0703 -1.7091  1.5556
 8154TIP3   OH245952   0.150   1.978  59.410 -0.2185 -0.2974 -0.0964
 8154TIP3    H145953   0.059   1.951  59.407  0.0750 -1.2624 -0.8491
 8154TIP3    H245954   0.174   1.969  59.503 -0.6687 -0.7763 -0.0234
 8155TIP3   OH245955   2.489   1.312  51.863 -0.1623 -0.5263  0.2733
 8155TIP3    H145956   2.546   1.250  51.908  1.0869  0.1686 -0.2922
 8155TIP3    H245957   2.448   1.261  51.793  2.3775 -0.3599 -1.4733
 8156TIP3   OH245958   1.890   2.547  56.272 -0.1447  0.2038 -0.3474
 8156TIP3    H145959   1.876   2.454  56.250  3.6236 -0.7816  0.6738
 8156TIP3    H245960   1.901   2.547  56.367  0.7660  1.5307 -0.4375
 8157TIP3   OH245961   3.450   0.119  62.456 -0.4624 -0.2433 -0.2379
 8157TIP3    H145962   3.459   0.189  62.392 -0.0360 -0.0065  0.0743
 8157TIP3    H245963   3.437   0.164  62.539 -0.1285 -0.5270 -0.0287
 8158TIP3   OH245964   2.601   1.364  16.133 -0.5187  0.3828  0.7299
 8158TIP3    H145965   2.658   1.404  16.199  0.1197  0.3281  0.2199
 8158TIP3    H245966   2.516   1.404  16.148 -0.3130  0.5814  1.4055
 8159TIP3   OH245967   1.381   1.256   4.312  0.6721  0.1139 -0.2092
 8159TIP3    H145968   1.300   1.207   4.297  1.7312 -3.1478  3.0176
 8159TIP3    H245969   1.450   1.193   4.290  2.4039  2.5064 -2.0458
 8160TIP3   OH245970   0.684   1.861  50.385  0.1845  0.3863  0.5725
 8160TIP3    H145971   0.620   1.814  50.439  0.7507 -0.3583  0.6072
 8160TIP3    H245972   0.736   1.792  50.344  0.8412  0.9827  0.3894
 8161TIP3   OH245973   2.341   3.036  63.464 -0.0467 -0.2948 -0.1302
 8161TIP3    H145974   2.358   3.127  63.441  0.2850  0.3310  2.3077
 8161TIP3    H245975   2.248   3.024  63.448  0.1135  0.1288 -1.4693
 8162TIP3   OH245976   2.485   2.709  58.832 -0.2473  0.7454  0.2946
 8162TIP3    H145977   2.577   2.734  58.822 -0.7568  1.7231 -3.7814
 8162TIP3    H245978   2.482   2.617  58.804 -0.1821 -0.3123  3.4178
 8163TIP3   OH245979   2.397   2.179  63.177  0.0134  0.1248 -0.4811
 8163TIP3    H145980   2.460   2.191  63.247 -1.1560  0.3982  0.5560
 8163TIP3    H245981   2.438   2.116  63.118  0.2946 -1.5048  1.3760
 8164TIP3   OH245982   2.450   2.581  50.935  0.4171 -0.1841  0.3876
 8164TIP3    H145983   2.462   2.610  50.845  0.2126  1.2694  0.8045
 8164TIP3    H245984   2.513   2.632  50.986 -0.8016  0.4418  1.3129
 8165TIP3   OH245985   2.285   1.532  56.765  0.0619 -0.0896  0.4880
 8165TIP3    H145986   2.360   1.476  56.785  0.0562 -0.2522  0.0609
 8165TIP3    H245987   2.245   1.550  56.851 -1.3827 -2.7670  0.4798
 8166TIP3   OH245988   0.800   2.184  14.224  0.2022 -0.4648  0.1187
 8166TIP3    H145989   0.751   2.266  14.217  2.9324  1.3963  1.2838
 8166TIP3    H245990   0.869   2.191  14.158  0.8422 -1.5553  0.6304
 8167TIP3   OH245991   1.227   0.335  57.678 -0.1998 -0.0978  0.0086
 8167TIP3    H145992   1.160   0.388  57.723  0.0393 -0.0318  0.2886
 8167TIP3    H245993   1.212   0.352  57.585 -0.3072  0.2472  0.0851
 8168TIP3   OH245994   2.240   1.658  14.518  0.1164 -0.7457  0.0735
 8168TIP3    H145995   2.202   1.604  14.588  0.4075  0.6856  1.3967
 8168TIP3    H245996   2.170   1.666  14.454 -0.6099 -1.0672  0.7979
 8169TIP3   OH245997   3.361   2.347  28.337 -0.6995 -0.5343  0.0135
 8169TIP3    H145998   3.279   2.382  28.301  0.2671  2.5133  0.5226
 8169TIP3    H245999   3.358   2.368  28.430  0.3299 -1.0996  0.1950
 8170TIP3   OH246000   3.253   2.305  47.815  0.0260 -0.6760  0.0703
 8170TIP3    H146001   3.260   2.246  47.889  0.7609 -0.9090 -0.1732
 8170TIP3    H246002   3.282   2.390  47.848  1.9799 -1.1301 -0.3408
 8171TIP3   OH246003   2.012   3.289   0.283 -0.2217 -0.7684  0.2020
 8171TIP3    H146004   2.075   3.270   0.352  0.2421  0.4315  0.1280
 8171TIP3    H246005   1.989   3.203   0.247  1.5995 -1.2198  0.0285
 8172TIP3   OH246006   1.403   1.476  17.151  0.1068  0.0205  0.1753
 8172TIP3    H146007   1.468   1.536  17.116  0.6979 -0.6918  0.0364
 8172TIP3    H246008   1.439   1.389  17.135 -0.9192 -0.3863  0.0216
 8173TIP3   OH246009   2.604   2.511  57.576  0.1098 -0.1296 -0.0257
 8173TIP3    H146010   2.619   2.584  57.516  0.9103 -0.7061 -0.5572
 8173TIP3    H246011   2.640   2.540  57.660 -0.3456  0.3967 -0.0012
 8174TIP3   OH246012   1.806   2.934  47.582 -0.2360  0.2377  0.0711
 8174TIP3    H146013   1.833   2.987  47.507 -0.1352  0.6647  0.3988
 8174TIP3    H246014   1.847   2.849  47.568 -0.5014  0.2065 -0.5305
 8175TIP3   OH246015   1.708   2.108  55.026  1.0423 -0.1172  0.4212
 8175TIP3    H146016   1.740   2.151  54.946  1.4142  0.1222  0.7003
 8175TIP3    H246017   1.695   2.016  55.000  0.2656  0.1446 -0.1725
 8176TIP3   OH246018   0.897   3.196   7.335  0.0390 -0.3591  0.0519
 8176TIP3    H146019   0.938   3.168   7.253 -0.8260  1.5504 -1.1234
 8176TIP3    H246020   0.838   3.267   7.308 -0.1474  0.4290  2.3730
 8177TIP3   OH246021   0.052   1.842  19.912 -0.3135  0.3088  0.1636
 8177TIP3    H146022   0.052   1.830  20.007 -0.3570  1.8614  0.3941
 8177TIP3    H246023   0.062   1.937  19.900 -0.5977  0.1744 -1.3773
 8178TIP3   OH246024   2.647   2.147  58.453  0.2769 -0.0095 -0.4630
 8178TIP3    H146025   2.731   2.164  58.495 -0.4337  0.1772  0.9492
 8178TIP3    H246026   2.657   2.062  58.411  0.7371 -0.6688  0.9223
 8179TIP3   OH246027   1.861   1.654   4.442  0.1969 -0.1934 -0.2194
 8179TIP3    H146028   1.857   1.669   4.537  1.3549 -0.0042 -0.1787
 8179TIP3    H246029   1.819   1.730   4.403 -0.1846 -0.2168  0.1429
 8180TIP3   OH246030   1.183   3.291  42.791 -0.0035 -0.3382 -0.1521
 8180TIP3    H146031   1.130   3.338  42.727  1.8371 -1.2715 -2.5031
 8180TIP3    H246032   1.138   3.306  42.875 -2.0609  1.6154 -1.4887
 8181TIP3   OH246033   0.438   0.173   0.587 -0.5283 -0.0076  0.1938
 8181TIP3    H146034   0.512   0.180   0.647  0.0109 -1.6418 -0.2121
 8181TIP3    H246035   0.364   0.149   0.642 -0.3742 -0.0382  0.3875
 8182TIP3   OH246036   1.561   2.368  64.099  0.4390 -0.2940 -0.3135
 8182TIP3    H146037   1.574   2.286  64.147  0.2753 -0.4086 -0.4622
 8182TIP3    H246038   1.606   2.434  64.151  0.5090 -0.4653 -0.1588
 8183TIP3   OH246039   0.276   2.616  56.419 -0.4707 -0.4967 -0.2174
 8183TIP3    H146040   0.222   2.695  56.412  0.2160 -0.1903 -2.8602
 8183TIP3    H246041   0.366   2.648  56.418 -0.1776 -1.3004 -1.7531
 8184TIP3   OH246042   0.062   0.122   1.247 -0.4553 -0.0643 -0.5435
 8184TIP3    H146043  -0.011   0.082   1.200  0.3300 -1.9748 -0.2190
 8184TIP3    H246044   0.096   0.052   1.303  0.2774  1.3972  0.9327
 8185TIP3   OH246045   1.293   3.345  65.817  0.5117  0.2494  0.0889
 8185TIP3    H146046   1.294   3.251  65.799  1.3761  0.4532 -1.1049
 8185TIP3    H246047   1.384   3.372  65.804 -0.0490  1.5503 -1.3961
 8186TIP3   OH246048   0.555   3.347  58.774 -1.1671 -0.3229 -0.0079
 8186TIP3    H146049   0.509   3.350  58.858  0.5335  0.4130  0.9407
 8186TIP3    H246050   0.514   3.415  58.721 -1.0465  0.4457  0.8813
 8187TIP3   OH246051   1.876   2.930   6.045  0.4243  0.6754  0.0242
 8187TIP3    H146052   1.915   2.849   6.076 -1.6505  0.3279  1.9576
 8187TIP3    H246053   1.794   2.904   6.003  0.0198  1.6982  0.1311
 8188TIP3   OH246054   3.194   1.437  59.966  0.0403 -0.0085 -0.4656
 8188TIP3    H146055   3.212   1.410  59.876  0.8210  1.8634 -0.9189
 8188TIP3    H246056   3.117   1.493  59.960 -0.2411 -0.3223  0.1211
 8189TIP3   OH246057   1.045   1.969   5.518  0.6280 -0.1469  0.1273
 8189TIP3    H146058   1.126   1.926   5.492  0.2463 -0.9884  0.2928
 8189TIP3    H246059   1.039   1.955   5.612 -0.1186 -0.8142 -0.0109
 8190TIP3   OH246060   2.599   1.990  15.452  0.4431  0.2215  0.0746
 8190TIP3    H146061   2.562   1.906  15.480  2.5712 -0.1394  2.0313
 8190TIP3    H246062   2.584   2.049  15.525  1.7040  0.6764 -0.0123
 8191TIP3   OH246063   1.469   2.289  35.218  0.0047  0.1525  0.5426
 8191TIP3    H146064   1.501   2.373  35.251  0.8408 -0.4280  1.2497
 8191TIP3    H246065   1.444   2.307  35.127  1.0055  0.9667  0.4108
 8192TIP3   OH246066   1.839   0.360  53.026  0.0402 -0.0075 -0.7330
 8192TIP3    H146067   1.801   0.272  53.036  1.0011 -0.4142 -0.5348
 8192TIP3    H246068   1.772   0.410  52.979 -0.3312 -0.9790 -1.2644
 8193TIP3   OH246069   1.714   3.414  54.535 -0.1077  0.0045  0.2775
 8193TIP3    H146070   1.690   3.463  54.456 -2.7215 -1.3380  0.1209
 8193TIP3    H246071   1.688   3.472  54.607  0.2300  0.3343  0.1376
 8194TIP3   OH246072   3.180   2.739  45.286  0.3606  0.7077 -0.1564
 8194TIP3    H146073   3.099   2.688  45.294  1.0622 -0.7720 -1.7631
 8194TIP3    H246074   3.228   2.722  45.366 -0.7601  1.3733  0.6880
 8195TIP3   OH246075   0.537   2.978  65.581 -0.5945  0.7644 -0.1972
 8195TIP3    H146076   0.584   3.059  65.565  0.3446  0.0156 -1.3999
 8195TIP3    H246077   0.547   2.963  65.675  1.8049  0.5286 -0.4327
 8196TIP3   OH246078   2.859   1.896  43.295  0.4040 -0.4746  0.4590
 8196TIP3    H146079   2.812   1.972  43.330 -1.6024 -0.7217 -1.4457
 8196TIP3    H246080   2.936   1.934  43.252  0.1364  0.3570  0.6843
 8197TIP3   OH246081   0.715   2.897   7.157  0.4914 -0.0071 -0.3992
 8197TIP3    H146082   0.648   2.950   7.201 -0.1189 -1.8061  0.9304
 8197TIP3    H246083   0.721   2.936   7.070 -1.5751  0.8562 -0.2306
 8198TIP3   OH246084   1.782   2.237  45.950  0.3940  0.3414  0.0719
 8198TIP3    H146085   1.753   2.264  46.037 -2.1102  1.4775 -1.0023
 8198TIP3    H246086   1.714   2.270  45.891 -0.0046 -3.5492 -1.9887
 8199TIP3   OH246087   2.783   1.129  13.839 -0.3688  0.3294  0.0815
 8199TIP3    H146088   2.784   1.177  13.922  0.7459  3.3530 -1.5086
 8199TIP3    H246089   2.691   1.112  13.823 -0.5531 -1.2209  2.3411
 8200TIP3   OH246090   1.107   0.773  11.064 -0.4762  0.2025  0.5991
 8200TIP3    H146091   1.180   0.765  11.003  0.3208 -1.0708  1.6767
 8200TIP3    H246092   1.098   0.867  11.079 -0.0751  0.4654 -0.7241
 8201TIP3   OH246093   0.853   0.003   2.187 -0.4295  0.1740  0.6064
 8201TIP3    H146094   0.800  -0.075   2.204 -2.1557  1.1537 -0.1498
 8201TIP3    H246095   0.791   0.071   2.165  1.1360  1.4537 -0.0702
 8202TIP3   OH246096   2.638   0.212  55.887  0.1398 -0.1473  0.6383
 8202TIP3    H146097   2.722   0.189  55.926 -0.2472 -2.0390  0.4392
 8202TIP3    H246098   2.585   0.132  55.894 -0.2958 -0.3120 -2.8051
 8203TIP3   OH246099   1.912   0.411  59.418  0.1898  0.3148  0.5191
 8203TIP3    H146100   1.829   0.416  59.465 -0.9077 -1.7237 -1.0497
 8203TIP3    H246101   1.931   0.317  59.413  1.5593  0.6361 -0.9077
 8204TIP3   OH246102   3.190   0.154  53.144 -0.2155  0.2960 -0.3094
 8204TIP3    H146103   3.280   0.123  53.155  0.0862  1.2713  0.1525
 8204TIP3    H246104   3.200   0.244  53.113 -1.0106  0.7300  0.6383
 8205TIP3   OH246105   2.627   0.941  11.598  0.2575 -0.6150 -0.2063
 8205TIP3    H146106   2.664   0.940  11.686  0.0190 -1.3299 -0.1063
 8205TIP3    H246107   2.549   0.885  11.604  0.0817 -0.4405 -0.7992
 8206TIP3   OH246108   0.928   1.505  63.988  0.0745  0.3571  0.8345
 8206TIP3    H146109   0.894   1.594  63.996 -1.4187  0.0032 -0.7534
 8206TIP3    H246110   0.861   1.450  64.029 -2.2756 -0.4751 -3.4723
 8207TIP3   OH246111   1.457   1.414   7.851  0.0090  0.6807  0.1806
 8207TIP3    H146112   1.436   1.362   7.929  0.4690  0.8937  0.4489
 8207TIP3    H246113   1.553   1.421   7.852 -0.0468  1.5045  0.1291
 8208TIP3   OH246114   0.805   2.074  37.451  1.0731 -0.6560  0.0283
 8208TIP3    H146115   0.727   2.124  37.426  0.9353 -0.6143  0.5440
 8208TIP3    H246116   0.870   2.098  37.385  0.9473  0.0499  0.1544
 8209TIP3   OH246117   1.512   0.187  56.803  0.4129  0.1617  0.0827
 8209TIP3    H146118   1.470   0.251  56.745  0.6886 -0.3759 -0.7335
 8209TIP3    H246119   1.578   0.237  56.850  1.0002  0.3924 -0.9413
 8210TIP3   OH246120   3.201   0.670  12.868  0.3023 -0.2796 -0.0525
 8210TIP3    H146121   3.213   0.696  12.959  0.7588  0.1626 -0.2360
 8210TIP3    H246122   3.157   0.585  12.873 -0.0644 -0.0563  0.5700
 8211TIP3   OH246123   3.304   1.036  48.635 -0.4154  0.4558  0.2507
 8211TIP3    H146124   3.389   1.072  48.663  0.7737 -0.7040 -1.6159
 8211TIP3    H246125   3.269   1.103  48.576  0.5422 -0.2155 -1.1323
 8212TIP3   OH246126   0.254   2.508  53.105 -0.2593 -0.0107 -0.2892
 8212TIP3    H146127   0.207   2.442  53.053 -0.6683 -0.0117  0.0733
 8212TIP3    H246128   0.226   2.491  53.195  0.7058 -0.2284 -0.0160
 8213TIP3   OH246129   2.969   3.428  43.081 -0.0568 -0.2893 -0.5514
 8213TIP3    H146130   2.935   3.397  43.165 -0.8236  2.5709  0.3352
 8213TIP3    H246131   2.911   3.389  43.016  0.4879 -2.4807  0.1846
 8214TIP3   OH246132   0.637   0.917  66.184 -0.1888 -0.1206 -0.0058
 8214TIP3    H146133   0.598   1.004  66.194 -0.5163  0.0895 -2.4451
 8214TIP3    H246134   0.727   0.927  66.215 -0.1139  1.1891 -0.5922
 8215TIP3   OH246135   2.430   0.254  43.871  0.4341  0.0303 -0.0884
 8215TIP3    H146136   2.499   0.220  43.813  0.1747 -2.1575  0.7869
 8215TIP3    H246137   2.447   0.212  43.955 -1.4299  0.1489  0.3898
 8216TIP3   OH246138   1.693   0.254  49.152 -0.3615  0.2205 -0.1599
 8216TIP3    H146139   1.691   0.166  49.190 -1.4134  0.2761 -0.0611
 8216TIP3    H246140   1.771   0.254  49.096 -0.7366 -1.0178 -0.7191
 8217TIP3   OH246141   2.811   2.806  20.530  0.1044  0.2103 -0.1962
 8217TIP3    H146142   2.768   2.725  20.555 -0.0091 -0.3170 -1.9621
 8217TIP3    H246143   2.768   2.874  20.583  1.9393 -1.0702  3.2684
 8218TIP3   OH246144   0.663   0.200   3.803  0.3031 -0.7612  0.5565
 8218TIP3    H146145   0.669   0.167   3.893 -0.4013 -2.3018  0.0672
 8218TIP3    H246146   0.614   0.133   3.756  0.1937  0.2805 -0.8682
 8219TIP3   OH246147   2.923   0.283  53.291 -0.3788 -0.7251  0.2387
 8219TIP3    H146148   2.893   0.373  53.303  1.7023  0.1500 -0.5054
 8219TIP3    H246149   3.007   0.279  53.337 -1.1676 -2.8037  1.6379
 8220TIP3   OH246150   1.992   0.384  20.419 -0.2065  0.5468  0.2692
 8220TIP3    H146151   1.979   0.472  20.383  0.0377  0.1934 -0.7066
 8220TIP3    H246152   1.916   0.334  20.388 -0.4854  0.4804  1.0440
 8221TIP3   OH246153   0.444   2.850  34.355 -0.0866 -0.0513 -0.0744
 8221TIP3    H146154   0.383   2.912  34.315  1.8632  0.8014 -1.9109
 8221TIP3    H246155   0.475   2.797  34.281  2.4690  0.5334  0.4954
 8222TIP3   OH246156   1.368   2.309  18.189 -0.0254  0.3484 -0.5177
 8222TIP3    H146157   1.443   2.368  18.185 -0.0931  0.4519 -0.2953
 8222TIP3    H246158   1.369   2.262  18.106  0.9893 -0.5065 -0.0438
 8223TIP3   OH246159   2.311   2.169  52.317  0.2622 -0.4450  0.3635
 8223TIP3    H146160   2.350   2.250  52.350  0.2926 -0.5314  0.5420
 8223TIP3    H246161   2.240   2.197  52.260 -0.4348 -0.3007  1.2878
 8224TIP3   OH246162   1.783   1.093  15.337  0.2666 -0.3568  0.4123
 8224TIP3    H146163   1.719   1.089  15.409 -0.6181 -0.6689 -0.3669
 8224TIP3    H246164   1.729   1.098  15.258  1.1484 -2.7886 -0.4208
 8225TIP3   OH246165   2.600   2.362  67.200 -0.1177  0.3923 -0.5270
 8225TIP3    H146166   2.562   2.274  67.195  2.8311 -0.9437 -1.6604
 8225TIP3    H246167   2.659   2.367  67.124 -1.0188  3.8433 -1.2020
 8226TIP3   OH246168   2.495   2.997   4.230  0.6809 -0.1864 -0.5011
 8226TIP3    H146169   2.463   2.960   4.312 -0.9135  1.4036 -0.3385
 8226TIP3    H246170   2.539   3.079   4.256  0.6757  0.0384 -1.1781
 8227TIP3   OH246171   1.565   1.419  15.848  0.2446  0.0052  0.5457
 8227TIP3    H146172   1.656   1.428  15.819  0.5061  0.4645  1.4879
 8227TIP3    H246173   1.514   1.418  15.766  1.2608 -3.1575 -0.2253
 8228TIP3   OH246174   2.382   2.942  58.931 -0.7369 -0.0483 -0.2215
 8228TIP3    H146175   2.418   2.885  58.863 -1.9182 -1.1262  0.0140
 8228TIP3    H246176   2.343   3.015  58.884  0.4805  0.3963 -0.5569
 8229TIP3   OH246177   0.563   2.301  59.367 -0.5036  0.2942  0.1687
 8229TIP3    H146178   0.619   2.258  59.431  0.9525  0.6215 -0.8432
 8229TIP3    H246179   0.501   2.351  59.420 -1.0415 -1.4969  1.3376
 8230TIP3   OH246180   3.090   1.719  64.716  0.0562  0.5042 -0.0144
 8230TIP3    H146181   3.100   1.814  64.721  3.0270  0.3066 -0.6000
 8230TIP3    H246182   3.001   1.707  64.684 -0.7276  3.0301  0.8975
 8231TIP3   OH246183   2.043   0.569   5.125 -0.0938 -0.5979 -0.2680
 8231TIP3    H146184   1.970   0.631   5.120 -0.0943 -0.4990  0.7248
 8231TIP3    H246185   2.058   0.557   5.219  1.5008 -0.2167 -0.4453
 8232TIP3   OH246186   0.134   1.789  14.131  0.2695  0.2535 -0.3488
 8232TIP3    H146187   0.145   1.867  14.185 -1.0292 -0.4752  1.0579
 8232TIP3    H246188   0.202   1.729  14.163  0.2049  0.2141 -0.2861
 8233TIP3   OH246189   1.510   3.213  44.282 -0.1100  0.5821  0.4293
 8233TIP3    H146190   1.418   3.186  44.276  0.4595 -1.1600 -1.7631
 8233TIP3    H246191   1.545   3.166  44.357  0.0057 -2.3139 -1.3191
 8234TIP3   OH246192   0.954   2.935  11.877 -0.2954 -0.0836 -1.2264
 8234TIP3    H146193   0.933   2.981  11.959 -0.8642  0.3096 -1.5903
 8234TIP3    H246194   0.876   2.944  11.823 -0.4945 -1.6830 -1.2331
 8235TIP3   OH246195   2.591   3.002  30.481  0.2157  0.0601  0.7986
 8235TIP3    H146196   2.545   2.925  30.514  1.4156 -0.9702  0.1617
 8235TIP3    H246197   2.557   3.074  30.534 -0.5098 -0.9830  1.8252
 8236TIP3   OH246198   1.734   0.112  47.936 -0.1552 -0.2307 -0.6561
 8236TIP3    H146199   1.798   0.167  47.890  0.4093 -0.3944 -0.0776
 8236TIP3    H246200   1.751   0.023  47.903  1.1136 -0.5610  0.7548
 8237TIP3   OH246201   1.982   1.352  45.620  0.0794 -0.4966 -0.5398
 8237TIP3    H146202   2.061   1.400  45.597  1.7350 -1.8572  1.8509
 8237TIP3    H246203   1.943   1.403  45.691  1.0066 -1.7127  0.9372
 8238TIP3   OH246204   0.837   2.318  54.573 -0.5882 -0.0424 -0.3614
 8238TIP3    H146205   0.771   2.250  54.562 -0.1018 -0.7165  0.8007
 8238TIP3    H246206   0.836   2.340  54.666  1.1728 -0.4480 -0.1965
 8239TIP3   OH246207   2.771   2.333  26.853  0.2321  0.2625  0.2253
 8239TIP3    H146208   2.682   2.360  26.878  0.7002  0.2791  2.0062
 8239TIP3    H246209   2.826   2.409  26.872  0.4918  0.7664 -2.2066
 8240TIP3   OH246210   3.315   2.507  18.095 -0.1288 -0.7120  0.1934
 8240TIP3    H146211   3.366   2.545  18.167  0.6694 -2.1620  0.4239
 8240TIP3    H246212   3.239   2.466  18.138 -1.0822  0.6902 -0.0716
 8241TIP3   OH246213   0.910   0.985  52.083  0.3652 -0.1107  0.1330
 8241TIP3    H146214   0.889   0.986  52.177 -1.5594  2.2902 -0.2203
 8241TIP3    H246215   0.971   1.058  52.072  1.7601 -1.2878 -0.3323
 8242TIP3   OH246216   1.834   0.444  67.278  0.8693 -0.1752 -0.2469
 8242TIP3    H146217   1.801   0.533  67.292  0.4447 -0.4687  0.7011
 8242TIP3    H246218   1.929   0.455  67.269  0.7211  0.4747 -1.1661
 8243TIP3   OH246219   3.420   2.722  58.892 -0.3602  0.3323 -0.2260
 8243TIP3    H146220   3.401   2.698  58.983 -1.7443  0.0152 -0.5856
 8243TIP3    H246221   3.378   2.807  58.880 -0.1402  0.3949 -0.5579
 8244TIP3   OH246222   1.213   0.022  44.155 -0.3403  0.4105 -0.0357
 8244TIP3    H146223   1.151  -0.048  44.177 -0.6578  0.4308 -0.8411
 8244TIP3    H246224   1.161   0.102  44.162 -0.6353  0.3685 -1.4766
 8245TIP3   OH246225   2.415   3.291  57.937  0.0397 -0.3796 -0.1547
 8245TIP3    H146226   2.372   3.235  57.873 -1.5715  1.4030 -0.7154
 8245TIP3    H246227   2.375   3.267  58.020 -1.0974  0.3393 -0.4825
 8246TIP3   OH246228   0.301   2.688  43.266 -0.1614 -0.0102  0.3276
 8246TIP3    H146229   0.263   2.651  43.346  1.1526  2.8606  2.4430
 8246TIP3    H246230   0.324   2.612  43.213 -1.6508 -2.0213  2.3636
 8247TIP3   OH246231   3.220   1.068   3.648  0.2661  0.1088 -0.0337
 8247TIP3    H146232   3.260   1.061   3.734  0.3102 -0.9431 -0.1268
 8247TIP3    H246233   3.283   1.116   3.595 -0.3656  2.0585  0.8653
 8248TIP3   OH246234   0.683   3.070  42.763  0.1534 -0.5664  0.1358
 8248TIP3    H146235   0.702   3.074  42.857  1.4104 -0.8855 -0.0779
 8248TIP3    H246236   0.719   3.151  42.727  2.3908 -1.7548 -0.4713
 8249TIP3   OH246237   2.289   0.738  46.147 -0.1769  0.0741 -0.2924
 8249TIP3    H146238   2.384   0.745  46.150 -0.2412  0.9172  0.4553
 8249TIP3    H246239   2.271   0.665  46.088  0.9736 -1.0737  0.7040
 8250TIP3   OH246240   3.274   2.005  21.110 -0.0887  0.7801  0.1877
 8250TIP3    H146241   3.200   2.060  21.084 -0.2758  1.1874  1.5002
 8250TIP3    H246242   3.234   1.931  21.156  0.2305  0.0994 -0.6046
 8251TIP3   OH246243   3.447   1.108  66.921  0.1812 -0.0323 -0.4355
 8251TIP3    H146244   3.519   1.060  66.961  0.2270 -0.4686 -1.0213
 8251TIP3    H246245   3.385   1.040  66.893 -0.0255  0.2810 -0.7525
 8252TIP3   OH246246   2.542   1.788  45.075  0.3323  0.0931  0.1610
 8252TIP3    H146247   2.621   1.766  45.026  0.3019  0.2416  0.0465
 8252TIP3    H246248   2.515   1.873  45.041  0.5189  0.3728  0.6920
 8253TIP3   OH246249   0.266   1.854  43.981  0.3175  0.4937  0.4244
 8253TIP3    H146250   0.228   1.772  44.012  0.2943  0.3698  0.0793
 8253TIP3    H246251   0.351   1.860  44.024  1.1616 -0.6644 -0.9921
 8254TIP3   OH246252   2.958   1.852  57.499 -0.0752 -0.0878 -0.6307
 8254TIP3    H146253   2.940   1.765  57.536 -0.8145 -0.5646 -2.0343
 8254TIP3    H246254   3.053   1.859  57.497  0.0081 -1.2373 -1.3085
 8255TIP3   OH246255   0.352   2.511  63.820  0.0309  0.4361  0.2225
 8255TIP3    H146256   0.276   2.453  63.822 -0.1083  0.6045 -0.1287
 8255TIP3    H246257   0.336   2.574  63.891  0.9156 -0.8575  1.6369
 8256TIP3   OH246258   0.272   3.099  55.844 -0.9842 -0.2797  0.6768
 8256TIP3    H146259   0.353   3.122  55.798 -0.0731 -2.4925  1.0490
 8256TIP3    H246260   0.203   3.118  55.780 -0.1141  0.7251 -0.0114
 8257TIP3   OH246261   0.132   1.639  45.098  0.6256  0.4642 -0.1673
 8257TIP3    H146262   0.147   1.724  45.140 -0.5026  0.5451  0.0933
 8257TIP3    H246263   0.143   1.576  45.169  0.8733  0.4336 -0.2317
 8258TIP3   OH246264   1.442   0.083  18.631  0.0487 -0.0970 -0.2631
 8258TIP3    H146265   1.409   0.122  18.712 -1.0498  0.5725 -0.9907
 8258TIP3    H246266   1.442  -0.011  18.648 -2.5099 -0.1796 -0.2354
 8259TIP3   OH246267   2.682   1.039  58.416 -0.2809  0.4674  0.3034
 8259TIP3    H146268   2.600   1.085  58.435 -0.8878  0.0629 -1.2096
 8259TIP3    H246269   2.724   1.091  58.348  0.7784  0.7110  1.1099
 8260TIP3   OH246270   0.007   1.555  57.288  0.0194 -0.1987  0.2886
 8260TIP3    H146271   0.067   1.539  57.361  0.9009 -0.8325 -0.5492
 8260TIP3    H246272   0.060   1.539  57.210 -0.6248  1.3809 -0.5311
 8261TIP3   OH246273   1.066   1.664  62.823  0.3584  0.2393  0.2168
 8261TIP3    H146274   1.076   1.734  62.759 -2.0557  0.1679 -0.3009
 8261TIP3    H246275   1.044   1.587  62.771 -1.3080  0.1057  1.0622
 8262TIP3   OH246276   0.508   3.440   2.850 -0.1909 -0.5519  0.0898
 8262TIP3    H146277   0.477   3.357   2.886  0.0163 -0.5265  0.3314
 8262TIP3    H246278   0.458   3.507   2.896 -2.0756 -0.5891 -1.7532
 8263TIP3   OH246279   2.161   2.891  26.079  0.5748 -0.0661 -0.4055
 8263TIP3    H146280   2.081   2.870  26.031 -0.6588  1.6997  0.7275
 8263TIP3    H246281   2.131   2.906  26.169  1.6374  3.3892 -0.4770
 8264TIP3   OH246282   2.359   0.023  47.046  0.0677  0.4913  0.0346
 8264TIP3    H146283   2.387  -0.040  46.980 -0.2676 -0.2655  0.5941
 8264TIP3    H246284   2.398   0.106  47.019 -0.0401  0.1842 -1.0806
 8265TIP3   OH246285   1.500   2.750  45.641  0.0119  0.5580  0.2069
 8265TIP3    H146286   1.509   2.840  45.609  0.7508 -0.0651 -1.4600
 8265TIP3    H246287   1.583   2.732  45.685 -0.2617  0.7915  0.8235
 8266TIP3   OH246288   0.552   2.200   7.355  0.3852  0.5808  0.0536
 8266TIP3    H146289   0.492   2.195   7.430  0.2132  0.6638 -0.0782
 8266TIP3    H246290   0.503   2.248   7.288  0.0489 -0.6092 -0.5846
 8267TIP3   OH246291   1.184   2.686  12.856  0.0797 -0.4038  0.0728
 8267TIP3    H146292   1.208   2.720  12.770 -1.5789 -0.0668 -0.2786
 8267TIP3    H246293   1.264   2.696  12.908  1.4069 -1.4465 -1.6381
 8268TIP3   OH246294   3.219   2.803   1.546  0.0848 -0.4583 -0.9564
 8268TIP3    H146295   3.201   2.880   1.600 -1.0499 -1.3067 -0.0489
 8268TIP3    H246296   3.216   2.836   1.456 -3.0557  0.1502 -0.7496
 8269TIP3   OH246297   2.348   1.302  13.488 -0.0267  0.2845 -0.1290
 8269TIP3    H146298   2.310   1.365  13.427  0.6703  0.2435 -0.6172
 8269TIP3    H246299   2.360   1.352  13.569  0.8071  0.8748 -0.6038
 8270TIP3   OH246300   1.413   2.200  21.334  0.1455 -0.7963  0.2556
 8270TIP3    H146301   1.400   2.246  21.416  1.3176 -0.0549  0.0330
 8270TIP3    H246302   1.326   2.200  21.293 -0.0816  0.3197  0.7117
 8271TIP3   OH246303   0.398   1.231  67.374  0.4628 -0.1098  0.1873
 8271TIP3    H146304   0.479   1.205  67.418  2.0114  0.9196 -1.9246
 8271TIP3    H246305   0.388   1.169  67.302 -0.4728 -0.0098  0.2143
 8272TIP3   OH246306   1.190   1.654   3.926  0.3883 -0.3630  0.2306
 8272TIP3    H146307   1.245   1.731   3.937  0.5155 -0.4390  0.1374
 8272TIP3    H246308   1.123   1.662   3.994 -2.4657  2.2212 -2.6369
 8273TIP3   OH246309   0.455   0.247  65.265  0.8979  0.4952 -0.3132
 8273TIP3    H146310   0.417   0.318  65.317  0.6874  0.1802 -0.0208
 8273TIP3    H246311   0.548   0.269  65.257  0.8539  0.7469 -0.1250
 8274TIP3   OH246312   3.419   2.237  56.570 -0.0087 -0.3005  0.3030
 8274TIP3    H146313   3.447   2.317  56.613  0.8209  0.2795 -1.2486
 8274TIP3    H246314   3.425   2.256  56.476 -2.1415 -1.3726 -0.1169
 8275TIP3   OH246315   0.414   0.795  21.910 -0.0889 -0.4362 -0.5888
 8275TIP3    H146316   0.493   0.816  21.960 -1.4270 -0.9743  1.9174
 8275TIP3    H246317   0.356   0.870  21.923 -0.5462 -0.6673 -1.2060
 8276TIP3   OH246318   0.561   0.314  14.870 -0.0911  0.3794  0.6161
 8276TIP3    H146319   0.496   0.251  14.899  0.5433  0.1954  1.6974
 8276TIP3    H246320   0.636   0.261  14.842 -0.5879  0.5585 -1.2247
 8277TIP3   OH246321   2.388   1.518  45.601  0.4355  0.0915  0.4729
 8277TIP3    H146322   2.431   1.566  45.529 -0.6869 -0.2384 -0.4531
 8277TIP3    H246323   2.310   1.480  45.560  0.9892 -2.0862  1.3001
 8278TIP3   OH246324   0.094   2.358  46.982 -0.1291 -0.4135 -0.2342
 8278TIP3    H146325   0.031   2.352  47.054  0.2387 -3.0577 -0.0294
 8278TIP3    H246326   0.058   2.301  46.914  0.9328 -0.1735 -1.0196
 8279TIP3   OH246327   0.131   1.628  60.400  0.1713  0.6321  0.1446
 8279TIP3    H146328   0.111   1.558  60.337 -0.6750 -0.1972  1.2863
 8279TIP3    H246329   0.203   1.676  60.360  0.9875 -1.0762 -0.5538
 8280TIP3   OH246330   3.191   2.753   4.154 -0.4489 -0.1071 -0.0251
 8280TIP3    H146331   3.105   2.795   4.143  0.0446  0.5992 -1.4313
 8280TIP3    H246332   3.248   2.823   4.187  0.1756  0.1327 -1.5550
 8281TIP3   OH246333   2.617   1.679   7.943  0.0134  0.3872 -0.7681
 8281TIP3    H146334   2.678   1.731   7.995  0.2853 -1.0463  0.4352
 8281TIP3    H246335   2.637   1.702   7.852  2.0183  0.3309 -0.3878
 8282TIP3   OH246336   2.154   1.202  62.798  0.0733  0.3126 -0.2717
 8282TIP3    H146337   2.179   1.129  62.742 -1.1837  1.3148 -2.2330
 8282TIP3    H246338   2.101   1.162  62.868 -0.8529 -0.6303 -1.4784
 8283TIP3   OH246339   1.069   1.341  37.872  0.6560  0.1653  0.3139
 8283TIP3    H146340   1.133   1.385  37.929  0.7164 -1.1752  1.3051
 8283TIP3    H246341   0.984   1.359  37.912  0.7736 -1.6462  1.4864
 8284TIP3   OH246342   0.306   0.083  18.619  0.2389  0.1986 -0.2284
 8284TIP3    H146343   0.237   0.051  18.676 -1.4068 -0.1548 -2.3199
 8284TIP3    H246344   0.313   0.176  18.640 -1.3344  0.3817 -0.4124
 8285TIP3   OH246345   2.402   1.954   2.712  1.0197  0.0221  0.3065
 8285TIP3    H146346   2.451   1.989   2.638  0.9243  0.7210  0.5676
 8285TIP3    H246347   2.425   1.861   2.714  2.9156  0.4591  0.8819
 8286TIP3   OH246348   2.722   0.228  45.737 -0.2777  0.5685  0.5710
 8286TIP3    H146349   2.734   0.146  45.688 -0.1069  1.0585 -0.2305
 8286TIP3    H246350   2.707   0.294  45.669  1.4978  1.5489  1.0870
 8287TIP3   OH246351   2.820   3.131  66.105 -0.3192  0.2268 -0.4145
 8287TIP3    H146352   2.784   3.146  66.193  1.1544 -0.7714  0.4015
 8287TIP3    H246353   2.761   3.178  66.047 -1.4056  0.8187  1.1025
 8288TIP3   OH246354   3.312   3.080  49.113  0.3955  0.0012  0.6404
 8288TIP3    H146355   3.218   3.097  49.107  0.6031  0.9721 -0.2082
 8288TIP3    H246356   3.339   3.064  49.023  0.8109 -1.7581  1.0351
 8289TIP3   OH246357   3.282   2.749  66.053  0.1314 -0.0618  0.4678
 8289TIP3    H146358   3.214   2.683  66.064  0.6671 -1.3154 -2.6506
 8289TIP3    H246359   3.235   2.829  66.032 -0.4324 -0.4144  0.3593
 8290TIP3   OH246360   2.745   3.063  49.928  0.3857 -0.1781 -0.2284
 8290TIP3    H146361   2.780   3.074  49.840  0.1783 -0.5419 -0.3595
 8290TIP3    H246362   2.800   2.996  49.968  0.7616  0.3069  0.0746
 8291TIP3   OH246363   2.006   2.712  11.186  0.2314 -0.6176 -0.1555
 8291TIP3    H146364   2.063   2.637  11.206 -0.2149 -1.5955 -2.2855
 8291TIP3    H246365   2.060   2.770  11.133 -0.1554 -0.6367 -0.5800
 8292TIP3   OH246366   1.781   1.390  43.986  0.0420 -0.0672 -0.5109
 8292TIP3    H146367   1.804   1.416  44.075  0.8344 -1.4194 -0.2991
 8292TIP3    H246368   1.835   1.313  43.968 -0.5338 -0.1721 -1.9490
 8293TIP3   OH246369   2.353   1.074  61.940  0.3442  0.4941  0.1716
 8293TIP3    H146370   2.259   1.069  61.956  0.2886 -0.3135 -0.3916
 8293TIP3    H246371   2.384   0.984  61.951  1.5017  1.1062  2.9710
 8294TIP3   OH246372   1.999   3.033   0.919  0.6989 -0.1041 -0.6609
 8294TIP3    H146373   2.047   3.112   0.943 -1.4285  1.2226 -0.5150
 8294TIP3    H246374   1.927   3.029   0.982 -0.8429 -0.5818 -2.3816
 8295TIP3   OH246375   1.445   0.128  53.154  0.4794  0.2470 -0.4466
 8295TIP3    H146376   1.495   0.117  53.235 -1.3051 -1.2564  0.5253
 8295TIP3    H246377   1.415   0.040  53.131 -0.7067  0.9121 -1.6449
 8296TIP3   OH246378   2.890   0.894   5.164  0.0004  0.2541  0.2019
 8296TIP3    H146379   2.936   0.885   5.247  1.9474  0.1625 -0.8309
 8296TIP3    H246380   2.863   0.985   5.161  2.4276  1.0294 -0.2491
 8297TIP3   OH246381   0.435   0.679   1.636 -0.4293 -0.0805 -0.2543
 8297TIP3    H146382   0.498   0.638   1.577  1.0857 -0.6459  1.6273
 8297TIP3    H246383   0.489   0.716   1.706 -2.1508  0.1871  0.9955
 8298TIP3   OH246384   1.266   3.300  63.630  0.3355  0.3909 -0.4468
 8298TIP3    H146385   1.237   3.219  63.588  1.0810  0.5728 -1.3678
 8298TIP3    H246386   1.186   3.353  63.638 -0.3790 -0.8522  1.2373
 8299TIP3   OH246387   1.094   0.631   4.498 -0.2443 -0.1964 -0.4898
 8299TIP3    H146388   1.177   0.608   4.457  0.1351  0.1169  0.0848
 8299TIP3    H246389   1.079   0.562   4.562  1.6737  1.7827  2.3425
 8300TIP3   OH246390   3.232   0.483  47.183  0.2379 -0.0460 -0.0694
 8300TIP3    H146391   3.278   0.476  47.266  0.2746 -0.1068 -0.0935
 8300TIP3    H246392   3.280   0.425  47.124  0.2023 -0.0157 -0.1272
 8301TIP3   OH246393   0.634   0.394  16.453  0.5424  0.5347  0.1120
 8301TIP3    H146394   0.620   0.299  16.445  0.2417  0.6970 -1.7419
 8301TIP3    H246395   0.639   0.409  16.548 -0.2710 -1.2085  0.4884
 8302TIP3   OH246396   0.391   0.455  12.418  0.8464  0.0939  0.2655
 8302TIP3    H146397   0.370   0.510  12.493  0.8705  2.0667 -1.0870
 8302TIP3    H246398   0.445   0.385  12.454 -0.5162  0.0380  2.3207
 8303TIP3   OH246399   2.212   2.216  20.544 -0.1067 -0.2288  0.2970
 8303TIP3    H146400   2.129   2.209  20.590 -1.0342 -0.9546 -1.4075
 8303TIP3    H246401   2.201   2.290  20.484  0.9313  0.4542  0.9154
 8304TIP3   OH246402   3.148   1.189   6.099 -0.2963  0.2120  0.3024
 8304TIP3    H146403   3.163   1.266   6.153  0.3359  0.3129 -0.0098
 8304TIP3    H246404   3.064   1.206   6.055  1.2039  2.1235 -2.0892
 8305TIP3   OH246405   2.036   1.149  12.963 -0.4644 -0.2016 -0.0384
 8305TIP3    H146406   1.985   1.078  13.002  0.2179 -0.2252  0.8411
 8305TIP3    H246407   2.087   1.107  12.894 -0.6625 -0.4175 -0.0540
 8306TIP3   OH246408   3.049   2.927  46.304  0.0335 -0.6270 -0.0091
 8306TIP3    H146409   2.970   2.979  46.319  0.5706  0.4246 -0.7051
 8306TIP3    H246410   3.117   2.972  46.354  0.6334 -0.2923 -1.0907
 8307TIP3   OH246411   1.195   1.058   8.651 -0.1857 -0.3047  0.4014
 8307TIP3    H146412   1.149   1.123   8.597 -0.9242 -2.1317 -1.3072
 8307TIP3    H246413   1.274   1.103   8.679 -0.4373  1.2074 -1.1072
 8308TIP3   OH246414   0.846   2.933  19.951  0.5116 -0.1038  0.1935
 8308TIP3    H146415   0.870   2.980  20.032 -0.9021 -0.5100  0.8771
 8308TIP3    H246416   0.895   2.978  19.882  1.3423  0.5923  1.2063
 8309TIP3   OH246417   2.634   1.107  64.966 -0.1823  0.3849 -0.2444
 8309TIP3    H146418   2.678   1.190  64.951  0.3946  0.8737  3.2442
 8309TIP3    H246419   2.569   1.126  65.035 -1.5226 -1.6262 -0.8537
 8310TIP3   OH246420   1.873   2.560   5.926 -0.3619 -0.3917 -0.5620
 8310TIP3    H146421   1.807   2.583   5.991 -0.3059  1.1729 -1.0246
 8310TIP3    H246422   1.835   2.486   5.879 -0.8489 -0.8802  0.5552
 8311TIP3   OH246423   2.971   2.828   6.838  0.0083 -0.4468 -0.1507
 8311TIP3    H146424   3.064   2.846   6.823 -0.1550 -0.6493 -1.5107
 8311TIP3    H246425   2.928   2.913   6.826 -0.0583 -0.4917 -0.2337
 8312TIP3   OH246426   2.017   0.790  62.729 -0.0396  0.2471 -0.5859
 8312TIP3    H146427   1.990   0.867  62.780  2.6304  0.2101  1.0597
 8312TIP3    H246428   1.999   0.716  62.787  4.1778  0.2869  1.1092
 8313TIP3   OH246429   3.299   1.028  57.977  0.1114  0.4960 -0.2917
 8313TIP3    H146430   3.368   1.084  57.942  0.8257  0.3972  0.8917
 8313TIP3    H246431   3.321   1.019  58.070 -0.8637 -0.4714 -0.1368
 8314TIP3   OH246432   0.985   0.440  52.008  0.1500  0.1729 -0.1235
 8314TIP3    H146433   1.014   0.513  51.955  0.0573  0.2171 -0.1143
 8314TIP3    H246434   0.963   0.371  51.945 -0.9788  0.5903 -0.1946
 8315TIP3   OH246435   1.268   2.213  15.079 -0.3487  0.4223  0.4738
 8315TIP3    H146436   1.325   2.288  15.093  0.6122 -0.1479 -0.2965
 8315TIP3    H246437   1.232   2.225  14.991 -1.3672  0.7252  0.9104
 8316TIP3   OH246438   1.013   1.552  52.489 -0.3110 -0.4430 -0.2706
 8316TIP3    H146439   0.961   1.501  52.551  1.1324 -0.8266  0.6879
 8316TIP3    H246440   0.984   1.642  52.502  0.1674 -0.4698  1.2413
 8317TIP3   OH246441   1.384   2.970  57.053  0.0859  0.0177  0.1702
 8317TIP3    H146442   1.477   2.973  57.077  0.2971 -0.8437 -0.5008
 8317TIP3    H246443   1.377   2.894  56.995 -1.0189  0.1513  0.1205
 8318TIP3   OH246444   2.493   2.842  53.744  0.0659  0.5156  0.4452
 8318TIP3    H146445   2.523   2.812  53.658 -0.0392  1.4490  0.0720
 8318TIP3    H246446   2.438   2.771  53.777 -1.2435  0.8169 -0.9765
 8319TIP3   OH246447   2.440   0.809  59.131 -0.0263  0.0903  0.2010
 8319TIP3    H146448   2.383   0.749  59.082 -0.2909  0.5807 -0.0999
 8319TIP3    H246449   2.386   0.887  59.144  0.9724  1.0610 -1.1935
 8320TIP3   OH246450   1.209   2.129  43.043 -0.0338 -0.6208 -0.1252
 8320TIP3    H146451   1.120   2.164  43.038  0.9552  2.1212 -0.1054
 8320TIP3    H246452   1.247   2.149  42.958  0.8823 -0.8071  0.2361
 8321TIP3   OH246453   1.004   2.252  13.373  0.3857  0.2102  0.2506
 8321TIP3    H146454   0.988   2.256  13.468 -0.7008  0.2652  0.0846
 8321TIP3    H246455   1.027   2.161  13.356 -0.4106 -0.0326  0.4356
 8322TIP3   OH246456   1.044   1.984  65.566  0.2693  0.1138 -0.3200
 8322TIP3    H146457   1.110   2.024  65.509  0.4951 -0.3050 -0.3613
 8322TIP3    H246458   1.066   2.014  65.654  0.3376  0.2100 -0.3698
 8323TIP3   OH246459   0.664   0.391  13.176 -0.2562  0.0018 -0.0195
 8323TIP3    H146460   0.695   0.334  13.247  0.5360  1.9545  1.2752
 8323TIP3    H246461   0.711   0.359  13.099 -0.1459 -1.3384  0.5692
 8324TIP3   OH246462   2.434   3.363  19.516  0.2837 -0.0623  0.4685
 8324TIP3    H146463   2.448   3.309  19.439 -0.9031 -2.0706  1.5765
 8324TIP3    H246464   2.339   3.364  19.528  0.2845  2.0816  0.6569
 8325TIP3   OH246465   2.413   0.679  20.020  0.6534  0.4614 -0.1257
 8325TIP3    H146466   2.374   0.606  20.069  1.2712  0.2817  0.1021
 8325TIP3    H246467   2.373   0.673  19.934  2.5295 -1.7318 -0.9585
 8326TIP3   OH246468   0.743   1.098  63.412 -0.1889 -0.3426 -0.5823
 8326TIP3    H146469   0.665   1.096  63.467  0.4384 -0.9361  0.3189
 8326TIP3    H246470   0.811   1.136  63.468  0.7785 -2.1096 -0.4786
 8327TIP3   OH246471   1.377   0.633  49.492 -1.0335  0.4009 -0.4693
 8327TIP3    H146472   1.310   0.638  49.560  0.5019  0.8100  1.0738
 8327TIP3    H246473   1.450   0.587  49.533  0.6249  2.2373 -1.2097
 8328TIP3   OH246474   1.253   2.471  57.873  0.0138 -0.6561 -0.2025
 8328TIP3    H146475   1.161   2.470  57.850 -0.2275 -0.5953  0.7279
 8328TIP3    H246476   1.254   2.477  57.969  0.9912  1.2722 -0.2931
 8329TIP3   OH246477   2.582   1.571  61.576 -0.1952 -0.4603 -0.7797
 8329TIP3    H146478   2.659   1.607  61.532  0.0043  1.8233  1.2551
 8329TIP3    H246479   2.519   1.555  61.505  1.6633 -1.2534 -2.3320
 8330TIP3   OH246480   0.892   3.032  60.887  0.5290  0.3585 -0.8070
 8330TIP3    H146481   0.930   3.112  60.849  1.4383  0.9449  1.2032
 8330TIP3    H246482   0.944   3.016  60.966 -2.1632  0.0711  1.0308
 8331TIP3   OH246483   0.058   3.309  49.264 -0.3995  0.4153  0.1293
 8331TIP3    H146484  -0.028   3.310  49.220 -0.3930 -2.8780 -0.1909
 8331TIP3    H246485   0.116   3.267  49.201  1.2543  1.6442  0.7740
 8332TIP3   OH246486   2.239   1.640  57.021 -0.5801 -0.2060  0.0621
 8332TIP3    H146487   2.162   1.695  57.037 -0.8154 -0.6828  0.6102
 8332TIP3    H246488   2.312   1.702  57.017 -0.6476  0.0659  2.0679
 8333TIP3   OH246489   3.218   1.560   9.290 -0.9702  0.5311  0.1698
 8333TIP3    H146490   3.280   1.539   9.359 -2.3251  0.5199  1.4304
 8333TIP3    H246491   3.261   1.531   9.209 -0.1430 -1.2794  1.1893
 8334TIP3   OH246492   0.110   1.920  45.488  0.3373 -0.6048 -0.8612
 8334TIP3    H146493   0.084   1.899  45.579 -0.1750  3.6731  0.1824
 8334TIP3    H246494   0.187   1.866  45.473  0.5527 -1.3783  2.1878
 8335TIP3   OH246495   3.025   2.901  21.121  0.3160  0.1847  0.4566
 8335TIP3    H146496   3.001   2.945  21.040  2.0274  2.0952  0.8992
 8335TIP3    H246497   3.068   2.969  21.173  0.8255 -1.4240  2.2419
 8336TIP3   OH246498   0.055   2.943   1.179  0.0538  0.1235  0.3050
 8336TIP3    H146499  -0.009   2.988   1.124  0.6727 -0.3059 -0.7735
 8336TIP3    H246500   0.071   3.005   1.251 -1.8038  0.1063  0.8070
 8337TIP3   OH246501   0.753   0.939   5.974  0.5383 -0.5970 -0.0177
 8337TIP3    H146502   0.797   0.974   6.051  0.7188 -0.6258 -0.1080
 8337TIP3    H246503   0.760   1.009   5.908 -0.6911 -0.0619  0.3723
 8338TIP3   OH246504   2.766   1.369  14.687 -0.1002  0.2478 -0.4336
 8338TIP3    H146505   2.769   1.464  14.698 -0.7348  0.0234  2.8711
 8338TIP3    H246506   2.856   1.341  14.705 -0.3263  0.1426  0.6311
 8339TIP3   OH246507   2.526   1.274  20.542  0.0827  0.1386 -0.0873
 8339TIP3    H146508   2.550   1.262  20.450  2.1698  0.9352  0.2841
 8339TIP3    H246509   2.608   1.300  20.584 -0.4093 -1.8728  2.3374
 8340TIP3   OH246510   1.037   3.215  66.216 -0.1845 -0.5533  0.3281
 8340TIP3    H146511   1.061   3.175  66.300  0.3280  0.9803  0.9567
 8340TIP3    H246512   1.107   3.279  66.200 -0.0878 -1.0543 -1.4573
 8341TIP3   OH246513   1.872   0.812   2.140  0.3686 -0.0767  0.1020
 8341TIP3    H146514   1.831   0.885   2.186 -0.2667  1.1750 -2.2435
 8341TIP3    H246515   1.800   0.755   2.115  0.7655 -1.0592  1.1124
 8342TIP3   OH246516   1.738   2.540   4.447 -0.1554 -0.3589  0.0699
 8342TIP3    H146517   1.804   2.478   4.478 -0.7414 -1.2940 -0.5012
 8342TIP3    H246518   1.789   2.611   4.407  0.5461 -0.0809  1.3896
 8343TIP3   OH246519   2.157   0.827  21.425 -0.0908  0.3754 -0.0468
 8343TIP3    H146520   2.084   0.886  21.443 -0.0928  0.6921 -1.0363
 8343TIP3    H246521   2.229   0.885  21.399  1.1321  0.2244  2.7109
 8344TIP3   OH246522   1.346   0.666  51.703  0.2885  0.1596  0.1004
 8344TIP3    H146523   1.343   0.652  51.798  0.0666 -1.4676 -0.1328
 8344TIP3    H246524   1.258   0.645  51.672  0.3340  0.7619 -0.4794
 8345TIP3   OH246525   0.403   1.415  18.937  0.0411  0.0343 -0.8804
 8345TIP3    H146526   0.384   1.321  18.944 -0.8480  0.1746 -1.2619
 8345TIP3    H246527   0.495   1.418  18.910  0.3679 -0.6949  0.0822
 8346TIP3   OH246528   3.333   2.716  66.973  0.3373 -0.6134  0.3882
 8346TIP3    H146529   3.369   2.637  66.933 -0.7469 -0.5274 -0.8325
 8346TIP3    H246530   3.260   2.684  67.027  0.3364 -0.5167  0.4396
 8347TIP3   OH246531   1.958   3.094  65.114  0.4685  0.1271  0.1224
 8347TIP3    H146532   2.035   3.144  65.144  0.4992  0.3955 -0.3898
 8347TIP3    H246533   1.959   3.015  65.168  0.7228  0.4359  0.5866
 8348TIP3   OH246534   0.961   1.717  57.453  0.0565  0.0197 -0.0318
 8348TIP3    H146535   1.051   1.695  57.427 -0.5573 -1.3475 -1.1383
 8348TIP3    H246536   0.970   1.799  57.503  2.0371 -0.6791  0.8914
 8349TIP3   OH246537   1.991   2.722  47.311 -0.2614  0.5581  0.1695
 8349TIP3    H146538   2.071   2.697  47.357 -0.6385 -1.2265 -0.0651
 8349TIP3    H246539   2.004   2.814  47.288  1.2328  0.6199  1.1171
 8350TIP3   OH246540   1.360   0.394  47.788 -0.0724  0.0154  0.2578
 8350TIP3    H146541   1.434   0.445  47.756 -1.1390  1.1700 -0.4527
 8350TIP3    H246542   1.318   0.450  47.853  0.0554 -0.9160  1.1691
 8351TIP3   OH246543   1.433   3.163  58.033  0.2172  0.6196 -0.0439
 8351TIP3    H146544   1.357   3.108  58.016  0.2836  0.1825  0.9974
 8351TIP3    H246545   1.424   3.189  58.125  2.8196 -1.9209  1.1099
 8352TIP3   OH246546   0.843   2.509   2.949  0.0372  0.1045 -0.3887
 8352TIP3    H146547   0.830   2.422   2.912  0.0080 -1.2002  2.3789
 8352TIP3    H246548   0.939   2.519   2.955  0.0561 -0.6672  1.1153
 8353TIP3   OH246549   3.370   1.316  13.875 -0.2003 -0.1453  0.4272
 8353TIP3    H146550   3.348   1.285  13.963  0.3708 -1.5087  0.1221
 8353TIP3    H246551   3.293   1.366  13.847 -1.1824 -1.2725  0.9959
 8354TIP3   OH246552   0.586   2.921  66.506  0.5646  0.1038 -0.1319
 8354TIP3    H146553   0.667   2.914  66.455  1.0805  2.4925  0.2780
 8354TIP3    H246554   0.518   2.941  66.441  1.0084  1.9476 -0.0550
 8355TIP3   OH246555   1.214   0.977  48.068  0.3284  0.4198  0.0314
 8355TIP3    H146556   1.118   0.980  48.071  0.3329  0.5440  0.0552
 8355TIP3    H246557   1.235   0.978  47.975  0.2692 -0.8532 -0.0124
 8356TIP3   OH246558   2.020   0.674  45.764  0.0034  0.1338 -0.1163
 8356TIP3    H146559   1.952   0.666  45.830  0.8505  0.0732  0.7703
 8356TIP3    H246560   2.014   0.593  45.714 -2.1221  1.1211 -1.6118
 8357TIP3   OH246561   1.388   1.496   7.581  0.1812  0.3389  0.2860
 8357TIP3    H146562   1.407   1.472   7.672 -1.1520 -1.5651  0.1262
 8357TIP3    H246563   1.385   1.413   7.534  0.5433  1.2671 -1.4654
 8358TIP3   OH246564   0.043   0.139  67.268  0.3813  0.4084 -0.4997
 8358TIP3    H146565  -0.011   0.061  67.271 -0.8721  1.2324 -1.0187
 8358TIP3    H246566   0.037   0.170  67.178  0.5244  1.3355 -0.2099
 8359TIP3   OH246567   1.606   2.890   5.966 -0.2615 -0.3557 -0.1423
 8359TIP3    H146568   1.640   2.929   5.885  0.4725 -2.3754 -0.8782
 8359TIP3    H246569   1.517   2.861   5.943 -0.8992  1.0331  0.4737
 8360TIP3   OH246570   2.079   1.613  57.388  0.0426 -0.7965 -0.2564
 8360TIP3    H146571   2.114   1.552  57.323 -1.0906  0.1828 -1.8659
 8360TIP3    H246572   2.122   1.696  57.368 -1.0170 -0.2652 -0.3935
 8361TIP3   OH246573   1.707   3.204   6.513 -0.7383 -0.3766  0.1380
 8361TIP3    H146574   1.798   3.192   6.488 -0.7661  0.8813 -0.6603
 8361TIP3    H246575   1.661   3.222   6.431 -1.4770  0.2484  0.6646
 8362TIP3   OH246576   2.276   2.271  57.072  0.2153  0.2323  0.2676
 8362TIP3    H146577   2.227   2.308  57.146 -0.0114  0.7850 -0.1554
 8362TIP3    H246578   2.362   2.313  57.077 -0.3761  1.6326 -0.8212
 8363TIP3   OH246579   2.736   1.873  10.195 -0.1011  0.0937 -0.4356
 8363TIP3    H146580   2.811   1.878  10.254  0.4065  2.4880 -1.1779
 8363TIP3    H246581   2.772   1.886  10.108 -1.3715  1.9358 -0.7584
 8364TIP3   OH246582   2.436   0.381   4.296  0.6932 -0.2067  0.4629
 8364TIP3    H146583   2.487   0.361   4.217  0.6104 -1.0606  0.6190
 8364TIP3    H246584   2.458   0.312   4.357  1.1950  0.7715  1.4122
 8365TIP3   OH246585   2.311   2.944  61.782 -0.0624 -0.1996  0.3028
 8365TIP3    H146586   2.336   3.025  61.828 -0.8472  0.5658 -0.5790
 8365TIP3    H246587   2.233   2.914  61.828  0.2181 -0.4431  0.6172
 8366TIP3   OH246588   0.217   0.706  63.515  0.2586  0.0551 -0.7532
 8366TIP3    H146589   0.186   0.769  63.580 -1.2271 -1.4012  0.0183
 8366TIP3    H246590   0.144   0.697  63.454  0.8831 -0.0981 -1.4926
 8367TIP3   OH246591   2.026   2.724  10.749  0.6844 -0.1923  0.5524
 8367TIP3    H146592   2.082   2.648  10.764  1.5369  0.3947  0.4037
 8367TIP3    H246593   2.067   2.770  10.676 -1.4400 -1.1214 -1.3388
 8368TIP3   OH246594   0.114   0.229  49.098 -0.4113 -0.8629  0.8642
 8368TIP3    H146595   0.044   0.183  49.144 -0.9015 -1.4381 -0.4072
 8368TIP3    H246596   0.074   0.310  49.067 -0.4691 -1.1008  0.3055
 8369TIP3   OH246597   2.333   2.456  50.067 -0.2819  0.1950 -0.1163
 8369TIP3    H146598   2.340   2.526  50.132 -3.7261  0.9770 -0.3974
 8369TIP3    H246599   2.385   2.489  49.993 -0.3698  1.6337  0.4138
 8370TIP3   OH246600   0.363   3.386  43.894  0.4940 -0.1700 -0.2403
 8370TIP3    H146601   0.395   3.301  43.865  0.1661 -0.8750  1.3442
 8370TIP3    H246602   0.280   3.367  43.939 -0.7572  1.2648 -1.8004
 8371TIP3   OH246603   1.261   3.430  57.388  0.0529 -0.1330  0.5038
 8371TIP3    H146604   1.299   3.421  57.475 -1.7721 -0.5429  1.3069
 8371TIP3    H246605   1.251   3.524  57.375  1.8986  0.0180 -0.0042
 8372TIP3   OH246606   0.519   2.778  44.138  0.2959  0.0565 -0.2068
 8372TIP3    H146607   0.587   2.725  44.180  0.3170 -0.1638 -0.5108
 8372TIP3    H246608   0.554   2.867  44.140 -1.0171  0.6313  2.9951
 8373TIP3   OH246609   1.380   2.071  13.841 -0.1229 -0.5226  0.4283
 8373TIP3    H146610   1.284   2.072  13.843 -0.1330 -1.4551  1.0607
 8373TIP3    H246611   1.405   2.052  13.931  0.5511 -4.3091 -0.3976
 8374TIP3   OH246612   2.617   0.052  66.714 -0.3207  0.0859  0.4843
 8374TIP3    H146613   2.686   0.050  66.780  0.7648 -0.7130 -0.6151
 8374TIP3    H246614   2.548   0.105  66.753 -0.4521 -1.6911  2.9616
 8375TIP3   OH246615   2.043   3.215  61.086  0.9538 -0.0493  0.2378
 8375TIP3    H146616   2.080   3.274  61.151  0.2967  1.4101 -0.6363
 8375TIP3    H246617   2.018   3.273  61.013 -0.5074 -1.2985 -0.3093
 8376TIP3   OH246618   0.690   3.284  54.173  0.0244  0.3819 -0.0262
 8376TIP3    H146619   0.650   3.236  54.245 -1.1124  0.4654 -0.5914
 8376TIP3    H246620   0.673   3.230  54.095  0.0429  0.9654 -0.4405
 8377TIP3   OH246621   0.866   0.438  49.717 -0.4142  0.2991  0.6965
 8377TIP3    H146622   0.926   0.492  49.666 -0.8811  0.3468  0.1878
 8377TIP3    H246623   0.784   0.486  49.716 -0.7822 -0.3239  0.4027
 8378TIP3   OH246624   1.530   0.147  58.144 -0.1749 -0.0995  0.0365
 8378TIP3    H146625   1.541   0.129  58.051 -1.6750 -2.1051  0.1897
 8378TIP3    H246626   1.598   0.211  58.165  0.2698  0.2886 -2.3856
 8379TIP3   OH246627   2.032   2.136   3.111 -0.0275 -0.6455  0.5946
 8379TIP3    H146628   2.014   2.149   3.204 -0.6915 -1.3791  0.5759
 8379TIP3    H246629   2.024   2.042   3.097 -0.1752 -0.5225 -0.2473
 8380TIP3   OH246630   1.780   1.927   6.871 -0.7727 -0.0803  0.2766
 8380TIP3    H146631   1.840   1.974   6.813 -0.0942 -0.0180  1.0255
 8380TIP3    H246632   1.693   1.948   6.836 -0.3507 -1.9484 -2.1831
 8381TIP3   OH246633   2.185   2.610  57.754  0.1280  0.5587 -0.0879
 8381TIP3    H146634   2.162   2.618  57.662  0.3349 -0.3003 -0.2264
 8381TIP3    H246635   2.221   2.521  57.762  0.2799  0.6856  0.7821
 8382TIP3   OH246636   2.018   0.136  47.337 -0.4975  0.7608 -0.3998
 8382TIP3    H146637   2.091   0.168  47.390 -0.8315 -0.0694  0.5832
 8382TIP3    H246638   2.024   0.187  47.256  2.0632 -0.2508 -0.9744
 8383TIP3   OH246639   0.927   1.263  21.105  0.4892 -0.2780 -0.2718
 8383TIP3    H146640   0.842   1.303  21.126  0.2180  0.2057 -2.1169
 8383TIP3    H246641   0.984   1.338  21.088  1.3009 -0.6059  0.8871
 8384TIP3   OH246642   3.188   2.082   5.445  0.2014  0.2819  0.4247
 8384TIP3    H146643   3.214   1.995   5.417 -0.0901  0.5620 -0.7580
 8384TIP3    H246644   3.223   2.141   5.378 -0.1552  1.0141  0.8680
 8385TIP3   OH246645   0.211   2.276  61.636  0.0727  0.0160 -0.3687
 8385TIP3    H146646   0.145   2.214  61.668  0.2434  0.5933  1.2055
 8385TIP3    H246647   0.259   2.301  61.715  0.3948  1.6856 -1.0743
 8386TIP3   OH246648   1.654   2.439  43.071 -0.2658 -0.0387  0.0810
 8386TIP3    H146649   1.735   2.465  43.114 -0.3960 -0.0413  0.3284
 8386TIP3    H246650   1.660   2.344  43.063 -0.0796 -0.0021 -0.2362
 8387TIP3   OH246651   1.566   3.431  64.509 -0.2323 -0.3730 -0.2364
 8387TIP3    H146652   1.609   3.516  64.498 -0.4329 -0.0455  1.3111
 8387TIP3    H246653   1.585   3.384  64.428 -0.5145  1.3070 -1.3378
 8388TIP3   OH246654   1.726   2.765   9.472 -0.5291 -0.5032 -0.6048
 8388TIP3    H146655   1.818   2.767   9.444 -0.2803 -0.8670  0.1572
 8388TIP3    H246656   1.727   2.803   9.560 -1.1616 -0.2172 -0.7164
 8389TIP3   OH246657   0.910   3.217  65.019  0.1787 -0.3742 -0.5954
 8389TIP3    H146658   0.995   3.175  65.006  0.8109  0.8985 -0.7561
 8389TIP3    H246659   0.918   3.301  64.974 -0.5970  0.4738  0.7782
 8390TIP3   OH246660   1.700   1.895  19.078  0.4704  0.2415 -0.5949
 8390TIP3    H146661   1.788   1.913  19.044  0.0891  0.8104 -1.3047
 8390TIP3    H246662   1.669   1.979  19.109  0.1006  0.0714 -0.5020
 8391TIP3   OH246663   2.852   2.174  19.765  0.4101 -0.1817  0.2523
 8391TIP3    H146664   2.865   2.191  19.859 -1.4275  0.5622  0.4113
 8391TIP3    H246665   2.817   2.256  19.730  1.9962 -0.1205 -1.3259
 8392TIP3   OH246666   3.440   2.487  45.844  0.0651 -0.0053 -0.3630
 8392TIP3    H146667   3.371   2.421  45.850 -0.8853  0.7279 -2.3354
 8392TIP3    H246668   3.393   2.569  45.831  1.2587  0.9807  1.2645
 8393TIP3   OH246669   2.041   2.658  17.651  0.2112 -0.2037  0.3994
 8393TIP3    H146670   2.007   2.740  17.687 -0.3638 -1.2173  2.2809
 8393TIP3    H246671   2.135   2.673  17.642 -0.0655  1.1102 -0.6043
 8394TIP3   OH246672   1.697   0.417   0.889  0.2475 -0.4331 -0.0110
 8394TIP3    H146673   1.751   0.374   0.823 -0.8353 -4.1291  1.2484
 8394TIP3    H246674   1.607   0.392   0.866 -0.2612 -0.6482  2.0173
 8395TIP3   OH246675   0.129   0.979   0.515  0.1875 -0.2549 -0.0764
 8395TIP3    H146676   0.114   1.010   0.426 -0.8785  1.9856  0.8016
 8395TIP3    H246677   0.044   0.989   0.559  1.2831  1.3843  1.8854
 8396TIP3   OH246678   2.913   2.916  43.527  0.0668  0.3443 -0.2316
 8396TIP3    H146679   2.945   2.970  43.599  0.4224 -0.3169  0.1098
 8396TIP3    H246680   2.827   2.952  43.506  0.0036  0.5998  0.4591
 8397TIP3   OH246681   2.669   1.296  47.030  0.1739  0.3889 -0.1537
 8397TIP3    H146682   2.622   1.254  46.959 -1.7869  0.1069  1.2083
 8397TIP3    H246683   2.602   1.350  47.074  1.6273  1.6141  0.6629
 8398TIP3   OH246684   2.339   3.011  48.371 -0.1065  0.3372 -0.4662
 8398TIP3    H146685   2.405   3.019  48.302  0.7915  1.0623  0.4618
 8398TIP3    H246686   2.370   2.940  48.426 -1.4224 -1.0321 -1.4193
 8399TIP3   OH246687   2.101   1.963   3.549  0.0158  0.3295 -0.0560
 8399TIP3    H146688   2.140   1.878   3.568  1.5442  0.9478 -0.3304
 8399TIP3    H246689   2.025   1.942   3.493 -1.6275 -1.0786  2.5061
 8400TIP3   OH246690   1.182   1.340  59.466 -0.3320 -0.3447 -0.1350
 8400TIP3    H146691   1.125   1.417  59.466  1.1517  1.0076  3.7260
 8400TIP3    H246692   1.124   1.266  59.484 -1.8001 -0.3865 -3.9793
 8401TIP3   OH246693   0.252   3.258   6.836 -0.0273  0.2406 -0.1368
 8401TIP3    H146694   0.336   3.301   6.854 -0.0802  1.7633 -2.8459
 8401TIP3    H246695   0.266   3.211   6.754 -1.8536  0.7087 -0.7775
 8402TIP3   OH246696   2.891   3.203   4.943  0.4450 -0.0091 -0.0530
 8402TIP3    H146697   2.827   3.191   4.873  1.3600 -0.7318 -0.7954
 8402TIP3    H246698   2.949   3.127   4.936  0.3934 -0.2348  1.6746
 8403TIP3   OH246699   1.261   1.157   6.334  0.2959  0.1814 -0.4956
 8403TIP3    H146700   1.204   1.137   6.408  1.1307 -0.9359 -0.1211
 8403TIP3    H246701   1.263   1.252   6.330 -1.0475  0.2502 -0.1062
 8404TIP3   OH246702   0.083   2.737  44.930 -0.5175  0.2210  0.3720
 8404TIP3    H146703   0.175   2.762  44.921 -0.8228  0.8849 -1.2978
 8404TIP3    H246704   0.085   2.645  44.955  0.6191 -0.5186 -2.1567
 8405TIP3   OH246705   1.535   1.543  64.359  0.1202  0.0456  0.2401
 8405TIP3    H146706   1.455   1.584  64.327  0.3370  0.2047 -0.1142
 8405TIP3    H246707   1.570   1.606  64.423 -0.3195 -0.2769  0.7998
 8406TIP3   OH246708   1.763   1.678  50.920  0.3421 -0.3257  0.5862
 8406TIP3    H146709   1.807   1.599  50.888  1.5094  0.5717 -0.1042
 8406TIP3    H246710   1.814   1.704  50.997  0.1597 -0.0661  0.6219
 8407TIP3   OH246711   2.319   0.096  57.366  0.4980 -0.4910 -0.1426
 8407TIP3    H146712   2.316   0.027  57.299  0.3358  0.7180 -1.4310
 8407TIP3    H246713   2.373   0.164  57.327 -1.2928  1.1274  0.0561
 8408TIP3   OH246714   1.641   0.872   9.714  0.1291  0.5315  0.4834
 8408TIP3    H146715   1.736   0.861   9.721  0.7977  0.4796 -4.6947
 8408TIP3    H246716   1.605   0.784   9.726  0.8670  0.3231  1.2126
 8409TIP3   OH246717   0.648   1.895   1.350  0.2912 -0.0325 -0.0984
 8409TIP3    H146718   0.665   1.886   1.256 -1.7902  0.7842 -0.6255
 8409TIP3    H246719   0.672   1.986   1.370 -2.1526  0.8038 -0.6218
 8410TIP3   OH246720   3.179   1.945  17.706  0.1005 -0.2920 -0.1143
 8410TIP3    H146721   3.261   1.986  17.677  0.2812  1.2309  2.2626
 8410TIP3    H246722   3.201   1.852  17.716  1.2367 -0.0890 -0.5722
 8411TIP3   OH246723   1.644   1.557  67.323 -0.0318 -0.7265 -0.5317
 8411TIP3    H146724   1.558   1.592  67.303  0.1211  0.5722  0.8997
 8411TIP3    H246725   1.655   1.484  67.262 -1.0463  0.6866 -2.5145
 8412TIP3   OH246726   0.385   0.495  46.374  0.2601  0.0318 -0.0473
 8412TIP3    H146727   0.387   0.407  46.335 -0.8169 -0.3773  0.7609
 8412TIP3    H246728   0.459   0.496  46.433  0.0444 -0.4944  0.2436
 8413TIP3   OH246729   1.908   3.357  11.494 -0.3410  0.1037  0.1897
 8413TIP3    H146730   1.901   3.447  11.525  0.5260 -0.2201  1.4002
 8413TIP3    H246731   1.819   3.323  11.495 -0.4361  0.3283  1.7029
 8414TIP3   OH246732   1.983   3.230  27.414 -0.1203  0.2181 -0.2202
 8414TIP3    H146733   2.040   3.302  27.441  0.0891  0.6559 -1.7062
 8414TIP3    H246734   1.969   3.179  27.493 -0.0592  1.7417  0.8177
 8415TIP3   OH246735   1.014   2.630  19.809 -0.0959  0.0492  0.1098
 8415TIP3    H146736   0.997   2.716  19.771  1.0244  1.1117  1.8286
 8415TIP3    H246737   1.041   2.576  19.735 -0.1821  1.3660 -0.9228
 8416TIP3   OH246738   1.248   3.157  62.292 -0.2751 -0.3746  0.0812
 8416TIP3    H146739   1.327   3.145  62.345 -0.1816 -2.2366 -0.4070
 8416TIP3    H246740   1.255   3.092  62.223 -2.4455 -0.8868  0.2597
 8417TIP3   OH246741   1.252   2.135  10.325 -0.3581 -0.5584  0.1383
 8417TIP3    H146742   1.307   2.126  10.403  1.4259 -0.0563 -1.0021
 8417TIP3    H246743   1.270   2.057  10.274 -1.0640 -0.5982 -0.0597
 8418TIP3   OH246744   2.450   3.237  29.885 -0.3973  0.0689 -0.8180
 8418TIP3    H146745   2.387   3.286  29.832 -0.2973  1.5054  0.3396
 8418TIP3    H246746   2.509   3.303  29.920  0.0552 -0.9375  0.3923
 8419TIP3   OH246747   1.484   1.265   7.159 -0.9235  0.2686  0.0055
 8419TIP3    H146748   1.566   1.294   7.199 -0.7569  0.0008 -0.1368
 8419TIP3    H246749   1.486   1.169   7.166 -1.4439  0.2846  0.4338
 8420TIP3   OH246750   3.341   0.506  43.635 -0.4664  0.2145 -0.2879
 8420TIP3    H146751   3.423   0.494  43.682 -1.4166 -0.8258  1.1995
 8420TIP3    H246752   3.363   0.566  43.564  1.8921 -1.1686 -0.8326
 8421TIP3   OH246753   0.625   2.155  11.525  0.4465 -0.3226  0.1999
 8421TIP3    H146754   0.614   2.173  11.618  1.9022 -2.1375  0.7990
 8421TIP3    H246755   0.543   2.113  11.499 -1.2439  2.9741 -0.1969
 8422TIP3   OH246756   1.450   0.406  22.606  0.0608 -0.0376 -0.0055
 8422TIP3    H146757   1.401   0.474  22.653  1.5972  0.2439  1.2787
 8422TIP3    H246758   1.439   0.327  22.659  0.0035 -0.2730 -0.3607
 8423TIP3   OH246759   2.808   3.079  64.684 -0.4962  0.6303 -0.4932
 8423TIP3    H146760   2.880   3.018  64.669 -1.3919 -0.5197 -0.2025
 8423TIP3    H246761   2.830   3.155  64.629 -0.0770 -0.5260 -1.9932
 8424TIP3   OH246762   3.415   3.181  67.065  0.4966  0.3724  0.7826
 8424TIP3    H146763   3.439   3.244  66.996 -1.7955  0.0321 -0.4222
 8424TIP3    H246764   3.483   3.114  67.061 -0.6120 -0.7297 -2.6678
 8425TIP3   OH246765   0.573   1.789   3.357  0.3574 -0.1824 -0.7501
 8425TIP3    H146766   0.571   1.802   3.263  1.3706 -0.6093 -0.8448
 8425TIP3    H246767   0.666   1.794   3.380  0.0901  0.2947  0.2816
 8426TIP3   OH246768   3.101   0.328   7.889 -0.4519  0.3098  0.0069
 8426TIP3    H146769   3.177   0.367   7.934 -0.2064 -0.3888  0.2092
 8426TIP3    H246770   3.042   0.402   7.874  0.9350  1.1722 -1.5355
 8427TIP3   OH246771   2.449   1.346  53.247 -0.2339 -0.3843 -0.3717
 8427TIP3    H146772   2.473   1.425  53.199 -1.8796  0.1500 -0.3963
 8427TIP3    H246773   2.373   1.312  53.200 -1.5682 -0.1363  1.5063
 8428TIP3   OH246774   2.403   3.235   0.597  0.5239  0.0612 -0.4730
 8428TIP3    H146775   2.451   3.200   0.672  0.6910 -0.3598 -0.7752
 8428TIP3    H246776   2.396   3.162   0.536 -3.6791 -1.1173  1.0650
 8429TIP3   OH246777   3.072   1.038  20.881 -0.1989  0.5551  0.1825
 8429TIP3    H146778   3.041   1.012  20.794  1.6764  1.7617 -0.9351
 8429TIP3    H246779   3.009   1.102  20.912 -1.2612 -0.3985  0.0468
 8430TIP3   OH246780   2.458   2.563  12.811 -0.1021 -0.0970  0.2579
 8430TIP3    H146781   2.396   2.604  12.751  0.3953 -0.2611 -0.3738
 8430TIP3    H246782   2.404   2.535  12.886 -1.1746 -2.1412 -1.1942
 8431TIP3   OH246783   0.624   1.956  53.987  0.0959  0.3304 -0.0195
 8431TIP3    H146784   0.616   1.862  53.999  0.0039  0.3938  0.4111
 8431TIP3    H246785   0.662   1.966  53.899  0.5454 -0.1183  0.1207
 8432TIP3   OH246786   0.790   1.297  55.378 -0.6401 -0.1156 -0.4422
 8432TIP3    H146787   0.763   1.324  55.290 -3.2068  0.9093  0.5588
 8432TIP3    H246788   0.751   1.210  55.389 -0.1743 -0.3172 -0.3814
 8433TIP3   OH246789   2.564   2.814  11.494  0.1812 -0.1482  0.4391
 8433TIP3    H146790   2.590   2.888  11.549  0.6916  0.5087 -0.6436
 8433TIP3    H246791   2.473   2.833  11.470  0.1216 -0.1742  0.6451
 8434TIP3   OH246792   2.402   2.305   2.132  0.2266 -0.0015 -0.5707
 8434TIP3    H146793   2.449   2.331   2.212 -2.9518  1.3839  1.0263
 8434TIP3    H246794   2.381   2.388   2.089  2.5402 -0.7347 -3.4360
 8435TIP3   OH246795   0.416   0.035   8.096  0.1604  0.5006  0.1864
 8435TIP3    H146796   0.455  -0.025   8.159  0.2112 -0.2350 -0.5257
 8435TIP3    H246797   0.324   0.010   8.091  0.4310 -0.3871 -1.0319
 8436TIP3   OH246798   3.021   0.563  45.338 -0.2000 -0.7780 -0.5118
 8436TIP3    H146799   3.038   0.498  45.405  0.9655  0.2327  0.2322
 8436TIP3    H246800   3.035   0.647  45.382  0.5469 -0.0821 -1.9902
 8437TIP3   OH246801   1.273   2.161  52.537 -0.3840 -0.2601  0.3489
 8437TIP3    H146802   1.292   2.069  52.558  0.1626 -0.2634 -0.1283
 8437TIP3    H246803   1.339   2.210  52.587  1.8215 -0.3265 -2.2487
 8438TIP3   OH246804   0.384   1.300  15.565  0.0839 -0.3409 -0.7393
 8438TIP3    H146805   0.435   1.317  15.486 -0.5519 -0.9884 -1.3069
 8438TIP3    H246806   0.379   1.204  15.569  0.6685 -0.3374  0.4542
 8439TIP3   OH246807   2.099   0.538  67.283  0.3124 -0.2316  0.6142
 8439TIP3    H146808   2.131   0.541  67.193 -1.7545 -1.6200 -0.2505
 8439TIP3    H246809   2.158   0.596  67.332  0.9989  1.2197 -1.7736
 8440TIP3   OH246810   0.086   3.110  45.909  0.0247 -0.7776  0.4276
 8440TIP3    H146811   0.165   3.102  45.856 -0.5267  0.3211 -0.5765
 8440TIP3    H246812   0.110   3.168  45.981 -0.6127  1.9741 -1.4576
 8441TIP3   OH246813   2.292   3.111   1.794  0.4727  0.8167  0.4338
 8441TIP3    H146814   2.331   3.159   1.867  1.5704  2.3553 -1.0985
 8441TIP3    H246815   2.203   3.092   1.823  1.0495  0.8846  2.3748
 8442TIP3   OH246816   1.253   0.488  48.503 -0.3128  0.0213  0.0225
 8442TIP3    H146817   1.216   0.545  48.436  2.7232  1.2323 -0.7584
 8442TIP3    H246818   1.331   0.451  48.463  0.3578 -1.0092  2.1390
 8443TIP3   OH246819   3.175   1.039  43.962 -0.0796 -0.1386 -0.9720
 8443TIP3    H146820   3.230   1.008  44.034  0.3704  1.5744 -0.5475
 8443TIP3    H246821   3.089   1.052  44.000  0.1272  0.6466 -0.7665
 8444TIP3   OH246822   0.515   0.885  10.426  0.5639  0.2110 -0.4325
 8444TIP3    H146823   0.562   0.949  10.373  0.3681  0.5045 -0.2532
 8444TIP3    H246824   0.441   0.858  10.371  0.5573  0.2562 -0.4458
 8445TIP3   OH246825   3.094   0.968  53.259 -0.8031  0.2223  0.3707
 8445TIP3    H146826   3.060   0.947  53.346 -1.8626  1.3718  0.2534
 8445TIP3    H246827   3.022   1.013  53.215  0.3236  1.3151 -0.4390
 8446TIP3   OH246828   1.975   3.137  56.149  0.2472  0.1052  0.3878
 8446TIP3    H146829   2.045   3.165  56.208  0.4752  1.2895 -0.4137
 8446TIP3    H246830   2.013   3.146  56.061  0.0284 -1.9039  0.0291
 8447TIP3   OH246831   0.834   1.013   9.447  0.3162 -0.6165 -0.1601
 8447TIP3    H146832   0.805   1.083   9.388 -0.7755 -0.5919  0.3880
 8447TIP3    H246833   0.930   1.021   9.448  0.2830  0.0710 -1.0743
 8448TIP3   OH246834   0.330   0.993  57.097  0.0636  0.3256 -0.1596
 8448TIP3    H146835   0.403   1.015  57.039  0.0857 -0.6141 -0.5081
 8448TIP3    H246836   0.348   0.903  57.124 -0.8803  0.1461 -0.1127
 8449TIP3   OH246837   1.793   3.369  53.346 -0.2343  0.1728 -0.4007
 8449TIP3    H146838   1.723   3.425  53.379  1.3703  1.8625  0.2805
 8449TIP3    H246839   1.871   3.424  53.347  1.1307 -1.6369 -1.1511
 8450TIP3   OH246840   0.696   1.542  46.232  0.2476 -0.0035  0.4472
 8450TIP3    H146841   0.708   1.510  46.322 -1.5449 -0.7370  0.4652
 8450TIP3    H246842   0.731   1.472  46.177  2.2978  0.8786  0.5227
 8451TIP3   OH246843   1.173   0.882   6.994  0.5295  0.5796  0.2086
 8451TIP3    H146844   1.266   0.870   6.979  1.0598 -0.5874  3.4975
 8451TIP3    H246845   1.166   0.966   7.039 -0.0332  0.6674 -0.0295
 8452TIP3   OH246846   0.434   2.803  15.981  0.0631 -0.2433 -0.2273
 8452TIP3    H146847   0.487   2.736  15.937 -0.6765 -1.5486  0.7842
 8452TIP3    H246848   0.498   2.865  16.016  0.6934  0.7567 -2.8707
 8453TIP3   OH246849   0.312   1.374  11.502  0.0670  0.4996 -0.3915
 8453TIP3    H146850   0.271   1.461  11.498  1.8685  1.5742  1.8698
 8453TIP3    H246851   0.387   1.381  11.443  1.0474  1.0132  0.8900
 8454TIP3   OH246852   1.526   0.470  48.962 -0.2281  0.0474  0.1132
 8454TIP3    H146853   1.481   0.489  48.880 -0.3734  0.6973  0.3341
 8454TIP3    H246854   1.561   0.382  48.951 -1.1313 -0.2794 -0.2543
 8455TIP3   OH246855   0.105   0.492   0.737 -0.0926  0.0127  0.3103
 8455TIP3    H146856   0.133   0.571   0.690 -1.1118  0.2866  0.1460
 8455TIP3    H246857   0.038   0.454   0.680 -1.1214  0.1782  1.3846
 8456TIP3   OH246858   1.522   0.205   0.233  0.1268 -0.2083  0.4428
 8456TIP3    H146859   1.515   0.176   0.142  0.1908  1.0104  0.0210
 8456TIP3    H246860   1.612   0.237   0.241 -0.4166  1.4578  0.3496
 8457TIP3   OH246861   1.120   1.911   1.749  0.6414 -0.4330  0.2356
 8457TIP3    H146862   1.095   2.000   1.725  0.5514 -0.1828  1.2236
 8457TIP3    H246863   1.072   1.855   1.688 -1.8502  0.0610  1.5975
 8458TIP3   OH246864   1.836   2.582   0.524  0.0387  0.4831  0.6879
 8458TIP3    H146865   1.843   2.502   0.576  0.7166 -0.1513 -0.3507
 8458TIP3    H246866   1.864   2.556   0.436  0.5993  1.9347  0.4089
 8459TIP3   OH246867   0.714   1.073   5.275 -0.0171 -0.1933 -0.4395
 8459TIP3    H146868   0.761   1.146   5.317 -0.3920  0.0690 -0.4712
 8459TIP3    H246869   0.673   1.026   5.348  1.3557 -1.2100 -0.2679
 8460TIP3   OH246870   2.386   0.991  12.418  0.1180  0.2766 -0.0526
 8460TIP3    H146871   2.320   1.046  12.375 -2.4566  0.0948  3.2239
 8460TIP3    H246872   2.425   1.049  12.483  2.0716 -0.1110 -0.8321
 8461TIP3   OH246873   1.045   2.674  43.073 -0.0039  0.1771  0.2086
 8461TIP3    H146874   1.120   2.730  43.055  0.6842 -0.5984  0.5840
 8461TIP3    H246875   1.015   2.645  42.986  0.6125 -0.1123  0.0837
 8462TIP3   OH246876   0.746   2.488  64.112  0.0478 -0.0941 -0.6278
 8462TIP3    H146877   0.765   2.563  64.167 -0.4027 -0.2913 -0.1937
 8462TIP3    H246878   0.702   2.525  64.035  0.9265  0.2110 -0.9934
 8463TIP3   OH246879   1.183   2.894  15.706  0.4257 -0.0229  0.2872
 8463TIP3    H146880   1.121   2.852  15.765  1.5019 -0.1951  1.3147
 8463TIP3    H246881   1.232   2.955  15.761  1.8288 -0.5825 -0.2940
 8464TIP3   OH246882   0.860   3.205   2.524  0.1538  0.5694  0.1053
 8464TIP3    H146883   0.809   3.186   2.603 -0.6437  0.7791 -0.3503
 8464TIP3    H246884   0.933   3.257   2.555 -0.5613  1.2893  0.6144
 8465TIP3   OH246885   2.133   1.166  13.885 -0.2111  0.0874 -0.0522
 8465TIP3    H146886   2.221   1.195  13.860 -0.1882 -0.0048 -0.0815
 8465TIP3    H246887   2.082   1.174  13.805 -0.2327  0.1547 -0.0321
 8466TIP3   OH246888   2.012   1.067  42.359 -0.3735  0.1221  0.9337
 8466TIP3    H146889   1.987   1.156  42.332 -0.2420 -0.4045 -1.0408
 8466TIP3    H246890   2.091   1.048  42.309 -1.2675 -1.6704  0.0938
 8467TIP3   OH246891   2.710   1.182  58.961 -0.2432 -0.1483 -0.1934
 8467TIP3    H146892   2.618   1.192  58.935 -0.4658  0.5162  0.7973
 8467TIP3    H246893   2.746   1.270  58.955  0.1608 -0.2947  0.0588
 8468TIP3   OH246894   1.692   2.162  64.650 -0.0972  0.9919  0.4716
 8468TIP3    H146895   1.711   2.093  64.714 -0.3095  1.4307  1.0216
 8468TIP3    H246896   1.609   2.136  64.610  1.7148 -1.2026 -2.2962
 8469TIP3   OH246897   1.735   1.214  62.711  0.0480  0.4310  0.9001
 8469TIP3    H146898   1.656   1.254  62.749 -0.5020 -1.0467  1.3949
 8469TIP3    H246899   1.703   1.164  62.636  0.5090 -0.1379  1.0736
 8470TIP3   OH246900   1.068   3.180  10.722  0.6283 -1.1676 -0.0477
 8470TIP3    H146901   0.986   3.208  10.683  1.2512 -0.7668 -1.1023
 8470TIP3    H246902   1.046   3.164  10.814  0.0778  2.1968  0.5250
 8471TIP3   OH246903   1.856   2.566  51.436 -0.7541 -0.5239 -0.5569
 8471TIP3    H146904   1.817   2.650  51.459 -3.1048 -1.6485 -0.1125
 8471TIP3    H246905   1.836   2.554  51.344  0.1860 -0.2972 -0.7967
 8472TIP3   OH246906   0.456   2.030  46.275 -0.6628 -0.7888 -0.0653
 8472TIP3    H146907   0.424   2.014  46.186  0.5392 -1.2158 -0.4414
 8472TIP3    H246908   0.537   2.079  46.262 -2.6475  3.1462  0.9416
 8473TIP3   OH246909   0.974   2.312  12.713 -0.5325  0.1079 -0.2678
 8473TIP3    H146910   1.025   2.277  12.785  1.3090  0.7178 -1.2207
 8473TIP3    H246911   1.015   2.276  12.634 -1.3625  0.8774 -1.0877
 8474TIP3   OH246912   0.001   1.908   1.601 -0.0985  0.4995 -0.4660
 8474TIP3    H146913   0.058   1.831   1.608  1.0559  1.1899 -1.6510
 8474TIP3    H246914  -0.086   1.876   1.624  0.5807 -0.8370  0.4068
 8475TIP3   OH246915   0.344   1.754  12.020  0.6194 -0.2937 -0.3599
 8475TIP3    H146916   0.333   1.737  12.114  2.0991  0.3758 -0.0337
 8475TIP3    H246917   0.435   1.731  12.003  0.9192  1.4004 -1.2071
 8476TIP3   OH246918   1.698   3.263  61.889 -0.3770  0.0499 -0.4660
 8476TIP3    H146919   1.731   3.199  61.826  3.6731  2.0749 -0.7628
 8476TIP3    H246920   1.677   3.212  61.967 -2.8603 -2.1823 -2.3892
 8477TIP3   OH246921   0.016   0.907  65.355  0.2184  0.3351  0.4033
 8477TIP3    H146922  -0.028   0.904  65.440  1.2417 -1.1360  0.9368
 8477TIP3    H246923  -0.055   0.897  65.292 -0.5235  1.1018  1.0810
 8478TIP3   OH246924   2.961   0.133  46.045 -0.2339  0.3454 -0.1669
 8478TIP3    H146925   3.040   0.177  46.077 -0.1815  1.4239 -1.6983
 8478TIP3    H246926   2.889   0.177  46.092  0.0208 -0.2138  0.7636
 8479TIP3   OH246927   3.076   0.047  14.200 -0.5158 -0.0124  0.0245
 8479TIP3    H146928   3.010   0.115  14.185 -0.0822  0.8639  1.7403
 8479TIP3    H246929   3.149   0.094  14.241  0.6061 -1.2063 -0.5315
 8480TIP3   OH246930   2.985   1.830  63.168 -0.2445 -0.1620  0.0932
 8480TIP3    H146931   3.022   1.917  63.179  0.0755 -0.0140 -1.7403
 8480TIP3    H246932   2.925   1.820  63.241 -0.5070  1.7279  0.1909
 8481TIP3   OH246933   0.617   2.202  64.757  0.1856 -0.4187 -0.5182
 8481TIP3    H146934   0.545   2.140  64.766 -0.5736  0.5995  0.7420
 8481TIP3    H246935   0.681   2.156  64.702 -0.7188 -1.9663 -0.3485
 8482TIP3   OH246936   1.387   1.665  22.190 -0.6668  0.8516 -0.3821
 8482TIP3    H146937   1.450   1.597  22.166 -0.2252  0.7514  0.9802
 8482TIP3    H246938   1.320   1.619  22.241 -0.7904  1.3112 -0.1293
 8483TIP3   OH246939   3.191   2.859   1.267 -0.4002 -0.2545 -0.2246
 8483TIP3    H146940   3.122   2.880   1.204 -0.4012 -1.3768 -0.6176
 8483TIP3    H246941   3.264   2.829   1.213  0.3491  0.7473  0.2000
 8484TIP3   OH246942   2.643   3.241   4.273  0.3440 -0.4349  0.3592
 8484TIP3    H146943   2.675   3.319   4.228  1.4379 -1.1412 -0.1235
 8484TIP3    H246944   2.622   3.272   4.361  0.3752  0.4827  0.0634
 8485TIP3   OH246945   2.374   0.586  16.128 -0.0092  0.1334  0.1204
 8485TIP3    H146946   2.310   0.636  16.180 -0.2670 -1.7274  1.7132
 8485TIP3    H246947   2.322   0.548  16.057 -0.6379 -1.0132  1.1567
 8486TIP3   OH246948   0.574   1.266  19.628 -0.4070  0.1120 -0.3436
 8486TIP3    H146949   0.572   1.289  19.721 -0.0538 -0.7871 -0.1039
 8486TIP3    H246950   0.610   1.178  19.625  0.3968  0.4538 -1.4057
 8487TIP3   OH246951   3.242   3.258  52.989 -0.1386  0.5225 -0.1437
 8487TIP3    H146952   3.162   3.269  52.937 -0.3879  0.7586  0.2856
 8487TIP3    H246953   3.282   3.178  52.954 -0.5937  0.3674 -0.3276
 8488TIP3   OH246954   0.296   0.966  10.190  0.1476 -0.0999  0.2975
 8488TIP3    H146955   0.388   0.988  10.176 -0.6113  1.9284 -2.3746
 8488TIP3    H246956   0.287   0.875  10.162  1.4656 -0.6671  1.5977
 8489TIP3   OH246957   0.895   1.541  66.474 -0.2140  0.1080  0.2777
 8489TIP3    H146958   0.990   1.551  66.469 -0.2642  0.7504  0.5582
 8489TIP3    H246959   0.860   1.628  66.455 -0.7360 -0.0496  0.4825
 8490TIP3   OH246960   0.172   1.375  65.685 -0.0619  0.1728 -0.0337
 8490TIP3    H146961   0.204   1.308  65.746  0.4463  0.8558  0.4738
 8490TIP3    H246962   0.089   1.340  65.653  0.1845 -0.6881  0.2324
 8491TIP3   OH246963   0.415   2.657  55.469 -0.1839  0.4949 -0.6278
 8491TIP3    H146964   0.340   2.604  55.442 -0.6735  1.2458 -0.7549
 8491TIP3    H246965   0.486   2.593  55.483 -0.6669 -0.1537 -1.1037
 8492TIP3   OH246966   0.167   1.197  64.474 -0.0492  0.2091  0.1346
 8492TIP3    H146967   0.245   1.201  64.528  0.1396  0.2024 -0.1339
 8492TIP3    H246968   0.188   1.132  64.406 -1.0350 -1.3332  1.2466
 8493TIP3   OH246969   1.041   0.755  48.116 -0.1751  0.1014 -0.0948
 8493TIP3    H146970   1.003   0.842  48.119  1.5252  0.8500  0.7054
 8493TIP3    H246971   1.123   0.762  48.165 -1.3136 -2.6228  2.5218
 8494TIP3   OH246972   3.340   2.489   6.233 -0.0655 -0.5106 -0.0453
 8494TIP3    H146973   3.274   2.478   6.165 -0.2161  0.8297 -0.1423
 8494TIP3    H246974   3.376   2.577   6.218  0.0391 -0.2669  1.4739
 8495TIP3   OH246975   1.426   2.432  56.731  0.2191 -0.4685 -0.3637
 8495TIP3    H146976   1.455   2.479  56.652  1.0919  0.7718  0.6446
 8495TIP3    H246977   1.497   2.371  56.750  1.2498  1.0181  0.8512
 8496TIP3   OH246978   2.209   1.992  64.758 -0.0158  0.1244 -0.1249
 8496TIP3    H146979   2.267   2.053  64.804 -1.4509  3.4533 -2.2589
 8496TIP3    H246980   2.121   2.017  64.787 -0.6320 -1.5121 -0.5066
 8497TIP3   OH246981   0.712   1.677  42.624 -0.0477  0.2229  0.4435
 8497TIP3    H146982   0.702   1.769  42.601  0.9403  0.1012 -0.5218
 8497TIP3    H246983   0.704   1.630  42.541  0.8430 -0.4468  0.7311
 8498TIP3   OH246984   2.415   2.822  55.306 -0.3087 -0.5353 -0.7161
 8498TIP3    H146985   2.494   2.776  55.337 -0.6682 -0.2244  0.7722
 8498TIP3    H246986   2.449   2.901  55.264  0.1985 -0.4657 -0.1959
 8499TIP3   OH246987   2.652   2.017   5.488  0.0460 -0.5182  0.2457
 8499TIP3    H146988   2.741   2.033   5.518  0.0243 -0.2642  0.1741
 8499TIP3    H246989   2.612   2.104   5.483  0.0689 -0.5542 -0.5877
 8500TIP3   OH246990   0.784   3.016   6.239  0.3496  0.2642  0.2142
 8500TIP3    H146991   0.750   2.931   6.264 -2.4176  1.1919 -0.0138
 8500TIP3    H246992   0.879   3.003   6.230 -0.0715 -2.9819 -0.7663
 8501TIP3   OH246993   3.056   0.607  52.732 -0.0377  0.3253 -0.0889
 8501TIP3    H146994   2.977   0.599  52.679  0.0294 -1.3713  0.0336
 8501TIP3    H246995   3.031   0.665  52.804 -0.3303  2.0969 -1.5421
 8502TIP3   OH246996   1.543   3.294  12.013  0.0385  0.0065 -0.2988
 8502TIP3    H146997   1.514   3.384  11.999  0.8360  0.4148  0.5655
 8502TIP3    H246998   1.550   3.286  12.108 -0.1926 -1.0282 -0.3624
 8503TIP3   OH246999   0.998   1.772  14.649  0.1852 -0.1951 -0.3355
 8503TIP3    H147000   1.036   1.784  14.736  0.0889 -0.0106 -0.3179
 8503TIP3    H247001   1.042   1.837  14.594  0.2171 -0.2843 -0.4164
 8504TIP3   OH247002   0.191   1.580  13.432  0.5401  0.2398 -0.3577
 8504TIP3    H147003   0.209   1.492  13.398 -1.0059 -0.0028 -0.5995
 8504TIP3    H247004   0.216   1.575  13.525 -0.2674 -0.6948 -0.1776
 8505TIP3   OH247005   2.902   0.081   5.410  0.6142  0.5081  0.5892
 8505TIP3    H147006   2.942   0.114   5.490  0.8701 -0.4022  0.8557
 8505TIP3    H247007   2.967   0.019   5.375 -0.9715 -1.9609  1.6917
 8506TIP3   OH247008   3.113   1.222  28.443 -0.0518  0.1144 -0.4834
 8506TIP3    H147009   3.144   1.287  28.379 -0.7434 -1.5172 -2.5797
 8506TIP3    H247010   3.065   1.273  28.508  0.2433  1.8010 -1.5319
 8507TIP3   OH247011   0.103   3.148  14.708  0.1895  0.1297  0.2995
 8507TIP3    H147012   0.045   3.216  14.671  0.0139 -0.4890 -0.5925
 8507TIP3    H247013   0.046   3.097  14.766 -0.5057 -1.1806 -1.4343
 8508TIP3   OH247014   0.792   2.405   6.963  0.4219  0.2687 -0.0122
 8508TIP3    H147015   0.829   2.425   7.050 -0.6510 -0.9066  0.7496
 8508TIP3    H247016   0.706   2.447   6.963  0.1388 -0.2996 -0.2412
 8509TIP3   OH247017   0.795   3.301   7.103 -0.1094  0.3273 -0.1027
 8509TIP3    H147018   0.723   3.341   7.054  0.1854  0.9669 -0.0273
 8509TIP3    H247019   0.800   3.211   7.071 -0.5688  0.4525 -0.5230
 8510TIP3   OH247020   3.394   1.596   9.749 -0.2548 -0.3135  0.2171
 8510TIP3    H147021   3.378   1.679   9.706 -3.2233 -1.7892 -1.9130
 8510TIP3    H247022   3.489   1.583   9.743 -0.1168  1.2501 -2.7736
 8511TIP3   OH247023   0.244   2.306  60.574  0.2679  0.0417 -0.0618
 8511TIP3    H147024   0.198   2.286  60.655  0.0961 -2.2213 -0.6541
 8511TIP3    H247025   0.336   2.289  60.593  0.3893  0.7005 -0.0180
 8512TIP3   OH247026   1.574   2.959  45.018 -0.6540 -0.6154 -0.5748
 8512TIP3    H147027   1.644   2.931  44.958  0.0288 -0.5380  0.1720
 8512TIP3    H247028   1.586   3.053  45.027 -0.9179 -0.5876 -0.5067
 8513TIP3   OH247029   2.156   1.224  14.615 -0.9486 -0.0825 -0.5835
 8513TIP3    H147030   2.128   1.304  14.660 -2.1708  0.1991 -1.7882
 8513TIP3    H247031   2.097   1.156  14.647  0.3242 -0.6525  0.7242
 8514TIP3   OH247032   1.383   0.322   5.577 -0.2642 -0.6073  0.4606
 8514TIP3    H147033   1.461   0.297   5.626 -1.3234 -1.3019  1.8331
 8514TIP3    H247034   1.415   0.336   5.488  1.3613 -1.2147  0.9137
 8515TIP3   OH247035   3.394   1.472  55.257  0.0882 -0.3712 -0.0795
 8515TIP3    H147036   3.342   1.552  55.254 -0.5610 -0.8000 -0.3050
 8515TIP3    H247037   3.472   1.493  55.205 -0.6060 -0.2599 -1.1100
 8516TIP3   OH247038   1.475   2.572   6.200 -0.1822 -0.0637 -0.6270
 8516TIP3    H147039   1.455   2.502   6.262  1.9766  0.3085  0.6145
 8516TIP3    H247040   1.425   2.647   6.232 -0.6556 -0.4130 -0.5400
 8517TIP3   OH247041   0.607   3.029   9.235 -0.2018  0.3321 -1.1530
 8517TIP3    H147042   0.591   3.029   9.330 -0.2249  1.1299 -1.1506
 8517TIP3    H247043   0.522   3.013   9.196 -0.2017  0.0502 -1.0375
 8518TIP3   OH247044   3.396   2.868   9.024  0.3615 -0.1844  0.2923
 8518TIP3    H147045   3.461   2.931   9.053  1.0602  0.2373 -1.9461
 8518TIP3    H247046   3.434   2.829   8.945 -2.6004  1.1765 -2.0307
 8519TIP3   OH247047   0.817   2.916  18.471 -0.4052 -0.5775  0.3321
 8519TIP3    H147048   0.852   2.865  18.398 -1.5794 -0.4950 -0.3140
 8519TIP3    H247049   0.866   2.886  18.547  2.7193  1.1132 -0.8023
 8520TIP3   OH247050   2.529   2.600   6.774  0.3716 -0.0395 -0.4114
 8520TIP3    H147051   2.526   2.581   6.680  2.4974 -1.8876 -0.1728
 8520TIP3    H247052   2.597   2.543   6.808 -1.6729 -0.9169  2.6425
 8521TIP3   OH247053   1.894   0.669  10.065  0.2482 -0.3967  0.4049
 8521TIP3    H147054   1.874   0.746  10.012  2.5710  0.0751  0.1036
 8521TIP3    H247055   1.876   0.595  10.007  1.4717  0.0750 -0.6334
 8522TIP3   OH247056   1.267   1.189  66.840  0.1094 -0.6223 -0.0298
 8522TIP3    H147057   1.284   1.267  66.894 -0.4267 -1.3332  1.2031
 8522TIP3    H247058   1.173   1.176  66.847  0.2917 -1.7814  0.3358
 8523TIP3   OH247059   0.937   0.392  52.414  0.1342  0.3480 -0.5148
 8523TIP3    H147060   0.923   0.432  52.500 -2.5262 -0.8669 -0.2931
 8523TIP3    H247061   0.935   0.465  52.353 -1.1553  0.9456  0.2020
 8524TIP3   OH247062   1.102   1.031  37.309  0.8196 -0.4237  0.0824
 8524TIP3    H147063   1.113   1.122  37.338 -0.3513 -0.4012  0.5178
 8524TIP3    H247064   1.052   1.038  37.228  0.1561 -0.7043  0.4610
 8525TIP3   OH247065   2.315   1.008  26.168  0.1621 -0.1854  0.0485
 8525TIP3    H147066   2.237   0.955  26.185 -0.8046  1.2152  0.1157
 8525TIP3    H247067   2.341   1.040  26.255 -0.6612  1.3392 -0.2463
 8526TIP3   OH247068   2.067   0.037  50.860  0.3681 -0.2261 -0.2016
 8526TIP3    H147069   2.041  -0.055  50.864 -0.2232 -0.0491  0.0687
 8526TIP3    H247070   2.068   0.066  50.951  0.6816 -0.0003 -0.2744
 8527TIP3   OH247071   2.300   0.676   0.022 -0.5504 -0.0341  0.1734
 8527TIP3    H147072   2.332   0.656  -0.065  0.6456 -0.1495  0.6169
 8527TIP3    H247073   2.266   0.593   0.055  1.5252 -0.6830  0.8284
 8528TIP3   OH247074   2.798   1.664  66.272  0.3556 -0.5903  0.2676
 8528TIP3    H147075   2.723   1.612  66.302 -1.2176  0.9436 -0.8016
 8528TIP3    H247076   2.874   1.612  66.297 -1.0384 -2.1626  1.5239
 8529TIP3   OH247077   2.698   1.347  31.393  0.3569  0.3482  0.3340
 8529TIP3    H147078   2.677   1.396  31.474  0.7416 -0.5637  0.9970
 8529TIP3    H247079   2.793   1.354  31.385  0.1941  1.6213 -0.8281
 8530TIP3   OH247080   1.952   1.320  52.999 -0.4051  0.0906  0.5039
 8530TIP3    H147081   2.009   1.280  52.934  0.4217  0.6912  0.8521
 8530TIP3    H247082   1.870   1.270  52.993  0.4755 -1.4183  0.6853
 8531TIP3   OH247083   1.034   0.044  62.904 -0.4114 -0.1447  0.1879
 8531TIP3    H147084   1.100  -0.017  62.871  0.4791 -0.0326  1.6806
 8531TIP3    H247085   1.082   0.126  62.919 -0.8851 -0.0403  1.2427
 8532TIP3   OH247086   2.824   1.751  66.777  0.1470 -0.0814  0.4314
 8532TIP3    H147087   2.790   1.729  66.690 -0.6703  0.4399  0.6075
 8532TIP3    H247088   2.832   1.846  66.777  0.2431 -0.0866  0.8893
 8533TIP3   OH247089   2.791   1.517   1.904  0.6523  0.3973 -0.2019
 8533TIP3    H147090   2.762   1.607   1.890  0.2172  0.0466 -1.7095
 8533TIP3    H247091   2.727   1.480   1.964  0.5800  0.9521  0.0688
 8534TIP3   OH247092   3.092   2.099   7.781  0.6623 -0.0156 -0.4224
 8534TIP3    H147093   3.030   2.029   7.760  0.7526 -0.1925 -0.0993
 8534TIP3    H247094   3.038   2.167   7.822  0.4823  0.3359 -1.2088
 8535TIP3   OH247095   2.350   1.912   5.514  0.1362  0.0095 -0.3953
 8535TIP3    H147096   2.379   1.975   5.580 -1.3882  0.0667  0.2624
 8535TIP3    H247097   2.318   1.838   5.565 -1.9324  0.4305 -1.0108
 8536TIP3   OH247098   0.011   1.559  12.477 -0.2709 -0.1374 -0.1260
 8536TIP3    H147099   0.010   1.542  12.383  1.2177  0.2024 -0.2169
 8536TIP3    H247100   0.046   1.478  12.516  0.5183  0.2619  0.0047
 8537TIP3   OH247101   0.422   0.600   0.786 -0.2132 -0.2092  0.1331
 8537TIP3    H147102   0.354   0.570   0.846 -1.2335  0.5343 -0.6185
 8537TIP3    H247103   0.472   0.664   0.836  0.0277 -0.8512  0.7335
 8538TIP3   OH247104   2.016   0.941  15.416  0.4061 -0.5462 -0.2008
 8538TIP3    H147105   2.094   0.954  15.362 -0.4676 -2.0395 -1.9252
 8538TIP3    H247106   1.952   1.002  15.380  0.3484 -0.2876  0.3296
 8539TIP3   OH247107   1.424   1.479  46.082 -0.1473  0.6378 -0.8484
 8539TIP3    H147108   1.401   1.386  46.086 -1.8424  0.9113 -2.8406
 8539TIP3    H247109   1.417   1.509  46.172 -0.3651 -0.9738 -0.2920
 8540TIP3   OH247110   2.629   1.416  18.391 -0.1358  0.0124 -0.3386
 8540TIP3    H147111   2.591   1.478  18.329  0.6587 -0.0586 -0.9249
 8540TIP3    H247112   2.572   1.339  18.386  0.0487 -0.0867 -1.1863
 8541TIP3   OH247113   1.933   2.797  18.494 -0.3655  0.6324  0.4435
 8541TIP3    H147114   1.845   2.835  18.502 -0.0915  1.1546  0.9970
 8541TIP3    H247115   1.933   2.724  18.556 -1.2001 -0.9187 -1.2606
 8542TIP3   OH247116   1.314   1.328   3.738 -0.2681 -0.1613  0.5801
 8542TIP3    H147117   1.299   1.419   3.712  0.4711  0.1887  1.3366
 8542TIP3    H247118   1.233   1.302   3.782 -0.3298  0.2706  0.7259
 8543TIP3   OH247119   2.770   2.772  46.808 -0.1584  0.3424  0.1845
 8543TIP3    H147120   2.831   2.712  46.850 -0.1175 -0.2757 -0.7119
 8543TIP3    H247121   2.683   2.733  46.823 -0.0849 -0.2947 -0.9022
 8544TIP3   OH247122   3.134   1.436   6.265  0.0125  0.0888  0.2575
 8544TIP3    H147123   3.088   1.422   6.348  1.8747 -0.2899  1.2882
 8544TIP3    H247124   3.210   1.490   6.288  1.0341 -0.7204 -1.0194
 8545TIP3   OH247125   0.313   1.591  49.990 -0.3209  0.2584  0.2745
 8545TIP3    H147126   0.280   1.655  50.053 -0.1549 -0.2096  0.8482
 8545TIP3    H247127   0.407   1.586  50.007 -0.2749  0.1332 -0.0141
 8546TIP3   OH247128   0.324   1.168  59.979 -0.5646  0.2815 -0.0023
 8546TIP3    H147129   0.313   1.073  59.983 -1.4332  0.2674 -1.7598
 8546TIP3    H247130   0.418   1.181  59.991 -0.7319 -0.5442  3.0098
 8547TIP3   OH247131   3.223   2.004  48.972  0.0508  0.0898 -0.6018
 8547TIP3    H147132   3.162   2.034  48.904 -0.2561  1.3958  0.2014
 8547TIP3    H247133   3.264   1.926  48.935 -0.0157  0.8216 -2.3492
 8548TIP3   OH247134   2.599   0.976  55.805  0.4876  0.3976  0.3542
 8548TIP3    H147135   2.637   0.996  55.719  1.2936  2.0138  1.0320
 8548TIP3    H247136   2.508   1.002  55.798  0.3394 -0.2551 -0.2503
 8549TIP3   OH247137   1.072   0.507  53.868 -0.5343  0.5417 -0.0449
 8549TIP3    H147138   1.032   0.466  53.791 -0.1701 -1.2362  0.6529
 8549TIP3    H247139   1.143   0.448  53.891  0.7119  2.1635  0.4314
 8550TIP3   OH247140   3.321   2.933  51.837 -0.3398  0.1568  0.6326
 8550TIP3    H147141   3.342   3.018  51.874  0.6615 -0.7070  2.1674
 8550TIP3    H247142   3.383   2.872  51.879 -1.6307 -1.4699  0.2928
 8551TIP3   OH247143   0.027   3.421   9.613 -0.7812 -0.4881  0.0211
 8551TIP3    H147144   0.041   3.468   9.695 -1.2688  0.6498 -0.5267
 8551TIP3    H247145   0.075   3.472   9.547 -3.5640  0.9331 -1.0862
 8552TIP3   OH247146   0.745   2.533  65.130  0.0052  0.1374 -0.4635
 8552TIP3    H147147   0.739   2.517  65.225 -2.0989 -0.2496 -0.6224
 8552TIP3    H247148   0.764   2.447  65.093 -1.4004 -0.1538 -0.5493
 8553TIP3   OH247149   1.363   2.811  42.766  0.0855 -0.0144  0.5694
 8553TIP3    H147150   1.322   2.797  42.681  1.2481  1.2028 -0.2077
 8553TIP3    H247151   1.410   2.730  42.783  0.5595  0.0558 -0.3579
 8554TIP3   OH247152   1.661   0.621  56.225  0.4041  0.1484  0.0011
 8554TIP3    H147153   1.673   0.669  56.307 -1.4901 -0.1544  0.4952
 8554TIP3    H247154   1.750   0.608  56.192  1.1020  1.9983  1.0002
 8555TIP3   OH247155   0.643   1.410   7.474  0.0334 -0.5701 -0.4289
 8555TIP3    H147156   0.630   1.496   7.435  0.2491 -0.8336 -1.1034
 8555TIP3    H247157   0.627   1.423   7.568 -0.5576  0.0630 -0.6105
 8556TIP3   OH247158   0.520   0.620  51.437  0.0876 -0.2663 -0.3268
 8556TIP3    H147159   0.499   0.527  51.432 -1.5756 -0.0551  1.4919
 8556TIP3    H247160   0.437   0.662  51.458  0.9174  1.5880 -0.5766
 8557TIP3   OH247161   0.373   2.473  60.285  0.0126  0.0899 -0.2997
 8557TIP3    H147162   0.433   2.466  60.359  2.2309 -1.0497 -2.1149
 8557TIP3    H247163   0.357   2.383  60.258 -0.6456  0.4905 -1.3069
 8558TIP3   OH247164   1.647   1.593  55.424  0.7291 -0.0007  0.1937
 8558TIP3    H147165   1.648   1.508  55.381  0.4563 -0.2312  0.6329
 8558TIP3    H247166   1.684   1.576  55.511 -0.1980  0.1311  0.6296
 8559TIP3   OH247167   1.262   1.450   3.411  0.5126 -0.2794 -0.2223
 8559TIP3    H147168   1.312   1.419   3.335 -0.4359 -0.0655 -0.9407
 8559TIP3    H247169   1.288   1.541   3.421  0.5915 -0.2900 -0.3230
 8560TIP3   OH247170   0.843   1.564  66.025 -0.5920  0.1895 -0.1360
 8560TIP3    H147171   0.755   1.540  65.996 -0.7419  1.3665 -0.7022
 8560TIP3    H247172   0.872   1.630  65.962  0.4354  0.2988  0.4304
 8561TIP3   OH247173   1.140   1.948  64.327  0.5285 -0.1189  0.1477
 8561TIP3    H147174   1.136   1.904  64.243 -0.5876 -1.4080  0.8443
 8561TIP3    H247175   1.097   2.032  64.313  0.2230 -0.3840 -0.5197
 8562TIP3   OH247176   2.735   2.160  11.933 -0.1385  0.6406  0.6243
 8562TIP3    H147177   2.697   2.189  12.016 -1.3248 -0.4500  0.4883
 8562TIP3    H247178   2.664   2.168  11.869 -0.4446 -2.0759  0.4958
 8563TIP3   OH247179   0.020   3.226  61.419  0.0150  0.3794  0.0077
 8563TIP3    H147180  -0.023   3.269  61.345  0.4576 -0.2905 -0.6583
 8563TIP3    H247181  -0.039   3.239  61.493 -1.3538 -0.5430 -0.8803
 8564TIP3   OH247182   1.711   2.058  63.938 -0.0564  0.0737 -0.2030
 8564TIP3    H147183   1.729   1.997  63.867  1.7668 -0.6349  0.7848
 8564TIP3    H247184   1.759   2.138  63.913 -1.6403  0.8095 -1.0284
 8565TIP3   OH247185   1.161   0.014  11.984  0.5050  0.0098  0.1307
 8565TIP3    H147186   1.072   0.044  12.004  0.9238  1.0459  0.4915
 8565TIP3    H247187   1.176  -0.058  12.046  0.0266  0.0263  0.2695
 8566TIP3   OH247188   3.425   2.296  65.127  0.1289 -0.1632 -0.8094
 8566TIP3    H147189   3.435   2.376  65.076  0.0590 -1.0806 -2.3254
 8566TIP3    H247190   3.445   2.225  65.065 -1.1649 -1.3787  0.0866
 8567TIP3   OH247191   1.952   2.076  43.148 -0.1532 -0.0806 -0.0786
 8567TIP3    H147192   1.977   2.155  43.195 -0.6425 -0.3818  0.7059
 8567TIP3    H247193   1.869   2.098  43.106 -0.8731 -0.5247  1.0760
 8568TIP3   OH247194   3.077   3.262  46.245 -0.3647 -0.4615 -0.4669
 8568TIP3    H147195   3.003   3.291  46.298  0.7183  2.3123 -0.3360
 8568TIP3    H247196   3.146   3.243  46.308  0.0854  0.2559 -0.7340
 8569TIP3   OH247197   1.899   1.140  53.543 -0.6508 -0.5995 -0.2466
 8569TIP3    H147198   1.840   1.202  53.587  0.4470  0.6782 -0.5093
 8569TIP3    H247199   1.925   1.185  53.463  1.7872 -0.4861  0.5447
 8570TIP3   OH247200   0.152   2.299  52.952 -0.0674 -0.5426 -0.9953
 8570TIP3    H147201   0.102   2.225  52.986  1.2055 -0.7139  0.6421
 8570TIP3    H247202   0.223   2.259  52.901  1.2103 -0.5688  0.7046
 8571TIP3   OH247203   1.735   0.448  19.148 -0.0115 -0.1165 -0.8359
 8571TIP3    H147204   1.814   0.396  19.131 -0.2920 -0.4763 -1.0620
 8571TIP3    H247205   1.767   0.530  19.184  0.3530 -1.5973  2.5533
 8572TIP3   OH247206   0.869   1.405  59.758  0.0535  0.2057 -0.0676
 8572TIP3    H147207   0.888   1.325  59.710  0.9399  0.6150 -0.4190
 8572TIP3    H247208   0.829   1.463  59.693 -0.1240  0.2278  0.0600
 8573TIP3   OH247209   1.552   2.816   7.675 -0.1021  0.1589 -0.2845
 8573TIP3    H147210   1.460   2.841   7.671 -1.2137 -3.4100 -0.6919
 8573TIP3    H247211   1.582   2.820   7.584  0.7655  2.9527  0.0357
 8574TIP3   OH247212   0.453   1.717  65.517 -0.6563  0.1195  0.3598
 8574TIP3    H147213   0.439   1.704  65.611  0.2692 -0.8743  0.3797
 8574TIP3    H247214   0.430   1.633  65.477  0.3123  0.0753 -0.1393
 8575TIP3   OH247215   1.096   1.418  14.547  0.1259 -0.2112  0.3329
 8575TIP3    H147216   1.173   1.413  14.603  0.5330 -1.2423 -0.2950
 8575TIP3    H247217   1.095   1.508  14.515  0.2094  0.2350  1.5210
 8576TIP3   OH247218   1.597   0.218  57.636  0.2112  0.0540 -0.1370
 8576TIP3    H147219   1.684   0.207  57.596 -0.2666 -0.9202 -0.9389
 8576TIP3    H247220   1.556   0.133  57.628 -0.7204  0.4253  0.5289
 8577TIP3   OH247221   3.301   2.741  62.836  0.5544  0.2039  0.0599
 8577TIP3    H147222   3.381   2.793  62.848 -0.1241  0.8918  1.8899
 8577TIP3    H247223   3.247   2.762  62.912 -1.4847 -0.0775 -1.2477
 8578TIP3   OH247224   3.357   2.957  44.820  0.1465  0.2133 -0.2192
 8578TIP3    H147225   3.417   2.905  44.874  0.9715 -0.5649 -1.8247
 8578TIP3    H247226   3.280   2.969  44.875 -1.1556 -4.7289 -0.4731
 8579TIP3   OH247227   2.009   0.672  62.270  0.2549 -0.2414  0.6494
 8579TIP3    H147228   2.056   0.599  62.308  0.9154  0.6822  1.6799
 8579TIP3    H247229   1.948   0.700  62.338 -0.6901 -0.4299 -0.0908
 8580TIP3   OH247230   1.712   2.625  54.408  0.0524 -0.0997 -0.1097
 8580TIP3    H147231   1.689   2.659  54.494 -1.3833 -3.1141  0.8028
 8580TIP3    H247232   1.629   2.622  54.360 -0.3513 -3.9598  0.5647
 8581TIP3   OH247233   2.827   1.453  11.308 -0.1710 -0.6550  0.7637
 8581TIP3    H147234   2.917   1.428  11.326  1.7849  3.0557 -2.3518
 8581TIP3    H247235   2.807   1.521  11.373 -0.0775 -0.3711  0.5019
 8582TIP3   OH247236   1.579   1.414  13.956 -0.4324 -0.6342 -0.0484
 8582TIP3    H147237   1.513   1.455  14.012  0.3506 -0.3383  0.6952
 8582TIP3    H247238   1.659   1.463  13.975  0.1519 -1.4247 -0.4202
 8583TIP3   OH247239   2.722   3.017  47.687 -0.1766 -0.0460  0.8105
 8583TIP3    H147240   2.711   2.937  47.738  1.3900 -0.1276  1.0934
 8583TIP3    H247241   2.674   3.083  47.736 -2.8607 -1.0755 -0.2800
 8584TIP3   OH247242   3.080   1.219  62.360 -0.4377 -0.3418 -0.5438
 8584TIP3    H147243   3.021   1.295  62.360  0.1326  0.1214 -1.4320
 8584TIP3    H247244   3.168   1.258  62.368 -0.1681 -0.9384 -0.5678
 8585TIP3   OH247245   2.411   1.166  27.323 -0.2366  0.4067 -0.0578
 8585TIP3    H147246   2.387   1.186  27.232 -0.0419 -0.6396 -0.3539
 8585TIP3    H247247   2.504   1.188  27.328 -0.4981  1.4704  0.1935
 8586TIP3   OH247248   2.931   0.001  63.727  0.2632 -0.6251  0.0945
 8586TIP3    H147249   2.872   0.046  63.788 -0.3084  0.4995 -1.2415
 8586TIP3    H247250   2.974  -0.066  63.781 -1.6284 -0.9579  1.2952
 8587TIP3   OH247251   0.953   0.369  10.962 -0.4450 -0.1932  0.3670
 8587TIP3    H147252   0.889   0.336  11.025 -1.3468 -0.4667 -0.6478
 8587TIP3    H247253   0.910   0.358  10.877  1.0801 -0.6578 -0.3795
 8588TIP3   OH247254   2.642   2.106   1.978  0.1196  0.0771  0.3108
 8588TIP3    H147255   2.618   2.164   1.906  0.5111 -0.2870 -0.1123
 8588TIP3    H247256   2.558   2.086   2.021 -0.2264 -0.4284 -0.5889
 8589TIP3   OH247257   1.115   0.420  18.156  0.1780 -0.6094 -0.1754
 8589TIP3    H147258   1.084   0.413  18.247 -0.1737 -1.8218 -0.3690
 8589TIP3    H247259   1.188   0.358  18.151 -0.2270 -1.0431 -0.8742
 8590TIP3   OH247260   0.982   0.774  61.742 -0.1805 -0.1729 -0.2459
 8590TIP3    H147261   1.005   0.690  61.780 -0.2871 -0.3778 -0.6322
 8590TIP3    H247262   0.965   0.830  61.818 -0.1702 -0.5144  0.0151
 8591TIP3   OH247263   2.525   3.050  55.941 -0.1981 -0.0737  0.2169
 8591TIP3    H147264   2.466   3.026  55.870  0.6263 -2.7475  0.3250
 8591TIP3    H247265   2.473   3.042  56.020 -0.9785  2.4370  0.0597
 8592TIP3   OH247266   3.353   1.496   0.739 -0.0696 -0.2608  0.4879
 8592TIP3    H147267   3.283   1.514   0.676  0.5891 -0.3444 -0.2886
 8592TIP3    H247268   3.389   1.583   0.760 -1.0697 -0.1123  1.6998
 8593TIP3   OH247269   1.122   3.285  13.563  0.1752 -0.4271 -0.0833
 8593TIP3    H147270   1.096   3.204  13.607 -1.5663 -0.2593 -0.7425
 8593TIP3    H247271   1.168   3.256  13.484  0.2603 -0.7563  0.0857
 8594TIP3   OH247272   2.630   1.037  51.706 -0.4173 -0.2971  0.1256
 8594TIP3    H147273   2.696   1.029  51.637 -0.5100 -1.4223  0.1426
 8594TIP3    H247274   2.552   1.070  51.661  0.1786  1.2040  0.1385
 8595TIP3   OH247275   1.357   1.725  57.787  0.1108 -0.0832 -0.2441
 8595TIP3    H147276   1.380   1.806  57.832  0.6940 -0.1329 -0.4450
 8595TIP3    H247277   1.399   1.732  57.701 -0.4630 -0.2662 -0.5442
 8596TIP3   OH247278   1.213   2.664  56.712 -0.2596 -0.2748 -0.3819
 8596TIP3    H147279   1.168   2.748  56.711 -0.8035 -0.5500  0.1813
 8596TIP3    H247280   1.289   2.676  56.655  0.5289  1.0791  0.8842
 8597TIP3   OH247281   0.124   0.506   2.985  0.0757  0.2970  0.1240
 8597TIP3    H147282   0.200   0.498   3.043 -0.5881 -0.8045  0.8709
 8597TIP3    H247283   0.115   0.600   2.969  0.6204  0.5630  1.3340
 8598TIP3   OH247284   2.144   0.788  13.734  0.4152  0.1020  0.4611
 8598TIP3    H147285   2.192   0.852  13.788  0.0444  0.7011  0.0949
 8598TIP3    H247286   2.161   0.704  13.777 -0.2704  0.6178  1.8162
 8599TIP3   OH247287   3.215   3.125  29.482  0.0741 -0.4118 -0.1299
 8599TIP3    H147288   3.311   3.123  29.479  0.1396  0.2603  0.8189
 8599TIP3    H247289   3.187   3.072  29.408  1.1774  0.3704 -1.1353
 8600TIP3   OH247290   1.297   2.882  49.615  0.0241 -0.2817  0.1417
 8600TIP3    H147291   1.237   2.953  49.635 -0.0820 -0.4582  0.4546
 8600TIP3    H247292   1.261   2.840  49.537 -0.2821 -0.4121  0.3548
 8601TIP3   OH247293   1.594   1.384  12.563 -0.5308  1.0947 -0.2093
 8601TIP3    H147294   1.632   1.415  12.481 -1.0487  1.1910 -0.4145
 8601TIP3    H247295   1.500   1.400  12.554 -0.6748  0.4699  0.1248
 8602TIP3   OH247296   3.242   1.684  17.754 -0.1977  0.3501 -0.2608
 8602TIP3    H147297   3.272   1.636  17.677 -0.5658 -1.0711  0.4520
 8602TIP3    H247298   3.296   1.650  17.825 -0.5195  0.9581  0.2812
 8603TIP3   OH247299   1.461   1.971  49.817  0.2363  0.4016 -0.0397
 8603TIP3    H147300   1.494   1.959  49.906 -1.5842 -0.2908  0.5802
 8603TIP3    H247301   1.370   1.999  49.828 -0.1879 -0.2182 -1.6828
 8604TIP3   OH247302   1.026   1.323   1.662 -0.3541  0.0602  0.1707
 8604TIP3    H147303   0.950   1.373   1.692 -0.3241  0.2888 -0.1284
 8604TIP3    H247304   1.062   1.375   1.590  0.4351  0.2545  0.6882
 8605TIP3   OH247305   0.137   2.283  43.812  0.1780  0.1661 -0.6252
 8605TIP3    H147306   0.137   2.210  43.874  0.1894  1.1234  0.5321
 8605TIP3    H247307   0.230   2.307  43.804 -0.0066  1.7346  1.1012
 8606TIP3   OH247308   0.196   0.520  49.972  0.2222  0.6324 -0.2643
 8606TIP3    H147309   0.190   0.426  49.986  0.1575  0.6020 -0.4912
 8606TIP3    H247310   0.220   0.556  50.057  0.6237  0.3716 -0.2703
 8607TIP3   OH247311   1.169   2.398  60.412 -0.7379 -0.1552 -0.5401
 8607TIP3    H147312   1.190   2.442  60.329  0.3279  1.4319  0.5132
 8607TIP3    H247313   1.213   2.451  60.478 -0.1194 -2.3613  0.9058
 8608TIP3   OH247314   0.410   1.776  44.193  0.3839  0.1822  0.3160
 8608TIP3    H147315   0.455   1.706  44.241  1.4619 -0.0022 -0.9369
 8608TIP3    H247316   0.320   1.745  44.185  0.5840 -0.5361  0.7696
 8609TIP3   OH247317   3.260   3.290  43.961  0.0426 -0.9147  0.0241
 8609TIP3    H147318   3.227   3.218  44.015 -0.4298 -1.2672 -0.7221
 8609TIP3    H247319   3.181   3.330  43.923  0.3100 -0.0975  0.3058
 8610TIP3   OH247320   2.072   2.180  48.238  0.1048 -0.5413 -0.0238
 8610TIP3    H147321   2.158   2.167  48.197 -0.3354  0.3092 -1.2802
 8610TIP3    H247322   2.091   2.226  48.319  0.8283 -0.0784 -0.4457
 8611TIP3   OH247323   0.703   0.776   4.141  0.2870  0.0503  0.1075
 8611TIP3    H147324   0.720   0.683   4.127  0.6394  0.1217  0.0631
 8611TIP3    H247325   0.673   0.808   4.055 -0.4021 -0.1451  0.2701
 8612TIP3   OH247326   2.836   0.396  65.354 -0.3684 -0.6619  0.0523
 8612TIP3    H147327   2.800   0.410  65.266  0.2446  0.1036 -0.0855
 8612TIP3    H247328   2.807   0.471  65.405 -2.8962 -2.3304  1.2758
 8613TIP3   OH247329   1.621   3.161  19.297  0.4686  0.4141 -0.3144
 8613TIP3    H147330   1.630   3.077  19.250 -0.1087 -0.8607  1.7387
 8613TIP3    H247331   1.711   3.187  19.316  0.6529  0.3016 -0.9794
 8614TIP3   OH247332   0.971   3.131  52.791  0.0934 -0.1837  0.3337
 8614TIP3    H147333   1.003   3.047  52.757  0.1044  0.2606 -0.8149
 8614TIP3    H247334   1.024   3.197  52.745  1.0297  0.4417  2.2248
 8615TIP3   OH247335   1.472   1.753  19.643 -0.6986 -0.4906 -0.5770
 8615TIP3    H147336   1.560   1.765  19.680 -0.7824 -0.6134 -0.3392
 8615TIP3    H247337   1.462   1.825  19.581 -0.3296 -0.6229 -0.7910
 8616TIP3   OH247338   3.407   1.675  14.574  0.1991 -0.1255  1.0895
 8616TIP3    H147339   3.418   1.762  14.534  0.9767  0.3164  2.2141
 8616TIP3    H247340   3.315   1.652  14.557  0.6343 -0.2491 -1.4653
 8617TIP3   OH247341   1.281   3.396  50.819  0.7217 -0.1552 -0.1673
 8617TIP3    H147342   1.229   3.390  50.739  0.4401 -0.1566  0.0188
 8617TIP3    H247343   1.321   3.309  50.828  1.2993  0.0494 -0.6767
 8618TIP3   OH247344   1.854   1.906  57.719 -0.0751 -0.0027  0.0865
 8618TIP3    H147345   1.944   1.934  57.734  0.3170 -0.2418 -1.5733
 8618TIP3    H247346   1.861   1.834  57.656 -1.3706 -0.6649  0.6551
 8619TIP3   OH247347   2.159   0.014  59.088  0.2147 -0.0765  0.1532
 8619TIP3    H147348   2.216   0.089  59.073 -0.3587  0.3468  0.0428
 8619TIP3    H247349   2.085   0.050  59.138 -1.9801  0.2883 -3.0954
 8620TIP3   OH247350   0.831   2.788  65.207  0.4331 -0.5805  0.1861
 8620TIP3    H147351   0.884   2.858  65.168  2.1858 -0.8206  1.9958
 8620TIP3    H247352   0.826   2.721  65.139  0.9342  0.2239 -0.6647
 8621TIP3   OH247353   0.871   0.880  63.309 -0.7175 -0.0741 -0.3576
 8621TIP3    H147354   0.848   0.956  63.363  1.1686  1.9906 -2.2097
 8621TIP3    H247355   0.797   0.873  63.247 -1.2644 -0.2485  0.3063
 8622TIP3   OH247356   2.867   0.696  13.012  0.1695  0.2306 -0.5303
 8622TIP3    H147357   2.934   0.628  13.004  0.7433  0.9388 -2.2094
 8622TIP3    H247358   2.916   0.777  13.020 -0.4534  0.7245 -1.4941
 8623TIP3   OH247359   2.836   3.018  52.918 -0.7696 -0.3261 -0.0502
 8623TIP3    H147360   2.760   3.036  52.862  0.8626  1.0252 -1.9628
 8623TIP3    H247361   2.905   3.074  52.884  0.9915 -1.1444  1.9323
 8624TIP3   OH247362   0.870   3.276  38.242 -0.2967  0.1012  0.0416
 8624TIP3    H147363   0.900   3.233  38.162  1.7727 -0.2395  0.9349
 8624TIP3    H247364   0.817   3.210  38.286 -0.0421 -0.3171 -0.2628
 8625TIP3   OH247365   3.387   2.344  47.211  0.0350 -0.0450 -0.3345
 8625TIP3    H147366   3.328   2.415  47.237 -0.7155  0.0751 -2.2045
 8625TIP3    H247367   3.447   2.334  47.285 -1.0327  1.2445  0.7535
 8626TIP3   OH247368   2.129   1.782  15.940 -0.3605 -0.0448 -0.3358
 8626TIP3    H147369   2.138   1.857  16.000 -0.5235  0.3924 -0.8469
 8626TIP3    H247370   2.219   1.755  15.923 -0.1867  1.1886 -1.5592
 8627TIP3   OH247371   1.347   0.756  12.410 -0.0265 -0.1460  0.9090
 8627TIP3    H147372   1.328   0.663  12.427 -0.0156  0.0415  2.0390
 8627TIP3    H247373   1.381   0.757  12.321 -1.2467 -1.0591  0.3986
 8628TIP3   OH247374   0.912   2.298   5.674 -0.0399  0.6209 -0.0845
 8628TIP3    H147375   0.863   2.347   5.609 -0.4272 -0.6153 -0.7461
 8628TIP3    H247376   1.002   2.296   5.640  0.2526  1.8528  0.5374
 8629TIP3   OH247377   2.692   1.389   7.155 -0.0115 -0.2354  0.1700
 8629TIP3    H147378   2.721   1.388   7.246 -2.3632 -1.0158  0.9947
 8629TIP3    H247379   2.640   1.470   7.147  0.2317 -0.1344 -0.5179
 8630TIP3   OH247380   1.603   0.124  11.328  0.2963 -0.5967 -0.3540
 8630TIP3    H147381   1.510   0.109  11.314 -0.0126 -0.2839  1.1053
 8630TIP3    H247382   1.617   0.105  11.421  1.3491  0.8832 -0.1550
 8631TIP3   OH247383   0.814   1.289   8.021 -0.7306 -0.0401 -0.1503
 8631TIP3    H147384   0.891   1.329   7.980 -0.1066 -0.9497  0.1069
 8631TIP3    H247385   0.796   1.212   7.968 -0.2988 -0.8795  0.8847
 8632TIP3   OH247386   2.332   1.964   3.149 -0.4168 -0.1055 -0.1853
 8632TIP3    H147387   2.270   1.902   3.186 -0.7656  1.1288  1.4666
 8632TIP3    H247388   2.371   1.919   3.075 -0.8613 -2.1620  0.7691
 8633TIP3   OH247389   2.421   1.513  27.724  0.0757 -0.2769  0.0219
 8633TIP3    H147390   2.424   1.422  27.693 -1.6450  0.5993 -3.1964
 8633TIP3    H247391   2.512   1.538  27.737  0.9320 -1.2109 -3.3881
 8634TIP3   OH247392   2.755   2.822  66.963 -0.1673 -0.8316  0.0150
 8634TIP3    H147393   2.754   2.917  66.958  1.4656 -0.8169 -0.6866
 8634TIP3    H247394   2.663   2.797  66.965 -0.6880  0.8596  2.7813
 8635TIP3   OH247395   0.468   0.178  33.622 -0.4165  0.1025  0.0924
 8635TIP3    H147396   0.468   0.271  33.599  0.2280  0.4022  1.1983
 8635TIP3    H247397   0.547   0.167  33.676 -0.4093 -1.1186 -0.1378
 8636TIP3   OH247398   1.215   0.776  35.826  0.1516 -0.1811 -0.5981
 8636TIP3    H147399   1.210   0.791  35.732 -0.1437  0.1985 -0.5243
 8636TIP3    H247400   1.245   0.686  35.835 -0.7449 -0.5341 -1.0529
 8637TIP3   OH247401   1.118   2.219  44.631 -0.0160  0.8297 -0.4854
 8637TIP3    H147402   1.093   2.305  44.598  0.9803  0.6987 -1.6459
 8637TIP3    H247403   1.124   2.231  44.726  1.1832  2.3541 -0.7120
 8638TIP3   OH247404   1.669   0.785  47.060  0.4491  0.7420 -0.4576
 8638TIP3    H147405   1.706   0.864  47.098  2.1311 -0.1545 -0.1372
 8638TIP3    H247406   1.704   0.783  46.971  1.2410 -0.1265 -0.1443
 8639TIP3   OH247407   2.500   1.933  19.302 -0.0703 -0.2558 -0.1192
 8639TIP3    H147408   2.410   1.965  19.308 -0.8470 -2.4262  1.1255
 8639TIP3    H247409   2.529   1.959  19.215 -2.3099 -0.4525 -1.0047
 8640TIP3   OH247410   0.717   0.134  52.633 -0.1970  0.9857  0.2219
 8640TIP3    H147411   0.636   0.175  52.662  0.0990  1.9174 -0.2251
 8640TIP3    H247412   0.723   0.053  52.683 -1.8906  0.4212 -0.4403
 8641TIP3   OH247413   2.138   3.112  55.313 -0.0391  0.1000  0.2812
 8641TIP3    H147414   2.186   3.037  55.277 -1.1917 -0.8750  0.6916
 8641TIP3    H247415   2.102   3.156  55.235  0.9881  0.4965  0.0134
 8642TIP3   OH247416   1.061   1.852  45.979 -0.1584 -0.0601  0.1954
 8642TIP3    H147417   1.062   1.781  46.043  1.6769 -0.8666 -0.6520
 8642TIP3    H247418   1.074   1.931  46.032  2.6116 -0.8127  0.8177
 8643TIP3   OH247419   1.689   0.618  15.302 -0.5170  0.1092 -0.5788
 8643TIP3    H147420   1.724   0.649  15.385  0.3668 -1.7901 -0.1961
 8643TIP3    H247421   1.632   0.689  15.272 -1.6175  0.4629  2.1008
 8644TIP3   OH247422   0.782   0.133  60.967 -0.2410  0.3264 -0.4198
 8644TIP3    H147423   0.815   0.200  61.027  0.0072 -0.4530  0.3291
 8644TIP3    H247424   0.772   0.055  61.021  2.3374 -1.1236 -1.8540
 8645TIP3   OH247425   2.098   3.295  16.662 -0.8915  0.0660 -0.0740
 8645TIP3    H147426   2.028   3.248  16.706 -0.9039  0.3084  0.1704
 8645TIP3    H247427   2.085   3.277  16.569 -0.6050 -0.8118  0.0510
 8646TIP3   OH247428   3.269   0.984  46.460  0.0500  0.3668 -0.4780
 8646TIP3    H147429   3.226   0.899  46.456  1.3544 -0.5535  2.3317
 8646TIP3    H247430   3.358   0.965  46.489  1.0369  2.5481 -1.8260
 8647TIP3   OH247431   3.179   0.123   6.125 -0.2652  1.2715  0.5682
 8647TIP3    H147432   3.136   0.150   6.044 -0.8282 -0.6308  0.1719
 8647TIP3    H247433   3.133   0.171   6.194 -0.0539  2.5995 -0.1868
 8648TIP3   OH247434   1.261   0.408   8.542  0.5649 -0.0444  0.5634
 8648TIP3    H147435   1.177   0.379   8.505  1.2638 -1.2800 -0.1414
 8648TIP3    H247436   1.248   0.501   8.561 -0.9116 -0.1698  0.3318
 8649TIP3   OH247437   0.564   1.265  52.537 -0.4119 -0.3544 -1.2945
 8649TIP3    H147438   0.576   1.185  52.485  2.1985 -1.3258  0.5186
 8649TIP3    H247439   0.480   1.253  52.581 -0.6586 -1.5278 -2.0378
 8650TIP3   OH247440   0.325   0.207  67.196 -1.0556  0.7861 -0.3032
 8650TIP3    H147441   0.237   0.174  67.213 -1.2516  0.9801 -0.8847
 8650TIP3    H247442   0.364   0.218  67.282 -0.5452 -2.0511 -0.0770
 8651TIP3   OH247443   0.830   2.055  35.755 -0.0075 -0.1402 -0.2386
 8651TIP3    H147444   0.912   2.007  35.744  0.1657  0.1557 -0.2479
 8651TIP3    H247445   0.787   2.010  35.828 -0.1382 -0.7007 -0.6502
 8652TIP3   OH247446   2.075   2.452  64.977 -0.6378 -0.3221 -0.5808
 8652TIP3    H147447   2.169   2.467  64.990 -0.8452  0.5098  0.1167
 8652TIP3    H247448   2.044   2.533  64.935 -1.0702 -0.5259 -0.6526
 8653TIP3   OH247449   0.169   1.032  41.946  0.3455  0.2481 -0.2061
 8653TIP3    H147450   0.153   1.026  41.852  0.5960  0.6866 -0.2813
 8653TIP3    H247451   0.192   1.123  41.961 -0.9800  0.4961  0.4870
 8654TIP3   OH247452   0.450   2.188  67.066  0.1034 -0.2260  0.3588
 8654TIP3    H147453   0.424   2.112  67.015  1.1113 -0.2990 -0.0717
 8654TIP3    H247454   0.463   2.154  67.155 -1.9358 -0.0413  0.7736
 8655TIP3   OH247455   0.855   2.322  10.081  0.0066 -0.2439  0.3343
 8655TIP3    H147456   0.844   2.351   9.990  2.4526  0.3628  0.1764
 8655TIP3    H247457   0.849   2.226  10.076  1.3491 -0.3057 -0.7111
 8656TIP3   OH247458   2.320   2.679  43.415  0.4332 -0.0110 -0.5254
 8656TIP3    H147459   2.291   2.748  43.475 -3.4018 -1.5560 -0.2878
 8656TIP3    H247460   2.380   2.626  43.468  1.3832  1.6509  0.1287
 8657TIP3   OH247461   0.081   3.031  20.854 -0.2091 -0.1785  0.4585
 8657TIP3    H147462   0.030   2.950  20.845 -0.0482 -0.2145 -0.1176
 8657TIP3    H247463   0.063   3.080  20.774  0.9453 -0.3513  0.0883
 8658TIP3   OH247464   0.231   2.573  20.970 -0.0520 -0.2781  0.4796
 8658TIP3    H147465   0.139   2.556  20.986 -0.1238 -1.2106 -0.7297
 8658TIP3    H247466   0.232   2.650  20.913 -0.0740 -0.2528  0.5146
 8659TIP3   OH247467   3.335   2.826   2.563 -0.1800  0.2842  0.6341
 8659TIP3    H147468   3.243   2.805   2.575 -0.9612  2.0167 -1.6066
 8659TIP3    H247469   3.357   2.789   2.477 -0.3188  4.0832 -1.2405
 8660TIP3   OH247470   0.076   0.664  12.164  0.4070 -0.2154  0.0537
 8660TIP3    H147471   0.134   0.616  12.105  0.2387  0.7413 -0.9251
 8660TIP3    H247472   0.009   0.601  12.188  0.2328 -0.5168 -1.1380
 8661TIP3   OH247473   2.288   2.793  42.170 -0.3945 -0.4921 -0.0308
 8661TIP3    H147474   2.361   2.813  42.229  0.9070 -1.2523 -1.3180
 8661TIP3    H247475   2.212   2.782  42.228  0.6314 -0.2734  1.4021
 8662TIP3   OH247476   0.705   3.155  47.691  0.3674  0.5845 -0.1800
 8662TIP3    H147477   0.781   3.172  47.748  0.2352 -1.7033  0.7745
 8662TIP3    H247478   0.630   3.158  47.750  0.3405 -3.0332  0.1442
 8663TIP3   OH247479   2.812   0.454  59.063  0.0029  0.2688 -0.7169
 8663TIP3    H147480   2.750   0.412  59.121  2.0375 -0.0998  1.3519
 8663TIP3    H247481   2.762   0.524  59.020 -2.2962 -1.3382 -0.8278
 8664TIP3   OH247482   1.977   0.718   2.625 -0.5668  0.0609 -0.0250
 8664TIP3    H147483   2.026   0.755   2.698 -0.2184 -0.4679  0.0129
 8664TIP3    H247484   1.923   0.791   2.593  0.4126  0.7149 -0.2232
 8665TIP3   OH247485   0.304   0.246   5.246  0.0889  0.0737 -0.4112
 8665TIP3    H147486   0.374   0.224   5.184 -0.3883  0.6246 -1.1588
 8665TIP3    H247487   0.338   0.218   5.330  1.3794  0.6611 -0.7006
 8666TIP3   OH247488   2.815   2.883  15.616 -0.5440 -0.3342 -0.0075
 8666TIP3    H147489   2.883   2.868  15.682 -0.1788 -1.8248 -0.6988
 8666TIP3    H247490   2.763   2.803  15.615 -1.0884  0.0097 -0.9118
 8667TIP3   OH247491   1.089   0.338   2.987 -0.3747  0.6545 -0.1049
 8667TIP3    H147492   1.079   0.283   2.909 -0.0030  1.2189 -0.5613
 8667TIP3    H247493   1.082   0.428   2.954  1.8034  0.9942  0.1520
 8668TIP3   OH247494   3.212   2.096  28.421  0.2220 -0.0890  0.3084
 8668TIP3    H147495   3.266   2.174  28.408  0.5112  0.4520  3.6699
 8668TIP3    H247496   3.243   2.034  28.356  4.2887  0.5647  1.3333
 8669TIP3   OH247497   2.451   2.553   8.993  0.1310  0.3405 -0.2060
 8669TIP3    H147498   2.533   2.589   9.028 -0.1880  0.5048  0.3876
 8669TIP3    H247499   2.410   2.509   9.068  1.3514 -2.8962 -1.2531
 8670TIP3   OH247500   3.176   0.819  61.276  0.4358  0.4743 -0.2609
 8670TIP3    H147501   3.092   0.805  61.320  0.2625  1.5855 -0.1910
 8670TIP3    H247502   3.224   0.877  61.335  1.0174  0.3288 -0.5861
 8671TIP3   OH247503   3.186   1.668  54.402  0.1485  0.6749 -0.2162
 8671TIP3    H147504   3.119   1.736  54.402  1.6310  2.2890  1.7303
 8671TIP3    H247505   3.181   1.629  54.489 -0.4870 -1.6198 -1.2098
 8672TIP3   OH247506   3.189   2.191  22.767  0.4052 -0.4797 -0.3245
 8672TIP3    H147507   3.161   2.229  22.684  0.1326  2.1239  0.8710
 8672TIP3    H247508   3.279   2.221  22.778  0.2550 -0.3294  0.5649
 8673TIP3   OH247509   0.744   2.449  11.079  0.6246 -0.6775 -0.2601
 8673TIP3    H147510   0.711   2.375  11.027  1.1759 -0.0291 -1.5802
 8673TIP3    H247511   0.834   2.425  11.101  0.8979 -0.2874 -0.9329
 8674TIP3   OH247512   3.158   2.410  55.423 -0.1806  0.3208  0.3582
 8674TIP3    H147513   3.117   2.473  55.482 -0.2508  1.4240 -0.8159
 8674TIP3    H247514   3.175   2.333  55.477 -1.0430  0.9627  1.5828
 8675TIP3   OH247515   0.181   0.877   8.359 -0.4455  0.1453  0.0623
 8675TIP3    H147516   0.177   0.791   8.399  0.3423  0.0225 -0.1199
 8675TIP3    H247517   0.224   0.932   8.424  3.8947 -0.7636 -1.7315
 8676TIP3   OH247518   2.111   0.695  15.968  0.7459 -0.0651 -0.0561
 8676TIP3    H147519   2.148   0.608  15.953  2.0455  0.4822 -0.0906
 8676TIP3    H247520   2.039   0.680  16.030  2.0447 -0.9497  1.3075
 8677TIP3   OH247521   2.373   2.203  47.946 -0.3292  0.1892 -0.8446
 8677TIP3    H147522   2.302   2.231  47.888 -0.3348  0.8108 -0.5461
 8677TIP3    H247523   2.392   2.113  47.919 -1.0436  0.1096 -1.1044
 8678TIP3   OH247524   2.018   1.125  20.192 -0.1579  0.8346 -0.6167
 8678TIP3    H147525   2.000   1.218  20.206 -0.4972  0.6578  0.1467
 8678TIP3    H247526   1.986   1.109  20.103 -4.3095  0.4687  0.7119
 8679TIP3   OH247527   1.386   3.224  43.029 -0.1195 -0.1053  0.3327
 8679TIP3    H147528   1.414   3.182  42.948  0.4164 -3.5966  2.1411
 8679TIP3    H247529   1.291   3.217  43.028 -0.0505 -1.1326  0.4678
 8680TIP3   OH247530   0.988   3.313  18.000  0.7107  0.1507 -0.3927
 8680TIP3    H147531   1.029   3.374  18.062 -0.5332 -0.8373  1.5199
 8680TIP3    H247532   1.039   3.323  17.920  1.0729  3.0415  0.0949
 8681TIP3   OH247533   1.952   2.207  47.160 -0.1527  0.0230 -0.4249
 8681TIP3    H147534   1.878   2.150  47.138 -0.0671 -0.9536  1.5776
 8681TIP3    H247535   1.922   2.257  47.235  1.5177 -1.1617  1.1144
 8682TIP3   OH247536   1.694   2.320   2.444  0.2337 -0.1401 -0.0901
 8682TIP3    H147537   1.643   2.397   2.469  0.6221  0.0334  0.1751
 8682TIP3    H247538   1.640   2.245   2.471  0.4333  0.0424  0.8441
 8683TIP3   OH247539   3.244   0.725  18.847  0.2926 -0.7519 -0.1040
 8683TIP3    H147540   3.306   0.654  18.864 -0.0209 -0.8364  0.7623
 8683TIP3    H247541   3.195   0.734  18.929 -1.5640 -1.3773 -1.0898
 8684TIP3   OH247542   1.970   2.076  53.156  0.3507 -0.0614  0.0827
 8684TIP3    H147543   2.063   2.097  53.149  0.6923 -1.0914  1.1464
 8684TIP3    H247544   1.968   1.982  53.177 -0.9252 -0.0525  0.0928
 8685TIP3   OH247545   3.325   1.544   4.698 -0.5471  0.0237  0.1040
 8685TIP3    H147546   3.372   1.473   4.741 -0.4866  0.9363  1.5927
 8685TIP3    H247547   3.257   1.570   4.760 -0.6459  1.1795 -0.4630
 8686TIP3   OH247548   1.662   1.286  52.948  0.1849 -0.4602  0.5096
 8686TIP3    H147549   1.608   1.208  52.938  0.1596 -0.3171 -0.5076
 8686TIP3    H247550   1.722   1.284  52.874  0.1762  0.5018  0.4594
 8687TIP3   OH247551   0.822   0.031  14.512 -0.6193 -0.2344  0.2710
 8687TIP3    H147552   0.888   0.018  14.580  0.1087 -2.9476 -0.8238
 8687TIP3    H247553   0.741  -0.002  14.551 -0.0214 -2.6623 -0.3780
 8688TIP3   OH247554   3.265   1.414   8.510  0.0100  0.6268 -0.0398
 8688TIP3    H147555   3.179   1.425   8.470  1.0728 -0.9298 -3.0594
 8688TIP3    H247556   3.314   1.492   8.482  0.8617 -0.6299 -2.2750
 8689TIP3   OH247557   0.008   1.611  43.247 -0.2244  0.0780 -0.0114
 8689TIP3    H147558  -0.060   1.586  43.310 -0.9368  2.8038  0.4229
 8689TIP3    H247559   0.090   1.597  43.294 -0.4017 -2.6409 -0.3155
 8690TIP3   OH247560   1.950   2.757  62.975 -0.0785 -0.2157 -0.5327
 8690TIP3    H147561   1.902   2.709  62.908 -0.1669 -0.0362 -0.5983
 8690TIP3    H247562   1.983   2.835  62.930  0.4355 -0.4320 -0.5308
 8691TIP3   OH247563   1.151   1.043  17.016 -0.0373  0.2718  0.2747
 8691TIP3    H147564   1.159   1.133  16.984  1.3044  0.2079  0.3550
 8691TIP3    H247565   1.109   1.052  17.102 -1.8356  0.6131 -0.6036
 8692TIP3   OH247566   2.950   2.299  17.676  0.1188 -0.2530  0.0605
 8692TIP3    H147567   2.931   2.380  17.724  0.1911 -0.0068 -0.3235
 8692TIP3    H247568   3.008   2.326  17.605 -1.2736 -0.3296 -1.1501
 8693TIP3   OH247569   0.849   1.325  12.477  0.1707 -0.2479  0.0124
 8693TIP3    H147570   0.845   1.316  12.572 -0.0773 -0.5085 -0.0233
 8693TIP3    H247571   0.880   1.240  12.446 -0.9548 -0.5852 -0.2292
 8694TIP3   OH247572   3.322   1.727   1.269 -0.7989 -0.6469  0.0143
 8694TIP3    H147573   3.298   1.637   1.251  1.4512 -1.3037 -0.0175
 8694TIP3    H247574   3.268   1.753   1.344 -2.9979 -1.2569 -1.2863
 8695TIP3   OH247575   2.802   1.564  54.788 -0.2056 -0.8211 -0.0730
 8695TIP3    H147576   2.818   1.540  54.697  0.8716 -0.6507  0.0581
 8695TIP3    H247577   2.852   1.645  54.800 -1.1721 -0.2780  0.3963
 8696TIP3   OH247578   3.067   0.658  54.298 -0.7805 -0.2804  0.3861
 8696TIP3    H147579   3.129   0.668  54.225  1.6321 -0.3942  2.2761
 8696TIP3    H247580   3.027   0.744  54.308  0.2590  0.2619  0.0567
 8697TIP3   OH247581   2.984   0.433  11.078  0.5641  0.1124 -0.0106
 8697TIP3    H147582   3.031   0.438  11.161 -1.1468  0.8289  0.9733
 8697TIP3    H247583   2.919   0.503  11.083 -0.4324 -0.6635 -1.3883
 8698TIP3   OH247584   0.646   3.417  56.485 -0.1477  0.3172  0.3374
 8698TIP3    H147585   0.621   3.417  56.393  1.9380  0.6780 -0.2841
 8698TIP3    H247586   0.712   3.486  56.492  0.1619 -0.1001  1.9801
 8699TIP3   OH247587   2.835   0.454   3.029  0.2142  0.1737 -0.2331
 8699TIP3    H147588   2.771   0.495   3.087  1.6404 -0.0596  1.6019
 8699TIP3    H247589   2.919   0.488   3.060  1.0765 -0.4933 -1.7586
 8700TIP3   OH247590   1.192   1.429   2.893  0.3282 -0.3557 -0.2855
 8700TIP3    H147591   1.264   1.429   2.956 -0.2355  1.8173  0.4605
 8700TIP3    H247592   1.218   1.493   2.826 -0.7235  0.2048 -0.1856
 8701TIP3   OH247593   1.757   1.660  54.127 -0.1783 -0.1643  0.1656
 8701TIP3    H147594   1.780   1.751  54.141  0.1920 -0.3010  0.4493
 8701TIP3    H247595   1.777   1.617  54.210 -0.2372 -0.5256 -0.0047
 8702TIP3   OH247596   0.907   0.547   6.422 -0.6379 -0.1507  0.0978
 8702TIP3    H147597   0.909   0.506   6.508 -1.8689  0.0696  0.2553
 8702TIP3    H247598   0.814   0.553   6.401 -0.5227  2.3231 -0.0062
 8703TIP3   OH247599   1.213   3.102  18.724 -0.1835 -0.1962 -0.6211
 8703TIP3    H147600   1.125   3.070  18.703 -0.8137  0.3897  0.9682
 8703TIP3    H247601   1.251   3.033  18.778 -0.3770  0.3435  0.2243
 8704TIP3   OH247602   1.396   2.706   4.158  0.7167  0.1611  0.0539
 8704TIP3    H147603   1.412   2.794   4.192  0.1134  0.3821 -0.2244
 8704TIP3    H247604   1.302   2.694   4.166  0.6501 -0.0413 -0.9106
 8705TIP3   OH247605   1.272   3.134  60.176  0.0650  0.1063  0.0930
 8705TIP3    H147606   1.259   3.130  60.271  0.2450 -0.1069  0.1120
 8705TIP3    H247607   1.358   3.176  60.166 -1.0882  2.6362 -0.0513
 8706TIP3   OH247608   1.491   1.076  44.427  0.2680 -0.2470  0.5429
 8706TIP3    H147609   1.560   1.095  44.491  0.8885 -2.7312  0.7405
 8706TIP3    H247610   1.498   0.982  44.413 -2.2084 -0.3385 -0.5102
 8707TIP3   OH247611   0.802   2.606  43.710  0.4538  0.3540  0.2471
 8707TIP3    H147612   0.804   2.567  43.798 -0.6326  0.4674  0.3284
 8707TIP3    H247613   0.836   2.537  43.653 -0.1112 -0.2062  0.5798
 8708TIP3   OH247614   2.155   1.219  47.131  0.0654  0.3758  0.2876
 8708TIP3    H147615   2.100   1.181  47.063  1.2743 -0.6288 -0.1630
 8708TIP3    H247616   2.107   1.202  47.212  0.6160 -2.2983  0.1218
 8709TIP3   OH247617   0.132   1.548  12.191 -0.3814  0.1140  0.2003
 8709TIP3    H147618   0.118   1.454  12.180  2.5005 -0.3855  0.0043
 8709TIP3    H247619   0.142   1.582  12.102 -0.0161  0.3179  0.3123
 8710TIP3   OH247620   3.067   1.167  60.182 -0.4237 -0.8726 -0.3758
 8710TIP3    H147621   3.081   1.136  60.271  1.4353  0.0736 -0.2835
 8710TIP3    H247622   3.003   1.106  60.145 -3.1754  0.1351  2.3071
 8711TIP3   OH247623   3.205   1.337  45.185  0.2676 -0.8860  0.1903
 8711TIP3    H147624   3.119   1.381  45.184  0.1809 -1.0429 -1.3669
 8711TIP3    H247625   3.243   1.361  45.270 -1.9615 -2.1193  1.6345
 8712TIP3   OH247626   0.549   3.236  15.536  0.0492  0.5993  0.0707
 8712TIP3    H147627   0.495   3.190  15.599  0.0526  0.3915 -0.0773
 8712TIP3    H247628   0.488   3.261  15.466 -0.0977  1.4672  0.4931
 8713TIP3   OH247629   0.136   0.484   5.266  0.2063  0.0395  0.0641
 8713TIP3    H147630   0.192   0.409   5.285 -0.0254  0.2606  1.8735
 8713TIP3    H247631   0.148   0.501   5.173  0.7660 -1.8225 -0.2517
 8714TIP3   OH247632   0.193   1.551   4.516 -0.6478  0.2158 -0.4743
 8714TIP3    H147633   0.254   1.478   4.524 -0.3782  0.5263  0.4178
 8714TIP3    H247634   0.124   1.519   4.457 -0.4667 -0.7073 -0.1911
 8715TIP3   OH247635   2.282   0.082   1.298 -0.7216 -0.1956 -0.1353
 8715TIP3    H147636   2.205   0.125   1.262 -0.9691  0.4861  1.1138
 8715TIP3    H247637   2.316   0.145   1.362 -0.0246 -1.1194  0.4381
 8716TIP3   OH247638   0.041   0.014  55.537  0.1934  0.2164 -0.5827
 8716TIP3    H147639   0.113  -0.041  55.506 -0.6897 -0.3368 -1.7021
 8716TIP3    H247640   0.057   0.024  55.631  1.9342  0.4205 -0.8655
 8717TIP3   OH247641   3.389   3.140   7.462  0.0938  0.1945  0.1653
 8717TIP3    H147642   3.330   3.096   7.523 -0.2641 -0.1632 -0.4266
 8717TIP3    H247643   3.431   3.209   7.514  1.4605 -1.5033  1.3964
 8718TIP3   OH247644   1.265   0.504  10.634 -0.2073  0.0975  0.6178
 8718TIP3    H147645   1.237   0.455  10.712  1.3017  0.1993  1.2625
 8718TIP3    H247646   1.349   0.464  10.610 -0.2062  0.6897 -0.3905
 8719TIP3   OH247647   0.388   3.344  54.772  0.1182  0.3587  0.0878
 8719TIP3    H147648   0.337   3.283  54.825  1.1452 -0.0350  0.6577
 8719TIP3    H247649   0.474   3.345  54.813  0.4573  1.3190 -0.6076
 8720TIP3   OH247650   1.037   0.629  47.883 -0.2204 -0.5033 -0.2692
 8720TIP3    H147651   1.050   0.652  47.974 -1.0983  0.0934 -0.2781
 8720TIP3    H247652   1.123   0.642  47.842 -0.1747  0.7044  0.1681
 8721TIP3   OH247653   1.373   2.077  39.013  0.3687 -0.7326  0.2324
 8721TIP3    H147654   1.343   2.168  39.021  2.3064 -0.1230  1.2364
 8721TIP3    H247655   1.297   2.025  39.038 -1.2568  0.5089 -1.8095
 8722TIP3   OH247656   2.157   0.211  19.940 -0.5089 -0.0036 -0.2943
 8722TIP3    H147657   2.092   0.245  20.001 -0.5508 -1.2936  0.4201
 8722TIP3    H247658   2.191   0.289  19.894  0.0620  1.1229  1.8903
 8723TIP3   OH247659   2.351   3.296  64.429 -0.9480 -0.1629 -0.7161
 8723TIP3    H147660   2.327   3.320  64.518  1.1115  0.4713 -0.2642
 8723TIP3    H247661   2.376   3.204  64.435 -1.1413 -0.2139 -0.7036
 8724TIP3   OH247662   1.531   0.417  21.682  0.1500 -0.5478 -0.4469
 8724TIP3    H147663   1.578   0.335  21.665 -1.8060 -1.6758 -0.7891
 8724TIP3    H247664   1.441   0.398  21.655 -1.2157  0.4545  2.8618
 8725TIP3   OH247665   0.005   1.372  48.974 -0.2773  0.4413 -0.4813
 8725TIP3    H147666   0.074   1.313  48.945  0.5030  0.9312  0.3274
 8725TIP3    H247667  -0.027   1.413  48.893  0.9727  0.8384 -0.8007
 8726TIP3   OH247668   2.971   1.133   8.581  0.3162  0.2141 -0.2553
 8726TIP3    H147669   2.964   1.086   8.664  0.1419  1.6953  0.5911
 8726TIP3    H247670   3.036   1.084   8.531  0.0059 -1.0279  0.5127
 8727TIP3   OH247671   0.572   0.114  13.085  0.3166  0.5945 -0.2033
 8727TIP3    H147672   0.660   0.090  13.115  0.2132  0.5247  0.0400
 8727TIP3    H247673   0.584   0.134  12.992  0.6688  0.9793 -0.0819
 8728TIP3   OH247674   1.748   2.581   6.171 -0.2366  0.0377 -0.2387
 8728TIP3    H147675   1.763   2.508   6.232  0.3498  0.0297 -0.3891
 8728TIP3    H247676   1.656   2.604   6.183 -0.1003  0.0989  0.7211
 8729TIP3   OH247677   0.619   0.278  64.524  0.0387 -0.1916 -0.4565
 8729TIP3    H147678   0.539   0.271  64.576 -0.7817 -0.4958 -1.7176
 8729TIP3    H247679   0.612   0.361  64.478 -0.1409 -0.7449 -1.4723
 8730TIP3   OH247680   0.716   2.651  14.812 -0.9395 -0.4988  0.1372
 8730TIP3    H147681   0.756   2.730  14.775  0.1493 -0.9211  0.3766
 8730TIP3    H247682   0.711   2.669  14.906 -0.9314 -0.6074  0.1581
 8731TIP3   OH247683   2.032   2.994   0.507  0.8536  0.6387 -0.1306
 8731TIP3    H147684   2.076   3.067   0.551 -0.7430  1.4705  0.1539
 8731TIP3    H247685   1.940   3.022   0.500  0.5567 -0.6021 -1.6178
 8732TIP3   OH247686   0.103   2.238   5.889  0.9169  0.6254 -0.0090
 8732TIP3    H147687   0.197   2.240   5.873  1.0356 -0.3286  0.4638
 8732TIP3    H247688   0.094   2.195   5.974  0.0728  1.1177  0.1618
 8733TIP3   OH247689   0.849   2.455  52.845 -0.4578  0.6051  0.0795
 8733TIP3    H147690   0.786   2.501  52.789  0.4492  2.5105  0.5410
 8733TIP3    H247691   0.840   2.497  52.930 -1.2737 -1.7334  1.2307
 8734TIP3   OH247692   2.413   2.390  55.123  0.0031  0.5113  0.1315
 8734TIP3    H147693   2.370   2.316  55.166 -1.5482  0.7447 -0.9335
 8734TIP3    H247694   2.352   2.416  55.054  1.2776  1.7433 -0.5685
 8735TIP3   OH247695   1.643   1.644   3.489  0.9051  0.0839 -0.3938
 8735TIP3    H147696   1.655   1.644   3.584  1.5237 -0.5744 -0.4626
 8735TIP3    H247697   1.634   1.551   3.466  1.1105  0.2110 -1.0160
 8736TIP3   OH247698   0.427   0.764   5.801 -0.3698 -0.0205 -0.4305
 8736TIP3    H147699   0.495   0.713   5.756 -0.0986  0.2643 -0.3513
 8736TIP3    H247700   0.350   0.757   5.744 -0.6632 -1.4056  0.1167
 8737TIP3   OH247701   3.187   0.926  65.437 -0.2794 -0.0984  0.0156
 8737TIP3    H147702   3.196   0.833  65.418 -1.7451 -0.4606  0.8949
 8737TIP3    H247703   3.100   0.949  65.406 -0.2110  0.8019  0.4466
 8738TIP3   OH247704   1.730   1.307  54.278 -0.3136 -0.3379 -0.0537
 8738TIP3    H147705   1.655   1.326  54.222 -0.6965 -1.4005  0.0804
 8738TIP3    H247706   1.739   1.386  54.332 -1.5901 -0.3550  0.2144
 8739TIP3   OH247707   2.086   1.564  66.515  0.3963 -0.0989  0.5343
 8739TIP3    H147708   2.026   1.554  66.441 -0.0300 -2.3592  1.0991
 8739TIP3    H247709   2.033   1.605  66.583  1.0608  2.9238 -0.6354
 8740TIP3   OH247710   2.338   2.256  13.734  0.0331 -0.1305 -0.0031
 8740TIP3    H147711   2.334   2.267  13.639  0.6206 -0.8563 -0.1265
 8740TIP3    H247712   2.282   2.181  13.752 -0.7423  0.5220  0.3300
 8741TIP3   OH247713   0.735   0.528  62.970 -0.2994  0.6928  0.5234
 8741TIP3    H147714   0.733   0.613  63.013  0.2683  0.9666  0.0230
 8741TIP3    H247715   0.786   0.472  63.029 -0.7488  0.6731  0.8957
 8742TIP3   OH247716   1.214   1.713  47.224  0.3189  0.5879 -0.3680
 8742TIP3    H147717   1.306   1.685  47.222  0.8061  2.0587  0.1424
 8742TIP3    H247718   1.200   1.757  47.141 -0.8695 -2.2450 -1.8094
 8743TIP3   OH247719   3.176   1.713  47.610 -0.0521  0.0123 -0.5568
 8743TIP3    H147720   3.266   1.742  47.595 -0.0494 -0.7969 -2.4826
 8743TIP3    H247721   3.137   1.712  47.523 -0.3116 -4.6992 -0.6824
 8744TIP3   OH247722   1.201   3.335  53.265 -0.2874  0.3067  0.3050
 8744TIP3    H147723   1.261   3.307  53.335  1.3132  0.5833 -0.8914
 8744TIP3    H247724   1.129   3.272  53.268  1.4468 -1.8171 -0.0097
 8745TIP3   OH247725   0.573   0.155  20.944 -0.1088 -0.0119 -0.1265
 8745TIP3    H147726   0.578   0.120  21.033 -0.9526  0.1413 -0.0118
 8745TIP3    H247727   0.491   0.119  20.909 -0.8539  1.6044 -0.1088
 8746TIP3   OH247728   2.273   2.397  49.326 -0.8138 -0.5990  0.3668
 8746TIP3    H147729   2.259   2.335  49.254 -1.9011 -0.0127  0.0461
 8746TIP3    H247730   2.305   2.343  49.398 -0.6048 -1.3478 -0.2686
 8747TIP3   OH247731   0.957   3.181  17.095 -0.3843 -0.0085 -0.2840
 8747TIP3    H147732   1.044   3.187  17.135  0.0160  0.4626 -1.1818
 8747TIP3    H247733   0.946   3.265  17.051 -0.4150 -0.8204 -1.8986
 8748TIP3   OH247734   2.717   2.204  11.389  0.4116 -0.0083 -0.0729
 8748TIP3    H147735   2.731   2.132  11.450  0.7433  0.4510  0.3955
 8748TIP3    H247736   2.769   2.181  11.312 -0.1821 -0.6960 -0.2838
 8749TIP3   OH247737   1.176   0.228  57.008  0.3127  0.2132 -0.0067
 8749TIP3    H147738   1.193   0.189  57.093  0.7755 -0.7113 -0.5105
 8749TIP3    H247739   1.109   0.295  57.025  0.9586  0.5723  1.1909
 8750TIP3   OH247740   0.659   2.683  53.283 -0.4898 -0.6520  0.1958
 8750TIP3    H147741   0.636   2.606  53.335  0.7902 -0.8195  0.5442
 8750TIP3    H247742   0.577   2.710  53.242 -1.2085 -1.4468  1.0733
 8751TIP3   OH247743   2.272   0.027  57.625  0.6286  0.2309  0.1919
 8751TIP3    H147744   2.337  -0.043  57.626  1.0833  0.6428 -0.1033
 8751TIP3    H247745   2.258   0.046  57.532 -0.2965 -0.2088  0.2367
 8752TIP3   OH247746   0.266   3.389   1.785 -0.6244  0.0354 -0.6520
 8752TIP3    H147747   0.263   3.349   1.872 -0.5481  0.9131 -0.2333
 8752TIP3    H247748   0.210   3.466   1.793  1.9742  2.0327 -0.3850
 8753TIP3   OH247749   0.407   3.139  45.483  0.0278 -0.5294  0.0087
 8753TIP3    H147750   0.421   3.218  45.431  0.4123 -0.2417  0.5490
 8753TIP3    H247751   0.413   3.168  45.574  2.0615 -1.4857  0.2442
 8754TIP3   OH247752   1.892   1.556  45.751 -0.0956  0.0891  0.4204
 8754TIP3    H147753   1.932   1.634  45.791 -1.3872  0.4507  1.0622
 8754TIP3    H247754   1.828   1.591  45.689 -0.5353 -0.4630  0.5568
 8755TIP3   OH247755   2.972   1.951   1.695 -0.1429 -0.8471  0.3499
 8755TIP3    H147756   2.989   1.857   1.688  0.4010 -0.8052  1.0860
 8755TIP3    H247757   2.877   1.958   1.686 -0.0870 -1.3442 -0.9169
 8756TIP3   OH247758   0.537   1.002  44.211  0.1727  0.5393 -0.2239
 8756TIP3    H147759   0.613   0.963  44.168 -0.5531  0.1728 -1.2256
 8756TIP3    H247760   0.562   1.009  44.303  0.8878 -0.9140 -0.2809
 8757TIP3   OH247761   0.342   2.024  20.763  0.5328  0.1554  0.4788
 8757TIP3    H147762   0.294   1.967  20.703  2.2535  0.9733 -1.8307
 8757TIP3    H247763   0.278   2.089  20.791 -0.7083 -1.1683  0.8335
 8758TIP3   OH247764   1.705   3.364   2.763 -0.2000  0.0715  0.4428
 8758TIP3    H147765   1.679   3.456   2.756  1.2868  0.4564 -0.4729
 8758TIP3    H247766   1.781   3.365   2.821  1.6883 -0.1289 -1.8908
 8759TIP3   OH247767   0.365   2.182  19.679  0.2666  0.2401  0.3516
 8759TIP3    H147768   0.375   2.094  19.717 -1.9692 -0.8541 -1.3448
 8759TIP3    H247769   0.432   2.186  19.610 -0.7294 -0.8871 -0.7323
 8760TIP3   OH247770   2.894   0.050  28.481  0.1219  0.4339  0.0520
 8760TIP3    H147771   2.896   0.145  28.471  1.5600  0.4583  0.2630
 8760TIP3    H247772   2.939   0.033  28.564 -1.7068 -0.3532  0.9303
 8761TIP3   OH247773   0.477   1.621  58.365 -0.2947 -0.9258 -0.0230
 8761TIP3    H147774   0.464   1.530  58.338 -3.1728 -0.7755  0.6037
 8761TIP3    H247775   0.451   1.623  58.457  0.8678  0.3418  0.3241
 8762TIP3   OH247776   0.307   2.550  46.968  0.2250 -0.7908  0.2104
 8762TIP3    H147777   0.332   2.550  46.876 -0.1905  0.4205  0.0744
 8762TIP3    H247778   0.246   2.477  46.976 -0.8908 -0.0231 -0.8352
 8763TIP3   OH247779   0.024   1.567  56.837 -0.1454  0.0212  0.2548
 8763TIP3    H147780   0.107   1.605  56.867  0.4213 -1.0107  0.0683
 8763TIP3    H247781   0.033   1.473  56.854 -0.7801 -0.2746 -0.8849
 8764TIP3   OH247782   1.966   1.101  45.784  0.5346 -0.2074  0.5070
 8764TIP3    H147783   1.943   1.172  45.724 -0.2617  0.3265  1.4252
 8764TIP3    H247784   2.015   1.144  45.854  1.8973 -0.8997  0.0176
 8765TIP3   OH247785   1.364   1.864  11.642 -0.1424  0.0152  0.0728
 8765TIP3    H147786   1.346   1.773  11.666  2.4020 -0.7801 -0.7771
 8765TIP3    H247787   1.383   1.862  11.548 -2.0233  1.7929 -0.4247
 8766TIP3   OH247788   0.912   0.275   3.693  0.3784  0.3474 -0.4133
 8766TIP3    H147789   0.817   0.263   3.696  0.4420 -0.4323 -1.1870
 8766TIP3    H247790   0.945   0.197   3.648  1.3392  0.8524 -0.6086
 8767TIP3   OH247791   2.190   0.018  54.874  0.0335 -0.0667 -0.2975
 8767TIP3    H147792   2.136  -0.010  54.948 -0.0591  0.3935 -0.1877
 8767TIP3    H247793   2.157   0.105  54.852 -0.0001 -0.2335 -0.9365
 8768TIP3   OH247794   0.414   1.345   9.306  0.2710 -0.1684  0.2845
 8768TIP3    H147795   0.395   1.438   9.314  2.0435  0.5921 -2.6514
 8768TIP3    H247796   0.355   1.315   9.237  0.4482 -0.9694  0.4771
 8769TIP3   OH247797   1.811   2.453  53.066 -0.1923 -0.0571  0.4136
 8769TIP3    H147798   1.811   2.382  53.002 -1.6059  0.7457 -0.5190
 8769TIP3    H247799   1.901   2.487  53.063  0.2967 -1.2828  0.3148
 8770TIP3   OH247800   3.446   1.221  67.208 -0.4756 -0.2571  0.3137
 8770TIP3    H147801   3.520   1.274  67.237 -0.5587 -1.0927  2.1824
 8770TIP3    H247802   3.437   1.241  67.115  2.7506 -0.8662 -0.2435
 8771TIP3   OH247803   3.027   0.273   4.690  0.5411 -0.1006  0.4121
 8771TIP3    H147804   3.042   0.356   4.644 -0.8265 -0.4695 -0.7781
 8771TIP3    H247805   3.041   0.294   4.782  0.7006  1.3351  0.0925
 8772TIP3   OH247806   0.253   1.829  51.714 -0.3153 -0.3954  0.3783
 8772TIP3    H147807   0.343   1.853  51.692 -0.8232  0.3197 -1.0786
 8772TIP3    H247808   0.258   1.738  51.742  0.9227 -0.2239  0.7634
 8773TIP3   OH247809   2.971   0.940  46.866 -0.0048  0.1669  0.3235
 8773TIP3    H147810   2.949   1.031  46.884  1.2404  0.2504  1.6552
 8773TIP3    H247811   3.042   0.920  46.927  0.1940 -1.5068 -0.3895
 8774TIP3   OH247812   1.248   1.511  45.407 -0.0405 -0.1899  0.5786
 8774TIP3    H147813   1.162   1.545  45.380  0.3052  0.1532 -0.1293
 8774TIP3    H247814   1.258   1.429  45.357 -0.0611 -0.3603  0.8518
 8775TIP3   OH247815   0.737   2.314   2.065  0.9422  0.0164  0.1277
 8775TIP3    H147816   0.721   2.248   2.132  0.1156  0.8053  0.7367
 8775TIP3    H247817   0.655   2.318   2.015  1.3924 -0.2344 -0.6535
 8776TIP3   OH247818   2.041   2.063  15.826  0.9350 -0.0337  0.5402
 8776TIP3    H147819   2.134   2.064  15.848  0.6104  0.4789  2.0058
 8776TIP3    H247820   2.027   1.977  15.786  1.9187 -0.3587  0.8521
 8777TIP3   OH247821   1.361   0.631  57.532 -0.3536 -0.2732  0.5796
 8777TIP3    H147822   1.452   0.642  57.506 -0.2770 -1.7362  0.1387
 8777TIP3    H247823   1.311   0.659  57.456 -0.2165 -1.2114  0.1381
 8778TIP3   OH247824   0.339   0.221  54.612 -0.0130  0.1607  0.3200
 8778TIP3    H147825   0.328   0.249  54.521  0.7857  0.1078  0.1938
 8778TIP3    H247826   0.408   0.278  54.645  1.4582 -1.4464  0.1464
 8779TIP3   OH247827   2.763   2.731   4.351 -0.1675  0.3468  0.5130
 8779TIP3    H147828   2.759   2.773   4.265  0.7129  1.2569  0.8934
 8779TIP3    H247829   2.745   2.638   4.333 -2.7100  0.9304 -0.2659
 8780TIP3   OH247830   1.454   0.067   7.070  0.2021  0.3094 -0.0110
 8780TIP3    H147831   1.436   0.105   6.984 -0.3187  0.8583  0.3277
 8780TIP3    H247832   1.374   0.083   7.120 -0.2964 -1.8331 -0.0386
 8781TIP3   OH247833   2.924   0.949  21.539  0.0308 -0.5984 -0.2489
 8781TIP3    H147834   2.903   0.867  21.493 -0.4798 -0.8248  0.3547
 8781TIP3    H247835   3.003   0.982  21.496 -0.6785 -0.5633 -1.5631
 8782TIP3   OH247836   0.023   2.828  20.536 -0.2422  0.4701  0.0036
 8782TIP3    H147837  -0.023   2.908  20.564  0.0163 -0.3188  3.0387
 8782TIP3    H247838  -0.047   2.765  20.518 -0.4883  0.1390  1.8545
 8783TIP3   OH247839   1.276   3.037  56.722 -0.6472 -0.2929  0.1805
 8783TIP3    H147840   1.369   3.024  56.740  0.1060  0.2723 -2.8290
 8783TIP3    H247841   1.242   3.080  56.801  1.5844 -0.6501  1.4070
 8784TIP3   OH247842   2.317   1.978  52.808  0.2142 -0.3191  0.3180
 8784TIP3    H147843   2.381   1.978  52.737 -1.7435 -1.8066 -1.6033
 8784TIP3    H247844   2.266   2.057  52.794 -0.4202 -0.8113 -0.2084
 8785TIP3   OH247845   3.371   1.303  59.532  0.0006  0.3741  0.3785
 8785TIP3    H147846   3.434   1.234  59.509 -1.0705 -0.1738 -1.0565
 8785TIP3    H247847   3.396   1.377  59.477 -2.1273 -0.7039 -2.2398
 8786TIP3   OH247848   1.971   3.357  64.896 -0.0917  0.0016  0.4278
 8786TIP3    H147849   1.957   3.374  64.803 -2.9579 -0.2470  0.7112
 8786TIP3    H247850   1.985   3.443  64.934 -0.6826  0.3062 -0.0163
 8787TIP3   OH247851   0.515   1.544   0.128 -0.1837  0.5187  0.2349
 8787TIP3    H147852   0.447   1.492   0.085  1.5024 -0.5401 -1.2803
 8787TIP3    H247853   0.494   1.536   0.222 -3.0305  1.5897 -0.2194
 8788TIP3   OH247854   3.083   1.669  28.030 -0.2449  0.4073  0.1721
 8788TIP3    H147855   3.084   1.716  28.114  0.3288  0.5278  0.0972
 8788TIP3    H247856   3.109   1.580  28.053  2.0785  0.9490 -0.1812
 8789TIP3   OH247857   0.702   1.044  38.254  0.1113  0.0447  0.4961
 8789TIP3    H147858   0.632   1.005  38.307 -0.9405 -1.3687 -1.7612
 8789TIP3    H247859   0.754   0.969  38.225  0.2368  0.6796 -1.0002
 8790TIP3   OH247860   1.794   0.048  62.128  0.4744 -0.1935  0.1616
 8790TIP3    H147861   1.866  -0.011  62.107 -0.5295 -0.8106 -1.8647
 8790TIP3    H247862   1.716  -0.007  62.121 -0.2884  0.7077  1.2264
 8791TIP3   OH247863   2.342   2.672   6.342  0.5091  0.4180  0.0908
 8791TIP3    H147864   2.363   2.605   6.407  1.0753  0.8266  0.3296
 8791TIP3    H247865   2.277   2.727   6.385  0.5221  0.4013  0.1322
 8792TIP3   OH247866   0.450   1.515  21.744 -0.1107  0.2147  0.3309
 8792TIP3    H147867   0.517   1.583  21.745 -0.9819  1.1063 -0.1675
 8792TIP3    H247868   0.498   1.433  21.733  0.8431  0.9087 -0.7695
 8793TIP3   OH247869   0.068   2.601  13.901  0.1017  0.1542 -0.3929
 8793TIP3    H147870   0.161   2.582  13.916  0.1830  0.8984  0.0614
 8793TIP3    H247871   0.068   2.678  13.844 -0.1914  3.0113  3.1691
 8794TIP3   OH247872   2.420   1.957  18.248  0.1269  0.0043 -0.1216
 8794TIP3    H147873   2.475   1.898  18.300  1.4219  0.4052 -0.9855
 8794TIP3    H247874   2.464   1.961  18.163 -0.0820  1.9889 -0.1728
 8795TIP3   OH247875   2.393   1.595  10.264  0.3059 -0.2798  0.3022
 8795TIP3    H147876   2.456   1.650  10.310  0.4982 -0.1968 -0.0565
 8795TIP3    H247877   2.446   1.536  10.212  0.0984  0.7855 -1.1833
 8796TIP3   OH247878   1.841   2.882  48.302  0.2721 -0.0983  0.3506
 8796TIP3    H147879   1.776   2.850  48.365  0.1941 -0.1457  0.2473
 8796TIP3    H247880   1.823   2.975  48.295  0.9307  0.1058  1.1660
 8797TIP3   OH247881   0.482   1.884  55.839 -0.5879 -0.2203  0.6760
 8797TIP3    H147882   0.549   1.952  55.834  1.9386 -2.5804 -0.2603
 8797TIP3    H247883   0.497   1.841  55.923 -0.4886 -1.1854  0.1789
 8798TIP3   OH247884   1.464   1.478  19.616 -0.2459 -0.3510 -0.0479
 8798TIP3    H147885   1.536   1.481  19.553 -0.2616 -0.0917 -0.0561
 8798TIP3    H247886   1.446   1.570  19.636 -1.9628 -0.2710 -1.6471
 8799TIP3   OH247887   0.654   0.500  57.513  0.5888  0.5892 -0.0541
 8799TIP3    H147888   0.637   0.592  57.491  3.4128  1.3051  0.4502
 8799TIP3    H247889   0.717   0.503  57.585  1.1787 -1.7514 -0.3784
 8800TIP3   OH247890   2.971   2.898   8.364  0.1847 -0.2116 -0.3178
 8800TIP3    H147891   2.966   2.973   8.305 -0.7693  0.1282  0.1844
 8800TIP3    H247892   3.042   2.919   8.424 -0.5215  0.6074  0.2472
 8801TIP3   OH247893   2.470   0.325  62.812  0.7466 -0.7392 -0.0223
 8801TIP3    H147894   2.424   0.277  62.743 -0.7953 -1.1359  1.2174
 8801TIP3    H247895   2.425   0.409  62.816  2.6984  0.4545 -1.3989
 8802TIP3   OH247896   2.982   2.718  62.129  0.3649  0.0610  0.1454
 8802TIP3    H147897   2.957   2.627  62.118  0.3083  0.1138 -0.1701
 8802TIP3    H247898   3.024   2.721  62.215 -1.6810  0.1862  1.1914
 8803TIP3   OH247899   2.443   2.278   7.225 -0.0446  0.1353  0.1828
 8803TIP3    H147900   2.405   2.306   7.308 -1.1372 -0.3129 -0.1384
 8803TIP3    H247901   2.432   2.353   7.167  0.4286  0.3385  0.3586
 8804TIP3   OH247902   2.697   2.607  44.854  0.0633 -0.3473 -0.0810
 8804TIP3    H147903   2.672   2.641  44.768 -3.0356  0.1096  0.8621
 8804TIP3    H247904   2.617   2.564  44.886  0.8283  0.2621  2.9129
 8805TIP3   OH247905   0.840   3.379  44.317 -0.0939 -0.4803 -0.4262
 8805TIP3    H147906   0.819   3.472  44.322 -0.3015 -0.3894 -2.4002
 8805TIP3    H247907   0.912   3.373  44.254  1.1570 -1.5038  1.0238
 8806TIP3   OH247908   2.014   0.815  19.077  0.2561 -0.0592 -0.4902
 8806TIP3    H147909   2.102   0.839  19.049 -0.2652  0.1869 -2.0218
 8806TIP3    H247910   1.961   0.820  18.997 -1.1575 -0.1521  0.3985
 8807TIP3   OH247911   1.096   3.381  62.219 -0.2405 -0.1594 -0.0798
 8807TIP3    H147912   1.049   3.401  62.300 -3.0787  0.0599 -1.6597
 8807TIP3    H247913   1.162   3.316  62.245 -0.6073  0.3878  2.4878
 8808TIP3   OH247914   2.298   2.002   3.730  0.2511  0.1550  0.2133
 8808TIP3    H147915   2.262   1.943   3.795 -0.1098  1.5959  1.3837
 8808TIP3    H247916   2.235   2.000   3.658  1.0933 -2.1191 -0.5385
 8809TIP3   OH247917   2.162   1.044  19.425 -0.3868  0.3614  0.2531
 8809TIP3    H147918   2.083   1.078  19.383  1.0228  0.3574 -2.6316
 8809TIP3    H247919   2.204   1.121  19.464 -2.0177  0.2725  2.3809
 8810TIP3   OH247920   0.761   1.573  14.147 -0.9165  0.3833 -0.0106
 8810TIP3    H147921   0.774   1.609  14.234 -2.0702 -1.1878  0.8609
 8810TIP3    H247922   0.679   1.523  14.153 -0.1279 -1.2062 -1.5038
 8811TIP3   OH247923   3.288   2.758  44.170  0.3750 -0.2325  0.7875
 8811TIP3    H147924   3.355   2.785  44.107 -0.1434 -1.2967 -0.2557
 8811TIP3    H247925   3.336   2.713  44.239  0.8614  0.1368  0.6932
 8812TIP3   OH247926   1.545   0.597  38.041 -0.4365  0.8220  0.1834
 8812TIP3    H147927   1.505   0.681  38.065 -1.4474  0.8391 -1.4734
 8812TIP3    H247928   1.557   0.552  38.125 -2.0038  1.6830  0.9165
 8813TIP3   OH247929   1.347   3.367   8.347 -0.3763  0.0898 -0.3475
 8813TIP3    H147930   1.273   3.428   8.353  0.6780  1.2550  1.9965
 8813TIP3    H247931   1.424   3.420   8.367  0.5905 -1.9048  1.7608
 8814TIP3   OH247932   1.515   1.600  18.149 -0.0304 -0.1669 -0.2759
 8814TIP3    H147933   1.436   1.558  18.114  0.7102 -0.1128 -2.1828
 8814TIP3    H247934   1.492   1.625  18.238 -2.7832  1.3803 -1.2803
 8815TIP3   OH247935   0.639   1.663  11.416  0.3839  0.0610 -0.4589
 8815TIP3    H147936   0.605   1.574  11.410 -1.5930  0.4322  3.0251
 8815TIP3    H247937   0.720   1.655  11.467  0.6267  0.2320 -0.8044
 8816TIP3   OH247938   1.982   0.353   7.886 -0.4449  0.2127 -0.2684
 8816TIP3    H147939   1.954   0.332   7.975  3.2778 -0.2209  0.9917
 8816TIP3    H247940   1.988   0.268   7.843 -2.3874  0.4338 -1.0756
 8817TIP3   OH247941   2.240   0.525   9.163 -0.2863 -0.0486 -0.1218
 8817TIP3    H147942   2.287   0.470   9.101  1.4681  0.6394  0.5299
 8817TIP3    H247943   2.202   0.463   9.226  0.2063 -0.6153 -0.3731
 8818TIP3   OH247944   1.066   1.827  49.109 -0.0049 -0.3231 -0.6874
 8818TIP3    H147945   1.079   1.872  49.192  0.8090 -0.2388 -0.8461
 8818TIP3    H247946   1.152   1.791  49.089 -0.1338 -0.1307 -1.6169
 8819TIP3   OH247947   2.206   1.573   2.378  0.0043 -0.0991  0.0502
 8819TIP3    H147948   2.251   1.656   2.391 -1.9945  1.3224 -1.5133
 8819TIP3    H247949   2.185   1.543   2.467  0.2037  1.3722  0.6182
 8820TIP3   OH247950   2.260   1.019  12.083 -0.1949 -0.7464 -0.5533
 8820TIP3    H147951   2.216   1.082  12.025 -0.8932 -0.4938  0.2272
 8820TIP3    H247952   2.238   0.933  12.046  1.9247 -0.5789 -2.4710
 8821TIP3   OH247953   3.225   1.969  43.358  0.1609  0.4118 -0.2815
 8821TIP3    H147954   3.155   2.008  43.306 -1.3766 -0.9141  0.7013
 8821TIP3    H247955   3.205   1.875  43.357  2.2847 -0.0889 -0.4582
 8822TIP3   OH247956   1.100   3.213   1.381  0.2850  0.2467 -0.3463
 8822TIP3    H147957   1.191   3.188   1.399  0.2181  1.8215  3.1071
 8822TIP3    H247958   1.107   3.289   1.324  1.0920 -0.1357 -0.7723
 8823TIP3   OH247959   3.286   2.682  22.573 -0.0888  0.1752 -0.0958
 8823TIP3    H147960   3.296   2.765  22.620 -0.9177  0.1504  0.1509
 8823TIP3    H247961   3.362   2.630  22.599  0.1033  0.6209  0.2484
 8824TIP3   OH247962   1.578   2.295  45.324 -0.4318  0.7844 -0.3267
 8824TIP3    H147963   1.587   2.265  45.414 -0.5408  1.5325 -0.0693
 8824TIP3    H247964   1.543   2.383  45.330  0.5269  1.2427 -1.0599
 8825TIP3   OH247965   1.002   0.995   3.914 -0.1332 -0.4902 -0.5338
 8825TIP3    H147966   1.051   0.936   3.971  1.3682 -0.6175 -1.8826
 8825TIP3    H247967   0.958   0.938   3.851 -1.2473 -0.3128  0.0543
 8826TIP3   OH247968   2.418   1.637   2.019  0.1066 -0.1286 -0.2370
 8826TIP3    H147969   2.356   1.574   2.056  0.0037 -0.1450 -0.4356
 8826TIP3    H247970   2.503   1.593   2.023  0.2482  0.2086  0.8003
 8827TIP3   OH247971   3.212   0.579  21.922 -0.1222  0.3862  0.1579
 8827TIP3    H147972   3.119   0.563  21.941 -0.0653  0.6749  0.7141
 8827TIP3    H247973   3.214   0.606  21.830 -0.5908  0.3814  0.1438
 8828TIP3   OH247974   0.305   3.171  20.585 -0.6142 -1.0395 -0.1277
 8828TIP3    H147975   0.302   3.076  20.570 -1.0136 -1.7413  3.4006
 8828TIP3    H247976   0.215   3.195  20.606 -0.1768 -0.3468  1.0707
 8829TIP3   OH247977   3.344   1.909  42.485  0.1079 -0.3402  0.2710
 8829TIP3    H147978   3.336   1.957  42.402 -0.1934  0.0535  0.5257
 8829TIP3    H247979   3.350   1.977  42.551 -1.1379 -0.6388  0.7183
 8830TIP3   OH247980   0.630   1.234  16.219  0.5450  0.1081  0.3551
 8830TIP3    H147981   0.542   1.263  16.245 -0.3784 -1.9227 -0.3071
 8830TIP3    H247982   0.624   1.222  16.124  1.6662  0.3109  0.2502
 8831TIP3   OH247983   2.909   2.975   7.740  0.5223 -0.6283  0.0238
 8831TIP3    H147984   2.910   2.879   7.744 -0.3934 -0.6056  2.3053
 8831TIP3    H247985   2.973   3.002   7.806  1.7568  0.3732 -1.5229
 8832TIP3   OH247986   1.253   3.127  60.442  0.3159 -0.3183 -0.1594
 8832TIP3    H147987   1.205   3.045  60.449  2.1731 -1.3595  1.0119
 8832TIP3    H247988   1.304   3.133  60.523  0.9800  1.4880 -0.6556
 8833TIP3   OH247989   0.441   1.792   3.605 -0.0049  0.1653  0.2882
 8833TIP3    H147990   0.415   1.884   3.614  2.4049  0.7103  3.4814
 8833TIP3    H247991   0.483   1.787   3.519 -0.7203  1.8883 -0.2069
 8834TIP3   OH247992   0.481   2.985  65.079 -0.5522 -0.3740  0.7147
 8834TIP3    H147993   0.479   2.893  65.051 -2.1610 -0.7219  1.8267
 8834TIP3    H247994   0.420   3.030  65.021 -1.3798 -0.4508  1.5014
 8835TIP3   OH247995   1.931   1.609   6.635 -0.0394 -0.1350 -0.2630
 8835TIP3    H147996   2.009   1.645   6.593 -0.1513 -0.3734 -0.6717
 8835TIP3    H247997   1.955   1.518   6.655  0.6149  0.4126  1.6764
 8836TIP3   OH247998   0.442   1.775  67.403  0.3217 -0.5073 -0.2483
 8836TIP3    H147999   0.368   1.722  67.434 -0.2245  0.3644 -0.0110
 8836TIP3    H248000   0.496   1.713  67.354 -0.0028 -1.4037  0.4739
 8837TIP3   OH248001   2.523   3.426  10.708  0.1246 -0.0649  0.3930
 8837TIP3    H148002   2.566   3.344  10.684  1.2857  0.7986 -0.6508
 8837TIP3    H248003   2.587   3.471  10.764  0.2890  0.8932 -0.5296
 8838TIP3   OH248004   3.423   0.528  18.864 -0.0175 -0.5596 -0.2933
 8838TIP3    H148005   3.506   0.567  18.890  0.3698 -0.9774 -0.8826
 8838TIP3    H248006   3.423   0.533  18.769 -0.4476 -1.0220 -0.3196
 8839TIP3   OH248007   3.038   1.718  43.789 -0.4235 -0.9274 -0.0854
 8839TIP3    H148008   3.057   1.744  43.879  2.2459 -1.5093 -0.3815
 8839TIP3    H248009   3.022   1.624  43.795  2.7768 -1.6014 -0.4707
 8840TIP3   OH248010   0.091   0.280  16.639 -0.1995 -0.4291  0.1228
 8840TIP3    H148011   0.079   0.364  16.685  1.3195 -0.0838 -0.0561
 8840TIP3    H248012   0.165   0.239  16.684  0.6741 -0.5304 -1.3411
 8841TIP3   OH248013   3.304   1.237  63.671  0.4929  0.6190  0.0274
 8841TIP3    H148014   3.306   1.279  63.585 -0.8476  0.4077 -0.1273
 8841TIP3    H248015   3.223   1.187  63.671 -0.4197  1.9924  2.0483
 8842TIP3   OH248016   1.134   0.818  57.710 -0.0352  0.2882 -0.1685
 8842TIP3    H148017   1.144   0.846  57.619 -1.3299  0.0562 -0.4056
 8842TIP3    H248018   1.043   0.840  57.732  0.3189  0.5231  1.1365
 8843TIP3   OH248019   1.799   0.992   3.586 -0.0636  0.7162  0.0869
 8843TIP3    H148020   1.813   0.943   3.667  1.1722  0.8202 -0.0431
 8843TIP3    H248021   1.885   1.029   3.566 -0.3912  0.8056 -1.1975
 8844TIP3   OH248022   3.355   2.358  64.712  0.3146 -0.3918  0.0442
 8844TIP3    H148023   3.384   2.354  64.621  1.4751  2.5124  0.1611
 8844TIP3    H248024   3.433   2.386  64.761 -0.7596 -0.0229  1.6261
 8845TIP3   OH248025   3.013   2.858   1.070 -0.2387 -0.3140  0.0904
 8845TIP3    H148026   2.983   2.824   0.985 -3.0315 -1.7342  1.5068
 8845TIP3    H248027   2.933   2.886   1.114  1.3492  2.3495  1.5227
 8846TIP3   OH248028   2.488   0.609  63.451  0.3199  0.7148  0.2092
 8846TIP3    H148029   2.527   0.521  63.457  0.2362  0.5823 -0.9642
 8846TIP3    H248030   2.550   0.659  63.399 -0.7928  0.6454 -1.2356
 8847TIP3   OH248031   1.735   1.874  60.717 -0.9571 -0.0057 -0.2378
 8847TIP3    H148032   1.764   1.859  60.627 -0.1855  2.1495 -0.3981
 8847TIP3    H248033   1.796   1.824  60.771  0.9802  1.7006 -0.7571
 8848TIP3   OH248034   0.719   2.210  46.354 -0.2073 -0.2141 -0.5439
 8848TIP3    H148035   0.696   2.184  46.443  0.6954 -2.3291 -0.8835
 8848TIP3    H248036   0.803   2.168  46.337 -1.0684 -1.1541 -2.9013
 8849TIP3   OH248037   0.858   0.934  50.077  0.7289 -0.1501 -0.3426
 8849TIP3    H148038   0.846   0.869  50.007  2.3803 -0.3296 -0.5109
 8849TIP3    H248039   0.951   0.956  50.073  1.1179 -0.9375  2.4621
 8850TIP3   OH248040   1.363   0.167  16.111 -0.5383 -0.5926 -0.2279
 8850TIP3    H148041   1.342   0.081  16.148 -0.9002  0.1106  1.2905
 8850TIP3    H248042   1.459   0.167  16.107 -0.4914 -0.7230  0.6663
 8851TIP3   OH248043   0.558   0.726  55.563 -0.4744 -0.1906 -0.0814
 8851TIP3    H148044   0.495   0.796  55.546  0.2859  0.3698 -0.7250
 8851TIP3    H248045   0.614   0.726  55.485 -1.3042 -2.4757 -0.7648
 8852TIP3   OH248046   2.800   2.335  21.341  0.4752 -0.2042  0.1033
 8852TIP3    H148047   2.727   2.382  21.299  0.9165  2.0284  1.6789
 8852TIP3    H248048   2.782   2.341  21.434  0.9731 -2.6276  0.4186
 8853TIP3   OH248049   2.154   3.286  18.869 -0.0402 -0.7260 -0.1675
 8853TIP3    H148050   2.163   3.221  18.799  2.5236 -2.6708  1.7264
 8853TIP3    H248051   2.221   3.352  18.850 -2.5781  1.5327 -2.0381
 8854TIP3   OH248052   1.874   1.705  59.202 -0.1130  0.1997 -0.1691
 8854TIP3    H148053   1.941   1.650  59.243 -1.4093  0.4077  2.4361
 8854TIP3    H248054   1.855   1.661  59.119  2.1655 -0.6473 -0.3202
 8855TIP3   OH248055   0.000   0.494  64.410 -0.8257  0.2871 -0.3587
 8855TIP3    H148056  -0.070   0.519  64.470 -0.1074  1.6029 -0.0339
 8855TIP3    H248057   0.025   0.576  64.366  1.3797  0.1318  0.4866
 8856TIP3   OH248058   3.069   2.363  11.969 -0.7369  0.1895 -0.3141
 8856TIP3    H148059   3.064   2.343  11.875 -0.3100  0.5223 -0.4111
 8856TIP3    H248060   2.977   2.363  11.998 -0.8485 -0.2877 -0.6473
 8857TIP3   OH248061   1.888   0.273   8.125 -0.2830 -0.1022 -0.2863
 8857TIP3    H148062   1.892   0.237   8.213 -0.6403  0.4588 -0.0316
 8857TIP3    H248063   1.806   0.239   8.089  0.1361 -0.7891 -0.6164
 8858TIP3   OH248064   0.645   2.756   5.893 -0.0093 -0.0513 -0.1683
 8858TIP3    H148065   0.610   2.674   5.858 -1.2798  0.9586 -1.4593
 8858TIP3    H248066   0.602   2.767   5.978  1.0846 -1.2671  0.5685
 8859TIP3   OH248067   2.624   0.709   5.959  0.2999 -0.4608 -0.5591
 8859TIP3    H148068   2.562   0.647   5.998  0.6143 -0.4218  0.0229
 8859TIP3    H248069   2.572   0.760   5.897 -0.2564 -0.3892 -0.0392
 8860TIP3   OH248070   0.487   2.168  59.670 -0.1907  0.0083 -0.7370
 8860TIP3    H148071   0.546   2.238  59.697 -1.6009  1.1852 -0.5515
 8860TIP3    H248072   0.407   2.184  59.721 -0.5919 -1.6789 -0.7799
 8861TIP3   OH248073   2.671   1.544  48.812 -0.4115 -0.5467  0.0729
 8861TIP3    H148074   2.619   1.499  48.745 -1.2226  1.4538 -0.7186
 8861TIP3    H248075   2.608   1.599  48.859  0.1771 -1.7225  2.4087
 8862TIP3   OH248076   1.842   2.597  19.746 -0.1220 -0.1654  0.7398
 8862TIP3    H148077   1.758   2.616  19.787 -0.2940 -1.4437  1.0242
 8862TIP3    H248078   1.904   2.653  19.793 -1.0009  2.0114 -0.5601
 8863TIP3   OH248079   2.730   2.940  48.003 -0.1708  0.0790  0.2998
 8863TIP3    H148080   2.671   3.010  48.031 -0.9092 -0.3097 -0.2282
 8863TIP3    H248081   2.673   2.879  47.954  0.7940  0.0297 -0.8117
 8864TIP3   OH248082   3.080   0.610  63.452  0.0372  0.0376 -0.2758
 8864TIP3    H148083   2.985   0.594  63.454  0.0320 -0.0864 -1.1297
 8864TIP3    H248084   3.092   0.668  63.377  0.5427  0.7601  0.3522
 8865TIP3   OH248085   1.345   2.508  47.003  0.3587 -0.2955 -0.3068
 8865TIP3    H148086   1.375   2.589  46.962  1.1769 -0.2330  0.4035
 8865TIP3    H248087   1.336   2.529  47.096  0.0532 -0.8716 -0.1972
 8866TIP3   OH248088   0.730   1.178  57.411 -0.4613  0.3278  0.3648
 8866TIP3    H148089   0.816   1.137  57.412 -0.5449  0.0266 -1.1960
 8866TIP3    H248090   0.746   1.265  57.373 -1.0019 -0.2290 -1.2156
 8867TIP3   OH248091   3.314   2.260  64.077 -0.1238  0.2170 -0.4148
 8867TIP3    H148092   3.238   2.306  64.040 -1.6072 -1.7831 -0.0631
 8867TIP3    H248093   3.287   2.240  64.167  1.8169  1.4954  0.5249
 8868TIP3   OH248094   0.062   2.102   1.830 -0.5336  0.0770  0.5794
 8868TIP3    H148095  -0.005   2.034   1.819 -1.2447  0.8928 -0.3186
 8868TIP3    H248096   0.013   2.184   1.834  0.4330  1.2117 -4.3255
 8869TIP3   OH248097   1.422   2.417  50.594  0.5816  0.5708 -0.0209
 8869TIP3    H148098   1.471   2.497  50.615  1.0212  0.4632 -0.5939
 8869TIP3    H248099   1.349   2.417  50.655  1.8099  0.2328  1.5182
 8870TIP3   OH248100   0.829   1.882   6.954  0.0686  0.1320 -0.0659
 8870TIP3    H148101   0.882   1.805   6.931  1.2299  0.7113  0.5962
 8870TIP3    H248102   0.822   1.931   6.872  1.8454  0.7971  0.1461
 8871TIP3   OH248103   2.345   0.021  21.446  0.3591 -0.0236 -0.5670
 8871TIP3    H148104   2.281   0.075  21.492  1.4873 -0.2660  1.3555
 8871TIP3    H248105   2.376   0.076  21.374 -0.0893  1.0760  0.0554
 8872TIP3   OH248106   1.509   2.837  61.580 -0.0041  0.4240  0.1635
 8872TIP3    H148107   1.564   2.819  61.504  1.4339 -0.5942  1.3789
 8872TIP3    H248108   1.466   2.754  61.600 -1.1338  0.9342 -0.1070
 8873TIP3   OH248109   1.396   3.213  64.723 -0.1938 -0.4469  0.3295
 8873TIP3    H148110   1.384   3.125  64.688  0.8125  0.1270 -1.6471
 8873TIP3    H248111   1.348   3.270  64.663 -0.8778  0.3603  1.6083
 8874TIP3   OH248112   1.527   1.100  59.210  0.1477 -0.0053 -0.1088
 8874TIP3    H148113   1.621   1.104  59.194 -0.0623 -0.1611 -1.5321
 8874TIP3    H248114   1.492   1.055  59.133 -0.9478 -1.1495  1.0183
 8875TIP3   OH248115   2.681   0.412  48.476  0.5053  0.5673  0.0269
 8875TIP3    H148116   2.595   0.396  48.437  0.6898 -1.6966  0.4204
 8875TIP3    H248117   2.742   0.410  48.402  0.4932 -0.5369  0.0257
 8876TIP3   OH248118   0.791   2.954  50.676 -0.7992  0.7185 -0.1731
 8876TIP3    H148119   0.746   2.870  50.664  0.0633  0.3633 -1.0337
 8876TIP3    H248120   0.884   2.931  50.673 -0.5457  1.5045  1.1150
 8877TIP3   OH248121   3.134   1.536   0.387 -0.0366 -0.4155  0.2335
 8877TIP3    H148122   3.188   1.609   0.416 -0.4914  0.6014 -1.3209
 8877TIP3    H248123   3.062   1.533   0.451  0.3405  0.0674  0.6889
 8878TIP3   OH248124   1.528   2.830  20.133 -0.3883 -0.0590  0.1958
 8878TIP3    H148125   1.478   2.752  20.157 -0.2169 -0.2726 -0.1425
 8878TIP3    H248126   1.524   2.885  20.211  0.2136 -0.7772  0.7597
 8879TIP3   OH248127   1.658   0.961  64.466 -0.4439  0.2848  0.4491
 8879TIP3    H148128   1.668   0.918  64.551  1.3538  0.2676  0.2752
 8879TIP3    H248129   1.732   0.928  64.414 -1.7274 -0.0247 -1.2789
 8880TIP3   OH248130   3.165   2.006  50.996  0.1808 -0.6474 -0.8224
 8880TIP3    H148131   3.197   2.095  51.013 -1.3077  0.1242 -1.7851
 8880TIP3    H248132   3.162   1.999  50.901  0.0056 -1.6280 -0.7529
 8881TIP3   OH248133   1.830   1.279  18.820 -0.4493  0.0308 -0.1009
 8881TIP3    H148134   1.753   1.329  18.850 -0.5809 -0.0682 -0.2735
 8881TIP3    H248135   1.848   1.218  18.892 -1.1905 -0.6884 -0.5002
 8882TIP3   OH248136   1.193   2.744  60.025  0.4613  0.5653 -0.2118
 8882TIP3    H148137   1.176   2.826  60.070 -0.4131  0.4504 -0.3259
 8882TIP3    H248138   1.262   2.766  59.961  0.9477  0.9646  0.4390
 8883TIP3   OH248139   1.180   1.536  63.596 -1.0389  0.6127 -0.7555
 8883TIP3    H148140   1.132   1.607  63.553 -3.5896 -1.1046 -0.9274
 8883TIP3    H248141   1.112   1.482  63.637  0.9440 -0.7075  1.0077
 8884TIP3   OH248142   0.307   3.264  62.033  0.1282  0.5096 -0.4843
 8884TIP3    H148143   0.229   3.316  62.014 -0.3152  0.0906  0.1377
 8884TIP3    H248144   0.374   3.328  62.055 -0.3520  0.8340  0.0664
 8885TIP3   OH248145   1.610   2.187  48.701  0.3506 -0.4106 -0.0238
 8885TIP3    H148146   1.544   2.225  48.758  0.1375 -0.9569  0.1069
 8885TIP3    H248147   1.650   2.118  48.754  1.6666  0.5019  0.2336
 8886TIP3   OH248148   3.289   2.318   0.596  0.5146  0.1373 -0.9896
 8886TIP3    H148149   3.248   2.361   0.521  1.1179 -0.5993 -1.7552
 8886TIP3    H248150   3.365   2.273   0.559 -1.1147 -3.2291 -0.5967
 8887TIP3   OH248151   3.118   3.282  55.663  0.1663  0.2634  0.3091
 8887TIP3    H148152   3.108   3.355  55.724  0.1347  0.1596  0.4278
 8887TIP3    H248153   3.161   3.321  55.587 -0.8027  0.6413 -0.0605
 8888TIP3   OH248154   2.810   1.790  45.003 -0.0172  0.1871  0.0494
 8888TIP3    H148155   2.866   1.716  44.982 -0.8285 -0.3908 -0.1487
 8888TIP3    H248156   2.827   1.854  44.934 -0.2277 -0.3409 -0.5035
 8889TIP3   OH248157   1.938   0.518  63.391  1.4318  0.2761  0.4482
 8889TIP3    H148158   1.941   0.423  63.406 -1.4203  0.1123  0.4651
 8889TIP3    H248159   2.021   0.550  63.425  3.0043 -2.3408 -0.6421
 8890TIP3   OH248160   0.917   1.805  46.719 -0.6246  0.2393 -0.2663
 8890TIP3    H148161   0.996   1.859  46.717 -0.1108 -0.4961 -2.0258
 8890TIP3    H248162   0.846   1.868  46.731  0.0925  1.1334 -0.5965
 8891TIP3   OH248163   1.475   0.303  39.122  0.4202 -0.1843  0.7049
 8891TIP3    H148164   1.448   0.273  39.036 -0.9208  1.0518  0.6466
 8891TIP3    H248165   1.570   0.313  39.116  0.2830  0.5148 -0.8524
 8892TIP3   OH248166   1.016   2.367  48.758 -0.2341  0.2239 -0.0647
 8892TIP3    H148167   1.039   2.310  48.685 -0.2402  0.7315 -0.4688
 8892TIP3    H248168   0.944   2.421  48.724 -1.7862 -1.0603  1.0420
 8893TIP3   OH248169   0.623   2.314  14.975 -0.4208  0.5855 -0.0513
 8893TIP3    H148170   0.655   2.263  14.900 -0.2370  2.0076 -0.9876
 8893TIP3    H248171   0.595   2.397  14.937  0.2895  1.6075  1.5353
 8894TIP3   OH248172   2.284   2.964  56.036  0.0522 -0.6652 -0.0607
 8894TIP3    H148173   2.283   2.873  56.008 -2.2298 -0.6935 -0.1355
 8894TIP3    H248174   2.311   2.961  56.128  0.1670 -1.4050 -0.1137
 8895TIP3   OH248175   1.502   0.721  53.319  0.1187  1.1081  0.0497
 8895TIP3    H148176   1.555   0.801  53.326  1.6396  0.4368 -2.5359
 8895TIP3    H248177   1.562   0.650  53.341 -0.5018  0.5135 -0.1584
 8896TIP3   OH248178   1.070   1.392  53.415 -0.1321 -0.2687 -0.5032
 8896TIP3    H148179   1.057   1.372  53.507  1.2472 -0.7590 -0.4065
 8896TIP3    H248180   0.981   1.408  53.382 -0.5583  1.0833  1.1525
 8897TIP3   OH248181   3.313   2.875  14.593 -0.6610  0.0694  0.0203
 8897TIP3    H148182   3.272   2.960  14.575 -2.6121 -0.8764 -0.3097
 8897TIP3    H248183   3.281   2.851  14.680  0.0963 -0.2197  0.2257
 8898TIP3   OH248184   1.249   0.800  22.902 -0.1214 -0.2697 -0.0628
 8898TIP3    H148185   1.287   0.868  22.847  0.4880 -0.4958  0.0758
 8898TIP3    H248186   1.276   0.718  22.861  0.1406 -0.4357  0.4379
 8899TIP3   OH248187   3.155   1.259  22.111  0.1972  0.0413  0.4671
 8899TIP3    H148188   3.162   1.173  22.152 -1.3289  0.3665  1.4775
 8899TIP3    H248189   3.136   1.319  22.184 -2.5167  0.6617 -0.6329
 8900TIP3   OH248190   1.270   3.299  56.609 -0.7792 -0.1104  0.2169
 8900TIP3    H148191   1.176   3.312  56.617 -1.1841 -1.8834 -0.9727
 8900TIP3    H248192   1.283   3.207  56.631  0.5792 -0.0611 -0.3170
 8901TIP3   OH248193   2.964   1.600  20.610  0.5594 -0.3275 -0.2609
 8901TIP3    H148194   2.934   1.621  20.522  0.5254 -0.8749 -0.3851
 8901TIP3    H248195   3.011   1.678  20.639  1.0348 -0.3350 -0.9738
 8902TIP3   OH248196   0.445   1.693  53.897 -0.3114 -0.4479  0.3339
 8902TIP3    H148197   0.536   1.669  53.917 -0.1197  0.2489  0.3274
 8902TIP3    H248198   0.397   1.674  53.977 -0.4235 -2.1041 -0.0913
 8903TIP3   OH248199   2.053   2.155  64.162 -0.2005  0.0216  0.2472
 8903TIP3    H148200   2.052   2.240  64.119  1.2998  1.0861  2.1408
 8903TIP3    H248201   1.995   2.166  64.237 -0.7705 -0.9543 -0.0365
 8904TIP3   OH248202   2.781   3.089  51.857  0.0864  0.3625 -0.2309
 8904TIP3    H148203   2.875   3.074  51.869 -0.2487 -1.1708  0.8203
 8904TIP3    H248204   2.776   3.158  51.792  1.9513  0.6247 -0.1610
 8905TIP3   OH248205   2.096   2.251  52.813  0.2585 -0.2415  0.1908
 8905TIP3    H148206   2.164   2.265  52.880  0.2407  1.3181 -0.0801
 8905TIP3    H248207   2.060   2.339  52.798 -2.1588 -1.0805  0.6671
 8906TIP3   OH248208   2.548   2.621  54.509 -0.5368 -0.1701  0.2332
 8906TIP3    H148209   2.554   2.702  54.459  0.3659 -0.3924 -0.0566
 8906TIP3    H248210   2.592   2.556  54.454 -2.8034 -1.2976 -0.3800
 8907TIP3   OH248211   0.933   1.726   2.205  0.7082 -0.3395  0.2489
 8907TIP3    H148212   0.988   1.798   2.175  0.2262 -0.4283 -0.9386
 8907TIP3    H248213   0.912   1.678   2.124 -3.7420  1.5082  0.0249
 8908TIP3   OH248214   1.921   3.000  54.098 -0.1447 -0.1673 -0.2573
 8908TIP3    H148215   2.001   2.998  54.046 -0.6128 -1.0106 -0.9730
 8908TIP3    H248216   1.850   2.994  54.033 -0.7724  0.0546  0.3991
 8909TIP3   OH248217   2.864   2.069  54.714 -0.1756  0.1406  0.0424
 8909TIP3    H148218   2.856   1.993  54.655 -0.9457  0.8640 -0.8077
 8909TIP3    H248219   2.875   2.144  54.656  0.0250  0.7639  0.8632
 8910TIP3   OH248220   2.133   3.371  47.142 -0.0612  0.0150  0.6858
 8910TIP3    H148221   2.208   3.413  47.100 -0.7078  0.2450 -0.3001
 8910TIP3    H248222   2.161   3.355  47.232  1.1348  0.1604  0.3582
 8911TIP3   OH248223   0.490   3.109  53.210  0.4069  0.0088 -0.3231
 8911TIP3    H148224   0.419   3.048  53.188  1.1446 -2.4323  3.2581
 8911TIP3    H248225   0.447   3.176  53.264  0.6408 -1.2430  1.4995
 8912TIP3   OH248226   0.375   1.134  65.138  0.6311 -0.4162  0.1282
 8912TIP3    H148227   0.347   1.223  65.162 -0.4974 -0.6816 -0.1196
 8912TIP3    H248228   0.463   1.145  65.102  0.6809  0.5406  0.5086
 8913TIP3   OH248229   2.554   3.296  67.475  0.5313  0.3462  0.1721
 8913TIP3    H148230   2.469   3.268  67.440  0.3304 -1.0856  1.6987
 8913TIP3    H248231   2.574   3.377  67.427 -2.0689  1.1877  0.3633
 8914TIP3   OH248232   2.007   0.487  47.099 -0.1548  0.5091 -0.2523
 8914TIP3    H148233   2.087   0.521  47.140  0.5998  0.8976 -1.9895
 8914TIP3    H248234   2.020   0.392  47.099 -1.3598  0.2214  2.7284
 8915TIP3   OH248235   2.051   2.056  42.490  0.7893  0.3855 -0.1387
 8915TIP3    H148236   2.003   1.982  42.451 -0.5629  0.5101  1.2004
 8915TIP3    H248237   2.088   2.102  42.415 -0.9636  0.1006 -1.2484
 8916TIP3   OH248238   0.121   1.190  47.588  0.1654  0.3925 -0.5317
 8916TIP3    H148239   0.214   1.176  47.569 -0.2530 -0.6374 -2.0235
 8916TIP3    H248240   0.096   1.262  47.531 -0.1456  0.0536 -0.8282
 8917TIP3   OH248241   1.915   1.185  66.117 -0.3942  0.4069 -0.1949
 8917TIP3    H148242   1.839   1.198  66.175 -1.3269  1.2555 -1.5470
 8917TIP3    H248243   1.898   1.101  66.075  0.8227 -0.7373  1.4854
 8918TIP3   OH248244   3.302   2.321  67.058 -0.1816  0.3274  0.6838
 8918TIP3    H148245   3.247   2.397  67.080 -0.4662  0.6464 -0.9791
 8918TIP3    H248246   3.384   2.360  67.028 -0.9358  0.1086 -1.8466
 8919TIP3   OH248247   1.646   3.215  57.626  0.0940 -0.4603 -0.0674
 8919TIP3    H148248   1.704   3.156  57.579  0.8901 -1.7283  2.3083
 8919TIP3    H248249   1.705   3.281  57.665 -0.5977  0.9259 -1.2664
 8920TIP3   OH248250   0.724   1.426  21.192  0.4988 -0.0448  0.1879
 8920TIP3    H148251   0.741   1.459  21.280  0.0533  1.7636 -0.3686
 8920TIP3    H248252   0.692   1.502  21.144  5.0704  0.3672 -2.8455
 8921TIP3   OH248253   0.881   0.564  63.653  0.1292 -0.5935  0.2191
 8921TIP3    H148254   0.837   0.634  63.604  1.8313  0.3907  0.0045
 8921TIP3    H248255   0.846   0.570  63.741  0.2560  0.5678  0.2030
 8922TIP3   OH248256   0.354   0.664  43.124 -0.3134  0.5680  0.3655
 8922TIP3    H148257   0.391   0.716  43.196  0.9480  0.7905 -0.4068
 8922TIP3    H248258   0.325   0.730  43.060 -0.5742  0.3544  0.2630
 8923TIP3   OH248259   2.290   2.774  54.830  0.4778  0.6566  0.5287
 8923TIP3    H148260   2.368   2.736  54.789 -0.3784  1.1455 -1.7371
 8923TIP3    H248261   2.233   2.698  54.848  0.0434  0.5402 -1.1450
 8924TIP3   OH248262   2.800   1.827  56.866 -0.5606  0.1366 -0.2175
 8924TIP3    H148263   2.804   1.799  56.774 -0.5982  2.1624 -0.8767
 8924TIP3    H248264   2.749   1.758  56.909 -0.4148 -0.9424 -1.6611
 8925TIP3   OH248265   1.038   0.052   2.394 -0.1178 -0.4711 -0.0815
 8925TIP3    H148266   0.979   0.020   2.326  0.0252 -2.2286  0.5843
 8925TIP3    H248267   1.112  -0.008   2.393  0.5500  0.3070  0.6808
 8926TIP3   OH248268   2.377   0.052  47.956 -0.0755 -0.0970  0.2430
 8926TIP3    H148269   2.302   0.027  47.901  1.1612 -1.2751 -0.9903
 8926TIP3    H248270   2.453   0.039  47.900  1.2428 -1.1585  2.1776
 8927TIP3   OH248271   2.405   0.655  48.118  0.4128 -0.4540 -0.0338
 8927TIP3    H148272   2.467   0.611  48.176  1.8740  0.3237 -0.9607
 8927TIP3    H248273   2.385   0.737  48.163  1.0697 -0.1266 -0.3250
 8928TIP3   OH248274   0.778   1.927  65.509  0.3271 -0.1508 -0.7223
 8928TIP3    H148275   0.868   1.934  65.540 -0.0111  1.5226 -0.0475
 8928TIP3    H248276   0.787   1.916  65.414  1.2645 -2.0644 -0.4685
 8929TIP3   OH248277   0.448   2.359  43.994 -0.1134  0.0931 -0.0195
 8929TIP3    H148278   0.411   2.276  44.025 -2.2161  0.3511 -1.5895
 8929TIP3    H248279   0.373   2.418  43.989  1.0986  1.6726 -0.3434
 8930TIP3   OH248280   1.833   3.427  20.166  0.1016  0.1372 -0.0514
 8930TIP3    H148281   1.905   3.369  20.143 -0.2239 -0.7980  1.1472
 8930TIP3    H248282   1.759   3.396  20.113  0.2776  0.3441 -0.4194
 8931TIP3   OH248283   0.356   3.415  57.423 -0.1416 -0.1461 -0.3946
 8931TIP3    H148284   0.448   3.413  57.398 -0.2370 -0.2208 -0.7382
 8931TIP3    H248285   0.341   3.331  57.468 -0.0771 -0.1913 -0.4580
 8932TIP3   OH248286   1.347   0.772  18.813 -0.5601 -0.3809  0.2605
 8932TIP3    H148287   1.356   0.792  18.906 -2.2184  0.8424  0.2012
 8932TIP3    H248288   1.254   0.787  18.794  0.0635  1.1921 -1.9700
 8933TIP3   OH248289   2.137   0.070  14.321 -0.0556  0.0387 -0.3655
 8933TIP3    H148290   2.128   0.154  14.275 -0.7994 -0.3239 -0.8940
 8933TIP3    H248291   2.056   0.024  14.303  0.0231 -0.4922  0.5691
 8934TIP3   OH248292   3.104   1.157  17.022 -0.2042  0.7230 -0.2384
 8934TIP3    H148293   3.022   1.116  17.052 -0.0853  1.1420  0.7111
 8934TIP3    H248294   3.166   1.084  17.015 -0.6040  0.4331 -0.7681
 8935TIP3   OH248295   2.867   3.011  12.027  0.2193 -0.2127 -0.5840
 8935TIP3    H148296   2.916   2.948  12.079  1.7668 -0.2961 -2.0640
 8935TIP3    H248297   2.932   3.076  12.000 -0.1155 -0.9935 -3.6550
 8936TIP3   OH248298   3.278   0.945   5.887  0.3233 -0.1289  0.4646
 8936TIP3    H148299   3.198   0.909   5.848  0.1454  1.3481 -0.6450
 8936TIP3    H248300   3.319   0.871   5.932 -1.4136 -1.0251  0.6437
 8937TIP3   OH248301   2.258   2.145  57.631  0.5245 -0.1132  0.2143
 8937TIP3    H148302   2.313   2.085  57.581  0.2384 -0.0510 -0.1819
 8937TIP3    H248303   2.318   2.210  57.667  0.6086  0.4922 -0.9739
 8938TIP3   OH248304   2.713   2.549  59.360 -0.2971 -0.1194  0.5410
 8938TIP3    H148305   2.689   2.463  59.326  1.2320 -0.2376 -0.3443
 8938TIP3    H248306   2.787   2.531  59.419  1.2974  0.7100 -1.0903
 8939TIP3   OH248307   2.486   3.112  11.982 -0.6187 -0.0975 -0.0531
 8939TIP3    H148308   2.481   3.173  12.056  0.7466 -0.7556  0.6159
 8939TIP3    H248309   2.530   3.035  12.017  0.1237 -0.4023 -1.5644
 8940TIP3   OH248310   0.587   1.192  22.899 -0.5640 -0.2621  0.1614
 8940TIP3    H148311   0.524   1.197  22.970 -0.7368 -0.9452  0.0608
 8940TIP3    H248312   0.670   1.220  22.939 -0.8240  0.1665  0.4128
 8941TIP3   OH248313   3.235   2.676  21.547 -0.1825 -0.2683 -0.1609
 8941TIP3    H148314   3.213   2.589  21.579  1.7760 -1.3278 -1.4640
 8941TIP3    H248315   3.232   2.668  21.452  2.8191  0.2025 -0.3859
 8942TIP3   OH248316   0.854   1.636  36.402  0.8054 -0.1806  0.3491
 8942TIP3    H148317   0.941   1.644  36.363  1.1875  0.0409  1.2203
 8942TIP3    H248318   0.866   1.578  36.477  0.8220  2.0322  2.1790
 8943TIP3   OH248319   2.206   3.284  12.223  0.3647  0.7559 -0.2670
 8943TIP3    H148320   2.278   3.327  12.177 -0.2607  1.0001 -1.0553
 8943TIP3    H248321   2.234   3.193  12.233  1.7312  1.3189  1.4683
 8944TIP3   OH248322   0.326   1.724  50.661 -0.3269  0.0475  0.1488
 8944TIP3    H148323   0.272   1.722  50.582 -1.6327 -1.0374  1.0289
 8944TIP3    H248324   0.387   1.796  50.646 -1.2410  0.5487 -1.3958
 8945TIP3   OH248325   2.943   3.057   2.602 -0.0100  0.4646  0.3565
 8945TIP3    H148326   3.004   2.988   2.579 -0.6309  0.3151 -0.9523
 8945TIP3    H248327   2.867   3.011   2.638  0.0617  0.5532  0.6244
 8946TIP3   OH248328   1.378   2.972  67.454  0.2297  0.0089  0.1084
 8946TIP3    H148329   1.351   2.880  67.446  0.9556 -0.2699  0.7148
 8946TIP3    H248330   1.300   3.017  67.484  0.1268 -0.5942  0.7835
 8947TIP3   OH248331   0.499   2.033   1.071 -0.7825  0.3508 -0.3874
 8947TIP3    H148332   0.482   2.119   1.110 -0.3268 -0.0051  0.6528
 8947TIP3    H248333   0.591   2.016   1.091 -1.6751 -1.8453  2.5445
 8948TIP3   OH248334   3.212   2.794   3.189  0.0590  0.2601 -0.1656
 8948TIP3    H148335   3.155   2.869   3.177 -0.6037 -0.4415 -1.6440
 8948TIP3    H248336   3.157   2.718   3.169  1.4707 -0.4350 -1.6986
 8949TIP3   OH248337   3.216   1.456  21.322 -0.6932  0.5528 -0.4939
 8949TIP3    H148338   3.187   1.546  21.305 -1.4112  0.2350 -1.0387
 8949TIP3    H248339   3.219   1.416  21.235  3.0288  0.9883 -0.7249
 8950TIP3   OH248340   0.399   2.789   0.784 -0.5941  0.2611  0.2260
 8950TIP3    H148341   0.355   2.794   0.869  1.0007 -0.9035  1.1787
 8950TIP3    H248342   0.328   2.782   0.721 -1.7955  0.0016  1.5551
 8951TIP3   OH248343   0.429   1.499  14.545  0.7209  0.0440  0.1727
 8951TIP3    H148344   0.403   1.407  14.531  1.2372 -0.1888  0.6904
 8951TIP3    H248345   0.459   1.501  14.636  0.2397  0.8448  0.3194
 8952TIP3   OH248346   2.616   2.810  62.227  0.7672 -0.6598  0.0638
 8952TIP3    H148347   2.615   2.718  62.253  1.0726 -0.9383 -0.8754
 8952TIP3    H248348   2.695   2.819  62.174  0.2129 -0.0986 -0.6820
 8953TIP3   OH248349   2.261   2.058  45.365  0.1628 -0.1074 -0.7025
 8953TIP3    H148350   2.279   2.143  45.325  0.4766 -0.5606 -1.5513
 8953TIP3    H248351   2.248   2.077  45.457  0.8241  0.7874 -0.7821
 8954TIP3   OH248352   2.550   2.919  17.981  0.8183 -0.7975 -1.2683
 8954TIP3    H148353   2.468   2.966  17.964  0.2041 -0.8970  1.0016
 8954TIP3    H248354   2.599   2.978  18.038  1.1998 -1.7914 -0.5395
 8955TIP3   OH248355   2.145   3.249  62.405 -0.7736 -0.2332 -0.3890
 8955TIP3    H148356   2.089   3.269  62.480 -0.1574  0.0806 -0.0080
 8955TIP3    H248357   2.165   3.334  62.366  0.0715 -0.2665 -0.0537
 8956TIP3   OH248358   3.055   1.453   8.265  0.2855  0.7754 -0.7489
 8956TIP3    H148359   3.127   1.431   8.205 -0.2695  1.4381 -1.6922
 8956TIP3    H248360   2.992   1.381   8.254  0.1508  0.9340 -1.0228
 8957TIP3   OH248361   1.671   0.349   5.408 -0.4473 -0.0742 -0.0129
 8957TIP3    H148362   1.589   0.330   5.362 -1.1314  0.5484  0.9147
 8957TIP3    H248363   1.659   0.312   5.495  0.7245 -0.9878 -0.2189
 8958TIP3   OH248364   3.190   0.489  17.802 -0.1468  0.0980  0.0141
 8958TIP3    H148365   3.179   0.446  17.717 -2.0339 -1.7409  1.0721
 8958TIP3    H248366   3.144   0.572  17.794 -1.1729 -0.4992 -0.5058
 8959TIP3   OH248367   1.921   1.131  66.710  0.6136 -0.3334 -0.3680
 8959TIP3    H148368   2.010   1.165  66.703  0.5568 -0.1033  0.0100
 8959TIP3    H248369   1.933   1.042  66.743  0.6041  0.5723  2.3390
 8960TIP3   OH248370   0.871   0.124  18.238 -0.2866  0.4128 -0.0947
 8960TIP3    H148371   0.860   0.182  18.163 -0.8839 -0.8060 -0.9852
 8960TIP3    H248372   0.957   0.085  18.225 -0.8306 -0.6161 -0.7713
 8961TIP3   OH248373   0.781   3.311  65.996 -0.2011  0.0491  0.0335
 8961TIP3    H148374   0.871   3.327  65.968  0.3363  0.0969  1.6588
 8961TIP3    H248375   0.731   3.306  65.915  1.0935  1.0749 -0.8683
 8962TIP3   OH248376   0.893   2.240  42.232  0.7020 -0.7422  0.2958
 8962TIP3    H148377   0.822   2.304  42.224  1.1992 -0.2135  0.0837
 8962TIP3    H248378   0.849   2.156  42.230  0.1108 -0.4275 -0.2228
 8963TIP3   OH248379   3.441   0.861  47.093 -0.3132  0.3921  0.1414
 8963TIP3    H148380   3.432   0.781  47.144  0.6232 -0.3212 -0.7731
 8963TIP3    H248381   3.534   0.864  47.070 -0.4066  1.5677 -0.1326
 8964TIP3   OH248382   0.297   0.046  59.933 -0.1588  0.3443  0.0996
 8964TIP3    H148383   0.319   0.039  59.840 -0.4821  2.0585 -0.1410
 8964TIP3    H248384   0.254  -0.037  59.954  0.0372 -0.1226 -1.2355
 8965TIP3   OH248385   2.721   2.741   4.745 -0.4091  0.1885 -0.1312
 8965TIP3    H148386   2.734   2.723   4.838 -2.0219  0.4792  0.1862
 8965TIP3    H248387   2.803   2.714   4.703  0.1305 -0.4796  1.2953
 8966TIP3   OH248388   2.384   0.319   6.240  0.2509 -0.1743  1.0799
 8966TIP3    H148389   2.309   0.272   6.203  0.7064 -0.8571  1.0180
 8966TIP3    H248390   2.368   0.411   6.216 -0.0164 -0.4509  0.1395
 8967TIP3   OH248391   0.930   0.135  67.439 -0.1118 -0.2329  0.8112
 8967TIP3    H148392   0.963   0.218  67.474 -0.1184  0.1803 -0.1295
 8967TIP3    H248393   0.889   0.092  67.514 -1.6970  1.4167  0.9497
 8968TIP3   OH248394   2.600   0.183  25.643  0.7996  0.1593 -0.3706
 8968TIP3    H148395   2.585   0.223  25.729  2.6858 -1.4253  0.7825
 8968TIP3    H248396   2.680   0.225  25.611  0.5144  0.2139 -1.0207
 8969TIP3   OH248397   2.082   2.732  52.615 -0.5668  0.0422  0.2763
 8969TIP3    H148398   2.032   2.785  52.553 -0.3606 -0.3243 -0.2156
 8969TIP3    H248399   2.101   2.791  52.688 -0.7604  0.4995 -0.0385
 8970TIP3   OH248400   3.261   0.243  50.996 -0.0897  0.1821 -0.2510
 8970TIP3    H148401   3.295   0.158  50.970  0.6020  0.9988 -2.1555
 8970TIP3    H248402   3.171   0.243  50.966 -0.1975  0.0039  0.0662
 8971TIP3   OH248403   3.055   2.020  16.749 -0.3072 -0.0644  0.1935
 8971TIP3    H148404   2.983   2.081  16.738 -1.0176 -1.0462 -0.7656
 8971TIP3    H248405   3.031   1.967  16.825 -0.9037 -0.7842 -0.4841
 8972TIP3   OH248406   1.450   1.629  47.462  0.5439 -0.3441 -0.5560
 8972TIP3    H148407   1.527   1.684  47.452 -0.2200  0.8712 -0.0100
 8972TIP3    H248408   1.388   1.683  47.512  0.4471 -2.3322  1.6755
 8973TIP3   OH248409   1.827   1.863   4.634  0.0957  0.2195 -0.4614
 8973TIP3    H148410   1.912   1.893   4.665  0.0386 -1.0155  0.9838
 8973TIP3    H248411   1.770   1.866   4.711 -1.0304  0.4985 -1.2750
 8974TIP3   OH248412   1.080   3.141  54.488  0.3804 -0.3016 -0.3167
 8974TIP3    H148413   1.107   3.180  54.571  0.4054 -1.9223  0.4783
 8974TIP3    H248414   1.050   3.215  54.435 -0.3757  0.6823  1.4160
 8975TIP3   OH248415   2.025   1.659  15.223 -0.0524  0.0325 -0.1574
 8975TIP3    H148416   1.975   1.624  15.296 -0.9293  1.7181  0.0946
 8975TIP3    H248417   2.007   1.753  15.225  1.4775  0.3767 -1.3467
 8976TIP3   OH248418   0.368   1.369   1.756  0.6592 -0.1590 -0.8048
 8976TIP3    H148419   0.356   1.442   1.817  0.2590 -0.8168 -0.0729
 8976TIP3    H248420   0.457   1.337   1.773  0.1100 -1.1482  0.3711
 8977TIP3   OH248421   0.708   3.145   4.350 -0.0085  0.9162 -0.1370
 8977TIP3    H148422   0.795   3.167   4.381  0.4612 -1.1435  0.1678
 8977TIP3    H248423   0.664   3.108   4.427 -0.2567 -0.3962 -0.8778
 8978TIP3   OH248424   2.725   1.153  28.546  0.0297 -0.6002  0.2103
 8978TIP3    H148425   2.715   1.150  28.641 -0.5947 -1.6987  0.1244
 8978TIP3    H248426   2.754   1.065  28.522  0.7820 -0.1525 -0.5627
 8979TIP3   OH248427   0.605   1.844  62.508 -0.5923 -0.2777  0.1779
 8979TIP3    H148428   0.658   1.920  62.485  0.9715 -1.4658 -0.2690
 8979TIP3    H248429   0.665   1.770  62.502 -2.1471 -1.5953  0.3200
 8980TIP3   OH248430   2.561   3.078  45.114  0.6004  0.4846  0.5954
 8980TIP3    H148431   2.617   3.110  45.184  0.2061  2.3329  0.1071
 8980TIP3    H248432   2.616   3.083  45.036  0.5086  0.0150  0.4984
 8981TIP3   OH248433   1.084   2.409  52.702 -0.1162 -0.5125  0.3824
 8981TIP3    H148434   1.128   2.340  52.752 -1.1281 -0.0487  1.9955
 8981TIP3    H248435   1.001   2.422  52.749 -0.7941  0.4510 -1.0344
 8982TIP3   OH248436   0.351   0.852  13.700  0.3135  0.3286  0.1031
 8982TIP3    H148437   0.278   0.887  13.647  0.2652  0.0273 -0.0316
 8982TIP3    H248438   0.420   0.917  13.690  1.1702 -0.8264 -2.2739
 8983TIP3   OH248439   1.796   2.402   4.847  0.0179 -0.2085  0.0044
 8983TIP3    H148440   1.812   2.495   4.836  2.1865 -0.7214 -1.9135
 8983TIP3    H248441   1.861   2.374   4.912 -0.2023 -0.4972  0.1026
 8984TIP3   OH248442   1.473   0.344  15.460 -0.0696  0.0750  0.1527
 8984TIP3    H148443   1.429   0.414  15.413  0.0566  1.4315  1.9283
 8984TIP3    H248444   1.552   0.385  15.495  0.5538 -1.2479  0.3750
 8985TIP3   OH248445   0.930   0.181  65.827  0.0381 -0.2774  0.2945
 8985TIP3    H148446   0.959   0.096  65.860  0.0512 -0.0112  0.9819
 8985TIP3    H248447   0.858   0.206  65.885  1.6881  1.3710  1.7638
 8986TIP3   OH248448   3.138   0.918  21.984  0.1191  0.4863  0.2596
 8986TIP3    H148449   3.100   0.977  21.918 -0.4750 -0.2273 -0.0471
 8986TIP3    H248450   3.086   0.934  22.063  0.5963  1.0766  0.4645
 8987TIP3   OH248451   1.932   0.871  57.381 -0.3014  0.1188  0.2957
 8987TIP3    H148452   1.987   0.850  57.456 -2.5367  0.6537  2.2049
 8987TIP3    H248453   1.906   0.785  57.346 -0.9721 -0.1983  1.5193
 8988TIP3   OH248454   0.509   0.651  59.671 -0.8345  0.0939  0.2344
 8988TIP3    H148455   0.432   0.705  59.687  0.3849  2.1929 -0.4393
 8988TIP3    H248456   0.511   0.589  59.743 -1.6711  1.7968  1.8108
 8989TIP3   OH248457   2.358   2.586   3.718 -0.6548 -0.3204 -0.2432
 8989TIP3    H148458   2.354   2.591   3.622 -2.1027 -0.0198 -0.1823
 8989TIP3    H248459   2.360   2.492   3.737 -0.3845 -0.3819 -0.5538
 8990TIP3   OH248460   0.797   1.823  21.428  0.4120 -0.8768  0.2553
 8990TIP3    H148461   0.799   1.865  21.514 -0.9686 -2.3656  1.0765
 8990TIP3    H248462   0.708   1.790  21.421  0.2388 -0.0510 -2.1487
 8991TIP3   OH248463   1.620   0.908  13.165  0.1492 -0.6820 -0.5598
 8991TIP3    H148464   1.548   0.937  13.110 -0.9463 -0.5608  0.8730
 8991TIP3    H248465   1.603   0.947  13.251  0.2240 -3.0840  0.6471
 8992TIP3   OH248466   2.676   0.376   8.369  0.2469 -0.1071  0.8262
 8992TIP3    H148467   2.623   0.309   8.325 -0.0611  1.0820 -0.7009
 8992TIP3    H248468   2.642   0.459   8.336  1.9458  0.7538  1.1263
 8993TIP3   OH248469   1.163   0.641  13.038  0.2643 -0.1898 -0.7244
 8993TIP3    H148470   1.159   0.587  12.958  1.4666 -0.6645 -0.4951
 8993TIP3    H248471   1.075   0.635  13.076 -0.1101 -0.5641 -1.6236
 8994TIP3   OH248472   0.504   2.767  46.931 -0.0758 -0.1273  0.1306
 8994TIP3    H148473   0.456   2.721  47.000 -1.0896 -1.2531 -1.2500
 8994TIP3    H248474   0.587   2.718  46.923 -0.1011 -0.2026  0.3224
 8995TIP3   OH248475   1.127   3.080   8.808 -0.2881 -0.0435  0.5983
 8995TIP3    H148476   1.143   3.112   8.719  0.5222 -0.8888  0.4258
 8995TIP3    H248477   1.163   2.992   8.809 -2.7622 -1.1157  0.9905
 8996TIP3   OH248478   0.104   1.343  60.001  0.1793 -0.1474  0.0937
 8996TIP3    H148479   0.149   1.259  59.998  1.2741  0.4411 -1.1614
 8996TIP3    H248480   0.012   1.322  59.989  0.4748 -1.1401 -0.5652
 8997TIP3   OH248481   1.486   1.082  22.360 -0.3846 -0.1609  0.5017
 8997TIP3    H148482   1.536   1.035  22.292 -1.7949 -1.7015  0.4723
 8997TIP3    H248483   1.502   1.032  22.440 -2.0869 -0.8736  0.4304
 8998TIP3   OH248484   0.981   2.665  12.194  0.5995 -0.4661  0.3061
 8998TIP3    H148485   0.974   2.627  12.107 -2.6881 -0.7761  0.5831
 8998TIP3    H248486   0.983   2.589  12.253  1.4756 -0.2398  0.5879
 8999TIP3   OH248487   2.825   2.903  65.312  0.6083  0.1703  0.2067
 8999TIP3    H148488   2.899   2.942  65.359  0.7099  0.7216 -0.3975
 8999TIP3    H248489   2.770   2.977  65.288  1.0187  0.0022 -1.3258
 9000TIP3   OH248490   0.422   1.628  46.813  0.4222  0.1465  0.2287
 9000TIP3    H148491   0.424   1.720  46.839  0.0587 -0.5382  2.9763
 9000TIP3    H248492   0.377   1.583  46.886  2.2317 -2.4710 -0.1252
 9001TIP3   OH248493   0.570   2.693  11.925  0.0791 -0.5034  0.4400
 9001TIP3    H148494   0.631   2.742  11.870  0.7097 -0.2700  1.3222
 9001TIP3    H248495   0.622   2.620  11.959 -0.8387 -1.8046 -0.8252
 9002TIP3   OH248496   0.564   2.951   2.813  0.3475 -0.3983  0.1666
 9002TIP3    H148497   0.615   2.870   2.821 -0.2418 -0.6693  1.4925
 9002TIP3    H248498   0.474   2.924   2.830 -0.2017  0.1613 -1.6721
 9003TIP3   OH248499   3.190   0.160  46.234  0.0128 -0.2807  0.0499
 9003TIP3    H148500   3.198   0.251  46.206  0.8682 -0.6217 -0.8735
 9003TIP3    H248501   3.168   0.165  46.327 -0.7186  0.8666 -0.1636
 9004TIP3   OH248502   1.749   2.487  10.054  0.2437  0.0356  0.7399
 9004TIP3    H148503   1.690   2.506   9.981 -0.1580 -0.0995  1.0242
 9004TIP3    H248504   1.699   2.426  10.110  0.3589  0.4998  1.3671
 9005TIP3   OH248505   0.590   3.350  14.833 -1.1819  0.8306  0.6523
 9005TIP3    H148506   0.566   3.332  14.742 -1.4771 -0.4165  0.9593
 9005TIP3    H248507   0.666   3.294  14.850 -0.6334  1.6387  0.9553
 9006TIP3   OH248508   2.708   0.844  19.118 -0.2345  0.2612  0.3748
 9006TIP3    H148509   2.636   0.907  19.119  1.2896  2.0619  1.2593
 9006TIP3    H248510   2.781   0.892  19.080  0.7957 -1.2022  0.4393
 9007TIP3   OH248511   0.291   0.455  58.648 -0.0747 -0.4510  0.6433
 9007TIP3    H148512   0.315   0.489  58.734 -0.1086  2.0876 -0.2523
 9007TIP3    H248513   0.243   0.526  58.607  2.8379 -0.1185 -2.7484
 9008TIP3   OH248514   2.973   1.144  15.899  0.2734 -0.4777 -0.3730
 9008TIP3    H148515   3.056   1.159  15.945  0.1018 -0.5315 -0.0355
 9008TIP3    H248516   2.913   1.116  15.969 -0.1391 -0.0287 -0.5478
 9009TIP3   OH248517   1.422   1.273  56.755  0.3365  0.1299 -0.2713
 9009TIP3    H148518   1.388   1.211  56.690  2.4998 -1.0647 -0.3785
 9009TIP3    H248519   1.358   1.273  56.825 -0.0636 -1.7534 -0.5898
 9010TIP3   OH248520   3.073   1.189  66.427 -0.6754  0.2608  0.7450
 9010TIP3    H148521   3.009   1.260  66.419 -0.2385  0.7036  1.0689
 9010TIP3    H248522   3.108   1.178  66.339 -0.9622  0.2411  0.6373
 9011TIP3   OH248523   2.374   0.085  27.563 -0.1693  0.1069  0.0866
 9011TIP3    H148524   2.414   0.151  27.507  1.5641 -1.2318 -0.3665
 9011TIP3    H248525   2.299   0.052  27.513 -0.4618  1.0419 -0.0977
 9012TIP3   OH248526   1.065   2.865  65.083  0.8059  0.0216 -0.0599
 9012TIP3    H148527   1.122   2.809  65.030  0.7902  0.7468 -0.8687
 9012TIP3    H248528   1.079   2.953  65.049 -3.1073 -0.0608 -2.5740
 9013TIP3   OH248529   0.043   3.265  50.571 -0.1808 -0.2969 -0.1859
 9013TIP3    H148530   0.077   3.236  50.486 -0.9383  0.6227 -0.8086
 9013TIP3    H248531   0.101   3.222  50.634  0.4938 -0.8741 -1.1548
 9014TIP3   OH248532   1.301   2.834  63.308  0.6292 -0.0172 -0.3003
 9014TIP3    H148533   1.223   2.875  63.271  0.3298 -0.2905  0.0173
 9014TIP3    H248534   1.331   2.896  63.374  0.6244  0.0463 -0.3579
 9015TIP3   OH248535   0.514   0.191  50.852 -0.3967  0.0574  0.9980
 9015TIP3    H148536   0.550   0.277  50.831 -2.5821  1.2958  2.0273
 9015TIP3    H248537   0.432   0.186  50.802  0.8954 -2.5950 -1.1471
 9016TIP3   OH248538   1.538   2.645  42.914 -0.2696 -0.0455  0.1404
 9016TIP3    H148539   1.589   2.725  42.921 -2.2690  1.3952 -0.8219
 9016TIP3    H248540   1.594   2.578  42.953  1.7610  1.6534  0.3542
 9017TIP3   OH248541   1.407   0.242  42.857  0.3594 -0.0733 -0.1324
 9017TIP3    H148542   1.486   0.188  42.858  2.0096  2.0116 -3.0161
 9017TIP3    H248543   1.436   0.327  42.891 -0.6926  0.6692 -1.0397
 9018TIP3   OH248544   1.135   0.377  17.656  0.2467  0.0690  0.0443
 9018TIP3    H148545   1.096   0.384  17.569  0.2689  0.5034  0.0671
 9018TIP3    H248546   1.110   0.458  17.701  0.0434 -0.2502  0.5253
 9019TIP3   OH248547   0.149   2.409  12.648 -0.1449 -0.1454 -0.0218
 9019TIP3    H148548   0.197   2.379  12.725  1.5412  0.0591 -0.9518
 9019TIP3    H248549   0.216   2.422  12.581 -1.6829 -1.6831 -1.9919
 9020TIP3   OH248550   1.552   1.692  48.250 -0.3907  0.2470 -0.4242
 9020TIP3    H148551   1.466   1.733  48.245 -0.8645 -0.5598  0.7454
 9020TIP3    H248552   1.563   1.671  48.343  0.2815 -1.3212 -0.8300
 9021TIP3   OH248553   1.432   3.347  19.305  0.4978 -0.9315  0.3637
 9021TIP3    H148554   1.507   3.288  19.311  1.7531  0.5020 -0.5955
 9021TIP3    H248555   1.381   3.315  19.231  2.3488  0.3750 -1.5988
 9022TIP3   OH248556   0.519   1.704  17.366 -0.2729 -0.5213  0.5874
 9022TIP3    H148557   0.561   1.658  17.294  1.3136 -0.3198  1.3475
 9022TIP3    H248558   0.549   1.658  17.445  0.3610  1.0307  1.2973
 9023TIP3   OH248559   3.027   0.306  52.696  0.2447  0.4327 -0.3929
 9023TIP3    H148560   3.063   0.284  52.782  1.9749 -0.1057 -1.2122
 9023TIP3    H248561   3.022   0.401  52.695  0.1087  0.4365  0.3409
 9024TIP3   OH248562   2.054   1.512  16.340 -0.6315  0.2769 -0.2082
 9024TIP3    H148563   2.103   1.594  16.334  0.0401 -0.1879 -1.4131
 9024TIP3    H248564   1.969   1.531  16.301 -2.2006  1.5574  3.3461
 9025TIP3   OH248565   2.292   1.669  28.106 -0.2084  0.0602  0.4524
 9025TIP3    H148566   2.315   1.586  28.149 -0.1289 -0.5446 -0.7164
 9025TIP3    H248567   2.232   1.644  28.035 -0.3196  1.0218  0.1923
 9026TIP3   OH248568   2.677   0.658  44.993  0.1325  0.0359 -0.5385
 9026TIP3    H148569   2.714   0.727  45.047  0.4654 -0.0179 -0.6931
 9026TIP3    H248570   2.676   0.694  44.904  0.3526 -0.1686 -0.6290
 9027TIP3   OH248571   0.697   1.812  20.763  0.6383 -0.2084  0.1522
 9027TIP3    H148572   0.656   1.758  20.831 -1.7426  1.5214  0.2377
 9027TIP3    H248573   0.782   1.836  20.800 -0.2106 -0.0788  2.1993
 9028TIP3   OH248574   2.085   3.180  51.828 -0.0317  0.1808 -0.4993
 9028TIP3    H148575   2.107   3.091  51.803  0.7002  0.3697 -0.5625
 9028TIP3    H248576   2.148   3.234  51.780 -0.3737  0.7203 -0.3500
 9029TIP3   OH248577   0.089   2.742  46.808 -0.1892 -0.0536 -0.0468
 9029TIP3    H148578   0.168   2.761  46.756 -0.7496 -0.3304 -1.0252
 9029TIP3    H248579   0.088   2.810  46.875  0.5416  0.3412 -0.4169
 9030TIP3   OH248580   1.152   2.307  20.650 -0.1879  0.3064  0.1984
 9030TIP3    H148581   1.167   2.401  20.654 -0.1211  0.2566  1.4283
 9030TIP3    H248582   1.181   2.281  20.563  0.5900  1.2856  0.1636
 9031TIP3   OH248583   2.171   3.349  14.771  0.2818 -0.0557 -0.3392
 9031TIP3    H148584   2.079   3.362  14.792  1.1750  2.6445  2.7333
 9031TIP3    H248585   2.197   3.429  14.725  1.2034 -0.6208 -0.8341
 9032TIP3   OH248586   2.436   1.094  14.652  0.2849 -0.0680  0.0960
 9032TIP3    H148587   2.358   1.092  14.597  0.6706  1.8606 -0.6081
 9032TIP3    H248588   2.503   1.135  14.597  1.1023  0.5751  1.5111
 9033TIP3   OH248589   2.322   3.040  52.078 -0.2406  0.0339  0.2272
 9033TIP3    H148590   2.308   2.955  52.119 -1.2137  0.2638  0.4089
 9033TIP3    H248591   2.377   3.022  52.002 -0.7710 -0.8281  0.0321
 9034TIP3   OH248592   0.664   3.209  65.485 -0.0650  0.0511 -0.2650
 9034TIP3    H148593   0.680   3.186  65.393 -0.3281 -1.4445  0.0397
 9034TIP3    H248594   0.729   3.276  65.505  0.4348 -0.0945 -1.3504
 9035TIP3   OH248595   2.735   0.588   9.604  0.5853  0.0028 -0.9012
 9035TIP3    H148596   2.814   0.571   9.655  0.8852 -0.6246 -1.5613
 9035TIP3    H248597   2.664   0.556   9.658  0.8705 -0.3098 -0.7089
 9036TIP3   OH248598   1.163   2.144  50.065 -0.3936 -0.2504 -0.2735
 9036TIP3    H148599   1.149   2.067  50.121 -0.9262  0.2718  0.3340
 9036TIP3    H248600   1.236   2.190  50.106  0.0041 -0.4941 -0.7090
 9037TIP3   OH248601   2.627   2.676   5.403 -0.0579  0.1230  0.6380
 9037TIP3    H148602   2.660   2.668   5.313 -1.3098 -1.0482  0.2478
 9037TIP3    H248603   2.595   2.766   5.408 -0.9040 -0.0853 -0.4546
 9038TIP3   OH248604   3.383   2.592  15.171 -0.7841 -0.9276  0.5189
 9038TIP3    H148605   3.455   2.561  15.115 -0.3867 -1.0064  1.0656
 9038TIP3    H248606   3.305   2.551  15.134 -0.2697 -2.6439  1.2385
 9039TIP3   OH248607   2.985   1.059  10.751 -0.4358  0.0599  1.0300
 9039TIP3    H148608   2.899   1.086  10.718  0.2081  0.2889 -0.5574
 9039TIP3    H248609   3.016   0.995  10.687  1.6653  1.8822  0.0944
 9040TIP3   OH248610   0.308   3.353  16.861 -0.1463 -0.5539 -0.1727
 9040TIP3    H148611   0.368   3.300  16.914  0.1615  0.2403  0.2738
 9040TIP3    H248612   0.224   3.348  16.907 -0.0497 -0.4294  0.0169
 9041TIP3   OH248613   2.721   3.237   3.376 -0.1347 -0.5644  0.2004
 9041TIP3    H148614   2.800   3.183   3.389  0.2681  0.0481  0.3426
 9041TIP3    H248615   2.713   3.287   3.458 -0.2052 -0.0282 -0.1311
 9042TIP3   OH248616   0.897   0.127  61.404 -0.3921 -0.4886  0.2916
 9042TIP3    H148617   0.906   0.218  61.433 -1.5008 -0.4200  0.4824
 9042TIP3    H248618   0.931   0.075  61.477  1.7006 -0.2301 -0.4305
 9043TIP3   OH248619   2.679   0.083  66.085 -0.2709 -0.3581  0.4504
 9043TIP3    H148620   2.743   0.139  66.041  1.9349 -1.8553  1.5537
 9043TIP3    H248621   2.605   0.141  66.102  0.5004  1.3252 -1.4031
 9044TIP3   OH248622   0.118   0.902  60.802  0.5208 -0.2163 -0.0004
 9044TIP3    H148623   0.159   0.943  60.878 -0.5488 -0.1424  0.5639
 9044TIP3    H248624   0.124   0.967  60.733  0.1793  0.3114  0.4576
 9045TIP3   OH248625   1.285   0.604  65.708 -0.0114 -0.3703  0.0089
 9045TIP3    H148626   1.219   0.537  65.724  0.4555 -0.4687  1.8531
 9045TIP3    H248627   1.368   0.559  65.723  0.3660  0.2734 -0.1079
 9046TIP3   OH248628   0.685   1.740   9.778 -0.1584 -0.3286 -0.0533
 9046TIP3    H148629   0.741   1.719   9.853  1.2284  1.2080 -0.6002
 9046TIP3    H248630   0.711   1.828   9.752 -1.6424 -0.2511 -1.4404
 9047TIP3   OH248631   1.878   2.317  19.681  0.3683  0.0116 -0.2184
 9047TIP3    H148632   1.788   2.347  19.695  1.0576  1.5585  1.1884
 9047TIP3    H248633   1.896   2.262  19.757  0.9127  0.4724 -0.0075
 9048TIP3   OH248634   3.077   1.037  21.757  0.1526 -0.6334 -0.6231
 9048TIP3    H148635   3.100   1.125  21.725 -0.4257  0.0263  0.6732
 9048TIP3    H248636   3.003   1.010  21.703 -2.3872  1.4669  1.5523
 9049TIP3   OH248637   2.915   2.830  63.619  0.6682 -0.1707 -0.1832
 9049TIP3    H148638   2.986   2.815  63.682  0.8397  0.5122 -0.2153
 9049TIP3    H248639   2.864   2.901  63.658 -1.4618 -2.2506  1.0835
 9050TIP3   OH248640   1.765   2.321  63.875  0.0233  0.0321  0.2955
 9050TIP3    H148641   1.672   2.311  63.853 -0.4672  0.1661  2.0973
 9050TIP3    H248642   1.766   2.384  63.947  1.5182  0.0272  0.3138
 9051TIP3   OH248643   2.538   2.727  45.912  0.1880  0.4582  0.3190
 9051TIP3    H148644   2.589   2.675  45.973 -0.4584 -0.9396 -0.2944
 9051TIP3    H248645   2.541   2.677  45.830  0.1779  1.7671 -0.5100
 9052TIP3   OH248646   1.028   1.207  64.443  0.5563 -0.6391 -0.0937
 9052TIP3    H148647   1.104   1.204  64.502  1.8577 -0.0929 -1.6457
 9052TIP3    H248648   1.031   1.123  64.396  1.4547  0.1606 -1.5630
 9053TIP3   OH248649   0.882   3.283  22.391 -0.1180  0.0471  0.1923
 9053TIP3    H148650   0.881   3.339  22.468  0.1185  1.6758 -0.9208
 9053TIP3    H248651   0.942   3.212  22.413 -1.2259 -0.3871  2.0362
 9054TIP3   OH248652   2.160   1.328  10.201  0.0920 -0.5016  0.1694
 9054TIP3    H148653   2.106   1.406  10.190  1.3113  0.1669 -1.6640
 9054TIP3    H248654   2.244   1.362  10.232  0.3141 -1.1965  0.3345
 9055TIP3   OH248655   0.155   2.841  16.265 -0.2121 -0.3015 -0.5601
 9055TIP3    H148656   0.205   2.808  16.190 -1.6973 -0.8786 -1.3316
 9055TIP3    H248657   0.071   2.796  16.260 -0.0139 -1.1060  2.0477
 9056TIP3   OH248658   2.553   3.359   0.979  0.0963  0.7266 -0.4359
 9056TIP3    H148659   2.538   3.265   0.977  0.9813  0.5362  0.9447
 9056TIP3    H248660   2.601   3.377   0.898  0.6007 -0.1411 -0.3410
 9057TIP3   OH248661   2.225   2.815  15.452  0.5900  0.1148  0.1736
 9057TIP3    H148662   2.238   2.800  15.359 -1.6331  1.4371 -0.4367
 9057TIP3    H248663   2.273   2.896  15.471  1.8430 -0.6624  0.4494
 9058TIP3   OH248664   2.429   0.517  46.921 -0.2863  0.1398 -0.3521
 9058TIP3    H148665   2.382   0.600  46.931 -0.2663  0.3050 -1.4254
 9058TIP3    H248666   2.446   0.511  46.827  3.5820  1.0319  0.1331
 9059TIP3   OH248667   1.655   2.742  59.297 -0.5425  0.2452  0.0268
 9059TIP3    H148668   1.612   2.656  59.301 -2.1930  1.0564  0.5540
 9059TIP3    H248669   1.675   2.755  59.205 -1.2756 -0.2321 -0.2011
 9060TIP3   OH248670   2.985   2.075  11.801  0.1454  0.3332  0.1488
 9060TIP3    H148671   2.962   2.104  11.890 -1.2788  1.3902 -0.5247
 9060TIP3    H248672   2.958   2.148  11.745 -3.0143 -1.9338 -1.5792
 9061TIP3   OH248673   0.903   1.768  59.313  0.2531  0.0763  0.2524
 9061TIP3    H148674   0.974   1.806  59.261  1.0227  0.3572  1.4863
 9061TIP3    H248675   0.827   1.822  59.293  0.5425  0.2057 -0.5439
 9062TIP3   OH248676   0.527   0.650  19.817  0.1097 -0.3649  0.1587
 9062TIP3    H148677   0.603   0.636  19.761  0.5483  0.5435  0.5097
 9062TIP3    H248678   0.459   0.593  19.781  0.3010  0.3917 -1.4548
 9063TIP3   OH248679   1.367   2.493  17.330  0.4062 -0.0461  0.6709
 9063TIP3    H148680   1.414   2.464  17.252  0.1645  0.9224  0.1486
 9063TIP3    H248681   1.288   2.439  17.331 -1.8187  2.7407 -2.2824
 9064TIP3   OH248682   1.987   1.671  58.079  0.3611  0.3578  0.2497
 9064TIP3    H148683   2.012   1.655  57.988 -1.2438 -1.7328  0.0937
 9064TIP3    H248684   2.053   1.625  58.131  0.4720  0.3397  0.0909
 9065TIP3   OH248685   1.460   1.802  16.472  0.0263  0.2290  0.2224
 9065TIP3    H148686   1.554   1.812  16.460 -0.0035 -1.8931 -3.0703
 9065TIP3    H248687   1.426   1.891  16.476  1.7567  1.2529 -3.7208
 9066TIP3   OH248688   2.643   1.222  28.259 -0.5184  0.1337  0.3509
 9066TIP3    H148689   2.588   1.155  28.217 -0.8119 -0.1428  1.1601
 9066TIP3    H248690   2.660   1.187  28.347  0.0989  0.7004  0.4647
 9067TIP3   OH248691   0.524   2.815  42.888 -0.4150 -0.2617 -0.5252
 9067TIP3    H148692   0.595   2.763  42.925  0.0346 -0.8085 -2.0655
 9067TIP3    H248693   0.508   2.884  42.952  1.3096 -0.2964 -0.0134
 9068TIP3   OH248694   1.262   2.607   3.599 -0.0221 -0.1058 -0.1424
 9068TIP3    H148695   1.213   2.680   3.637  0.6407  0.2860 -0.0219
 9068TIP3    H248696   1.354   2.627   3.619  0.2385 -0.5107 -0.9135
 9069TIP3   OH248697   1.778   0.748  58.757  0.6435 -0.4700 -0.0040
 9069TIP3    H148698   1.855   0.801  58.776  0.4989  0.3909 -1.6229
 9069TIP3    H248699   1.814   0.669  58.716  0.7275 -0.5160  0.1593
 9070TIP3   OH248700   0.390   0.757  49.560  0.7401 -0.0969  0.1309
 9070TIP3    H148701   0.329   0.759  49.486  0.7250 -0.6932  0.1234
 9070TIP3    H248702   0.382   0.668  49.596  0.3129  0.3582  1.2175
 9071TIP3   OH248703   0.675   3.023  21.536  0.0561 -0.4301  0.5212
 9071TIP3    H148704   0.707   2.961  21.471 -0.1296  0.3875 -0.3736
 9071TIP3    H248705   0.719   2.997  21.617  2.5986  0.2969 -0.5294
 9072TIP3   OH248706   3.069   2.681  47.744  0.3159 -0.7056 -0.2414
 9072TIP3    H148707   3.015   2.706  47.669 -0.3283 -0.8953  0.1504
 9072TIP3    H248708   3.009   2.683  47.819  1.4617  1.8083  0.7209
 9073TIP3   OH248709   1.176   2.908  57.682 -0.0528  0.0580  0.0935
 9073TIP3    H148710   1.235   2.872  57.749 -0.3204 -0.7830 -0.1022
 9073TIP3    H248711   1.225   2.980  57.643 -0.1613  1.0221  1.6563
 9074TIP3   OH248712   2.481   3.371   9.959  0.2517 -0.4534  0.4585
 9074TIP3    H148713   2.419   3.316  10.007  2.1321 -2.0934  1.1154
 9074TIP3    H248714   2.534   3.412  10.027  0.7166 -0.0676 -0.1241
 9075TIP3   OH248715   1.621   0.494  45.210  0.0579 -0.1664 -0.2610
 9075TIP3    H148716   1.570   0.486  45.291  0.1857 -2.7823 -0.3548
 9075TIP3    H248717   1.602   0.414  45.162  2.0313  0.1190 -1.6310
 9076TIP3   OH248718   2.746   2.052  26.340  0.1590  0.7627 -0.0686
 9076TIP3    H148719   2.805   2.013  26.276 -0.7648  0.6705 -0.8904
 9076TIP3    H248720   2.666   1.999  26.336  0.4587  0.0638  1.9791
 9077TIP3   OH248721   0.472   0.740  38.904 -0.3609 -0.6982  0.2938
 9077TIP3    H148722   0.432   0.660  38.940  0.9813 -1.0781  1.0067
 9077TIP3    H248723   0.559   0.743  38.944  0.4653 -0.0811 -1.4760
 9078TIP3   OH248724   3.439   2.765  66.544  0.0404  0.0445  0.6529
 9078TIP3    H148725   3.366   2.706  66.563 -1.3434  1.1501 -0.9192
 9078TIP3    H248726   3.458   2.750  66.452  0.9041  0.7574  0.7077
 9079TIP3   OH248727   1.272   1.434   4.051 -0.1905  0.2394 -0.0612
 9079TIP3    H148728   1.255   1.505   3.990 -0.5822  1.3378  1.2825
 9079TIP3    H248729   1.191   1.384   4.054 -0.2870  0.3916 -0.1633
 9080TIP3   OH248730   0.260   3.072   4.417 -0.4375  0.0825 -0.2320
 9080TIP3    H148731   0.183   3.015   4.413 -0.1153 -0.3303 -0.7432
 9080TIP3    H248732   0.313   3.037   4.489  0.3474 -1.0531 -1.3101
 9081TIP3   OH248733   0.296   2.184  64.201  0.3142  0.4335 -0.1640
 9081TIP3    H148734   0.263   2.273  64.215  0.5464  0.2602  1.8591
 9081TIP3    H248735   0.357   2.192  64.128 -0.2047  1.8042 -0.4635
 9082TIP3   OH248736   2.890   2.248  64.216  0.3165  0.1269 -0.3155
 9082TIP3    H148737   2.826   2.319  64.212  0.7892  0.5506 -0.5175
 9082TIP3    H248738   2.857   2.182  64.155 -1.2085 -0.7570  1.3876
 9083TIP3   OH248739   3.045   1.355  60.595  0.1429  0.2704 -0.4528
 9083TIP3    H148740   3.111   1.423  60.582  0.7729 -0.0358  0.9354
 9083TIP3    H248741   3.029   1.355  60.689 -2.5946  1.0002 -0.8321
 9084TIP3   OH248742   0.527   0.911  56.576  0.0230 -0.4418  0.0531
 9084TIP3    H148743   0.484   0.886  56.658 -1.0524 -0.9169 -0.6363
 9084TIP3    H248744   0.525   1.007  56.577  4.3885 -0.1219  2.8242
 9085TIP3   OH248745   2.923   2.400  60.322  0.1259 -0.1240  0.1145
 9085TIP3    H148746   2.863   2.328  60.343  0.3239 -0.2681  0.1847
 9085TIP3    H248747   2.876   2.478  60.350 -0.2510 -0.1915 -0.3162
 9086TIP3   OH248748   1.176   2.772   2.076  0.2050 -0.0651 -0.4782
 9086TIP3    H148749   1.240   2.756   2.006  1.4613  0.8152  0.4241
 9086TIP3    H248750   1.121   2.842   2.043  1.4224  1.0457 -0.2212
 9087TIP3   OH248751   3.213   0.257  48.931 -0.8013  0.0398 -0.2763
 9087TIP3    H148752   3.118   0.259  48.919 -0.8237 -0.2573 -0.1468
 9087TIP3    H248753   3.234   0.166  48.950 -0.4783  0.0878 -0.3855
 9088TIP3   OH248754   0.486   2.382   6.150 -0.5572 -0.0324  0.0388
 9088TIP3    H148755   0.522   2.440   6.217  2.3056  0.4699 -1.7648
 9088TIP3    H248756   0.408   2.428   6.118  0.2522  1.6529  0.3765
 9089TIP3   OH248757   2.444   3.316  14.746  0.4429 -0.0579 -0.2212
 9089TIP3    H148758   2.466   3.384  14.809  2.9846 -0.9064 -0.0895
 9089TIP3    H248759   2.349   3.320  14.739  0.4350  3.3093 -0.0336
 9090TIP3   OH248760   1.058   0.996  58.158  0.4163 -0.1801 -0.4892
 9090TIP3    H148761   1.122   0.925  58.168  0.1438 -0.2915  0.6421
 9090TIP3    H248762   0.973   0.954  58.174  0.3991  0.7777  2.6860
 9091TIP3   OH248763   0.174   2.668   2.325  0.3284 -0.0654 -0.2498
 9091TIP3    H148764   0.085   2.699   2.306  0.8168  0.4800 -1.7563
 9091TIP3    H248765   0.165   2.572   2.327 -0.3298 -0.0119 -0.1536
 9092TIP3   OH248766   1.880   0.494  18.416  0.4839  0.5551 -0.2200
 9092TIP3    H148767   1.953   0.552  18.393  0.5129  1.2255  1.4274
 9092TIP3    H248768   1.803   0.551  18.413  0.4238  0.5402  0.7890
 9093TIP3   OH248769   3.026   0.690  51.838 -0.4726 -0.4632  0.0109
 9093TIP3    H148770   3.097   0.673  51.777  0.9889  2.8545  0.5902
 9093TIP3    H248771   2.966   0.747  51.790 -0.8307 -0.2345  0.7182
 9094TIP3   OH248772   0.908   2.930  59.825  0.1195  0.3645  0.2133
 9094TIP3    H148773   0.968   2.943  59.898 -0.1595  1.5795  0.2622
 9094TIP3    H248774   0.851   2.858  59.852  0.6101  0.1872  0.7947
 9095TIP3   OH248775   0.542   0.426  54.583 -0.4405 -0.3466 -0.4529
 9095TIP3    H148776   0.500   0.386  54.507 -0.0733 -0.5334 -0.5604
 9095TIP3    H248777   0.531   0.520  54.570 -2.9791 -0.4101  0.7388
 9096TIP3   OH248778   2.426   3.226  65.374  0.3022 -0.0417  0.6483
 9096TIP3    H148779   2.442   3.151  65.431 -0.1588 -0.1246  0.6711
 9096TIP3    H248780   2.490   3.292  65.402  1.2895 -0.7240  0.0558
 9097TIP3   OH248781   2.397   1.786   2.385  0.2838  0.1973 -0.4774
 9097TIP3    H148782   2.435   1.867   2.419  0.8522 -0.4439  0.4881
 9097TIP3    H248783   2.456   1.760   2.314  0.0944  0.6289 -0.7949
 9098TIP3   OH248784   1.403   2.881   5.416  0.3921 -0.1488  0.2541
 9098TIP3    H148785   1.331   2.914   5.470  1.8909 -0.8216  2.8640
 9098TIP3    H248786   1.403   2.937   5.339 -1.5822  1.2375  1.1683
 9099TIP3   OH248787   0.929   0.477  44.325  0.7635  0.4810  0.0567
 9099TIP3    H148788   0.996   0.539  44.297  1.1836 -0.1389 -0.3571
 9099TIP3    H248789   0.976   0.394  44.332 -0.2869 -0.3466 -1.9133
 9100TIP3   OH248790   2.020   1.999   5.030  0.0409  0.6709 -0.6175
 9100TIP3    H148791   2.077   2.058   4.983 -1.0493  1.8711 -0.4892
 9100TIP3    H248792   2.021   2.031   5.121 -0.8582  0.7474 -0.6253
 9101TIP3   OH248793   2.219   1.319  17.939  0.0168 -0.9439 -0.1027
 9101TIP3    H148794   2.193   1.278  17.856 -0.8182  0.3137 -0.4952
 9101TIP3    H248795   2.257   1.403  17.914  0.1561 -0.7367  0.7653
 9102TIP3   OH248796   1.337   2.593   5.132  0.0815 -0.3891  0.1805
 9102TIP3    H148797   1.402   2.551   5.074  1.5287 -0.3200  1.6758
 9102TIP3    H248798   1.342   2.543   5.213 -0.4332  0.7648  0.9347
 9103TIP3   OH248799   0.915   0.283  46.009 -0.8660 -0.3498 -0.9272
 9103TIP3    H148800   0.966   0.288  45.929 -0.6397  0.3083 -0.7512
 9103TIP3    H248801   0.826   0.261  45.980 -0.7131 -0.4363 -1.3269
 9104TIP3   OH248802   3.321   3.298  10.578 -0.0887  0.3003 -0.2407
 9104TIP3    H148803   3.319   3.373  10.518 -1.8004 -0.3209 -1.0333
 9104TIP3    H248804   3.412   3.271  10.581  0.3719  1.7006 -0.8341
 9105TIP3   OH248805   3.199   2.291  61.638  0.3254  0.2891  0.3001
 9105TIP3    H148806   3.220   2.219  61.698 -0.3705 -0.9666 -0.9159
 9105TIP3    H248807   3.109   2.274  61.611  0.2352  1.5014 -0.2069
 9106TIP3   OH248808   1.553   1.529  34.165 -0.0701 -0.1148 -0.1833
 9106TIP3    H148809   1.522   1.598  34.106  1.3530  0.6961 -0.0439
 9106TIP3    H248810   1.542   1.448  34.115 -0.6529  0.3450 -0.8270
 9107TIP3   OH248811   1.341   3.356  43.776  0.2497 -0.2457  0.1660
 9107TIP3    H148812   1.345   3.452  43.782  2.0625 -0.3234  0.8486
 9107TIP3    H248813   1.365   3.326  43.863 -0.5042 -1.3390  0.0074
 9108TIP3   OH248814   3.314   3.016   0.600 -0.2653 -0.2516 -0.7107
 9108TIP3    H148815   3.334   2.983   0.513  0.5313  0.6942 -0.9135
 9108TIP3    H248816   3.369   3.095   0.609 -0.1704 -0.4469  0.7137
 9109TIP3   OH248817   2.662   1.150   8.834  0.5856 -0.3235 -0.3126
 9109TIP3    H148818   2.750   1.182   8.855 -0.0083 -0.4201  2.7922
 9109TIP3    H248819   2.619   1.140   8.919 -3.0946  1.4992 -1.7458
 9110TIP3   OH248820   2.624   3.001  26.193  0.4140 -0.2772  0.8819
 9110TIP3    H148821   2.529   2.996  26.185  0.4232 -1.2506  1.2545
 9110TIP3    H248822   2.645   2.946  26.268  1.4622 -2.0048 -0.5762
 9111TIP3   OH248823   1.046   0.567  54.957 -0.2577  0.3978 -0.3181
 9111TIP3    H148824   1.078   0.641  54.905 -0.8040  0.7961 -0.0915
 9111TIP3    H248825   1.057   0.595  55.048  3.5148 -1.4165  0.0033
 9112TIP3   OH248826   2.760   0.053  62.751  0.5311 -0.0553  0.0487
 9112TIP3    H148827   2.820  -0.013  62.716 -1.6294 -1.7945 -0.6185
 9112TIP3    H248828   2.683   0.047  62.695  0.4225  3.5442 -0.4430
 9113TIP3   OH248829   2.382   1.933  14.712  0.6548  0.1482 -0.0415
 9113TIP3    H148830   2.435   2.004  14.747  1.9922 -0.7968 -0.0868
 9113TIP3    H248831   2.411   1.923  14.621 -0.4118  0.3530 -0.4249
 9114TIP3   OH248832   1.033   0.605  21.088  0.1598  0.1049  0.6785
 9114TIP3    H148833   0.963   0.660  21.123  0.9135  0.9987  0.8269
 9114TIP3    H248834   0.999   0.571  21.006 -1.2662 -1.2271  1.7711
 9115TIP3   OH248835   2.864   1.400   3.185  0.0996  0.0327  0.4419
 9115TIP3    H148836   2.910   1.473   3.144  0.0414 -0.6771 -0.9677
 9115TIP3    H248837   2.772   1.424   3.183  0.1921  0.4482  1.1156
 9116TIP3   OH248838   1.010   2.011  56.276  0.1290 -0.0204  0.1506
 9116TIP3    H148839   1.086   1.976  56.322  2.4883  0.5688 -2.9658
 9116TIP3    H248840   0.946   1.939  56.275  1.8676 -1.6281  0.3030
 9117TIP3   OH248841   3.024   1.946  28.182 -0.3703  0.0829 -0.0106
 9117TIP3    H148842   3.117   1.967  28.178 -0.4807  0.6518  0.3309
 9117TIP3    H248843   2.984   2.003  28.117 -0.2443 -1.6188 -1.6796
 9118TIP3   OH248844   3.140   0.060  66.299 -0.1521 -0.2923  0.1446
 9118TIP3    H148845   3.059   0.017  66.271  0.7615 -2.4734  0.5823
 9118TIP3    H248846   3.118   0.100  66.383 -1.0769  0.1845 -0.3112
 9119TIP3   OH248847   2.969   1.042   0.769 -0.6077 -0.4106 -0.0507
 9119TIP3    H148848   2.981   1.114   0.831 -1.3142  0.0394 -0.4217
 9119TIP3    H248849   3.023   0.971   0.804  1.2495  0.7524 -0.4650
 9120TIP3   OH248850   0.590   2.061  20.652 -0.3200 -0.2318  0.0506
 9120TIP3    H148851   0.515   2.037  20.706 -1.1199  2.5052  0.3098
 9120TIP3    H248852   0.665   2.017  20.693 -1.0564  0.8412  2.7757
 9121TIP3   OH248853   2.243   2.659  53.531 -0.3956  0.1011 -0.4500
 9121TIP3    H148854   2.177   2.692  53.592 -0.1795 -0.2631 -0.0061
 9121TIP3    H248855   2.287   2.589  53.580 -1.3269 -1.3627 -1.6189
 9122TIP3   OH248856   0.487   2.927  59.559  0.5504  0.0744 -0.1084
 9122TIP3    H148857   0.513   2.897  59.472 -1.2827  1.0110 -1.0259
 9122TIP3    H248858   0.442   3.010  59.544 -2.3910 -1.1168  1.3765
 9123TIP3   OH248859   1.368   0.687   1.796  0.3762  0.5120 -0.5069
 9123TIP3    H148860   1.308   0.633   1.745 -0.3106  0.2430  0.5337
 9123TIP3    H248861   1.330   0.775   1.792 -0.2142  0.3084  0.2958
 9124TIP3   OH248862   1.528   0.438  54.119  0.1754  0.1702  0.6867
 9124TIP3    H148863   1.480   0.510  54.079  1.7766  0.7309 -0.3196
 9124TIP3    H248864   1.604   0.479  54.161  1.7294 -0.9562 -0.8427
 9125TIP3   OH248865   2.466   1.987  12.869 -0.1026  0.0333 -0.2395
 9125TIP3    H148866   2.549   2.033  12.872  0.9619 -1.8056 -0.2124
 9125TIP3    H248867   2.402   2.051  12.901  0.7952  2.4028 -2.7756
 9126TIP3   OH248868   3.048   1.882  42.465  0.2413 -0.4194 -0.5206
 9126TIP3    H148869   3.138   1.853  42.482  0.7831  0.8683 -1.0762
 9126TIP3    H248870   3.022   1.926  42.546 -0.0393 -1.1240 -0.2189
 9127TIP3   OH248871   1.830   2.945  64.529 -0.1247 -0.2746 -0.5989
 9127TIP3    H148872   1.922   2.947  64.503  0.2977 -0.2823  0.8183
 9127TIP3    H248873   1.811   2.853  64.546  0.0659 -0.1081  0.6061
 9128TIP3   OH248874   1.552   2.624  53.388  0.2265  0.3305  0.6608
 9128TIP3    H148875   1.594   2.699  53.345  0.2280  0.4785  0.9207
 9128TIP3    H248876   1.468   2.615  53.342 -0.9272  2.1063  2.2815
 9129TIP3   OH248877   2.371   1.717  66.688 -0.3888  0.1861  0.9085
 9129TIP3    H148878   2.360   1.667  66.607  0.7245 -2.0209  2.0269
 9129TIP3    H248879   2.281   1.739  66.714 -0.8528 -0.3138 -0.1656
 9130TIP3   OH248880   2.776   2.269   5.973 -0.2085  0.6098  0.3227
 9130TIP3    H148881   2.798   2.329   6.044  0.3551  0.8077 -0.0050
 9130TIP3    H248882   2.821   2.305   5.897 -1.9002  1.1713 -0.4609
 9131TIP3   OH248883   0.539   2.588  60.038 -0.9642 -0.5486 -0.7940
 9131TIP3    H148884   0.483   2.650  60.085 -2.6228 -1.4739 -1.4593
 9131TIP3    H248885   0.576   2.533  60.107  1.0977  1.5226 -0.1221
 9132TIP3   OH248886   2.936   2.622   2.859 -0.6931 -0.1481  0.1683
 9132TIP3    H148887   3.031   2.621   2.864 -0.5682  1.9459 -0.8008
 9132TIP3    H248888   2.910   2.700   2.907 -1.7074  0.7767 -1.7884
 9133TIP3   OH248889   3.114   0.167  46.795  0.4149 -0.1589 -0.1911
 9133TIP3    H148890   3.044   0.232  46.807  0.7937 -0.2254  4.2215
 9133TIP3    H248891   3.074   0.084  46.823  1.4729 -0.7509 -0.4048
 9134TIP3   OH248892   1.255   2.837  51.927 -0.4918  0.1316 -0.1001
 9134TIP3    H148893   1.255   2.893  52.005 -1.9501  0.2508 -0.1688
 9134TIP3    H248894   1.246   2.748  51.963  2.6040 -0.2234  0.0625
 9135TIP3   OH248895   0.671   0.028  61.266 -0.1811  0.1486 -0.0773
 9135TIP3    H148896   0.758   0.059  61.289 -0.1746 -0.7843  1.2987
 9135TIP3    H248897   0.686  -0.054  61.218 -0.2922 -0.6263  1.1641
 9136TIP3   OH248898   3.304   2.980  58.062 -0.3223  0.2717 -0.1679
 9136TIP3    H148899   3.340   3.064  58.090  0.6844  0.1226 -0.9869
 9136TIP3    H248900   3.265   2.944  58.142  0.5712  0.8307  0.5440
 9137TIP3   OH248901   1.186   2.708  55.007 -0.2285 -0.1495 -0.1829
 9137TIP3    H148902   1.141   2.641  54.956 -1.6344  0.8870 -0.3717
 9137TIP3    H248903   1.258   2.736  54.951  0.0837 -1.1458 -0.3006
 9138TIP3   OH248904   2.265   2.218  43.237 -0.5221 -0.6632 -0.4846
 9138TIP3    H148905   2.299   2.130  43.221  2.0627 -0.5793  3.3226
 9138TIP3    H248906   2.201   2.206  43.307  0.1530  0.5012  0.3563
 9139TIP3   OH248907   3.069   1.082  56.038 -0.3856 -0.5987  0.1593
 9139TIP3    H148908   3.101   1.117  55.955 -0.6059 -1.6887 -0.4007
 9139TIP3    H248909   3.121   1.003  56.053 -0.5862 -0.6052  0.8901
 9140TIP3   OH248910   0.740   3.266   8.650 -0.2498 -0.8678  1.1141
 9140TIP3    H148911   0.790   3.237   8.727  1.8836  0.6373  0.3837
 9140TIP3    H248912   0.781   3.221   8.576  1.7255  2.1051  0.2202
 9141TIP3   OH248913   0.429   1.666  18.149  0.0366  0.1527 -0.0691
 9141TIP3    H148914   0.442   1.761  18.147  1.7950 -0.0131  1.3727
 9141TIP3    H248915   0.469   1.635  18.067  2.7957  0.3797  1.0677
 9142TIP3   OH248916   0.303   3.199   7.676 -0.4045 -0.3537 -0.4740
 9142TIP3    H148917   0.288   3.138   7.748  0.8999 -0.8603 -0.6066
 9142TIP3    H248918   0.327   3.282   7.719  0.6905 -0.7418 -0.3094
 9143TIP3   OH248919   2.262   1.455   7.092 -0.2926 -0.0692  0.4063
 9143TIP3    H148920   2.319   1.382   7.069 -1.2846 -0.6885 -0.1144
 9143TIP3    H248921   2.227   1.486   7.009  1.1255  1.8722  0.4717
 9144TIP3   OH248922   3.406   0.195  59.077 -0.1599 -0.1666 -0.4125
 9144TIP3    H148923   3.425   0.288  59.091  1.3110 -0.3082 -1.2620
 9144TIP3    H248924   3.319   0.194  59.038 -0.0668  0.8922 -0.6799
 9145TIP3   OH248925   0.086   2.056  65.838 -0.4908 -0.2665 -0.2003
 9145TIP3    H148926   0.136   2.054  65.756  0.5284 -1.6680  0.4176
 9145TIP3    H248927   0.033   1.976  65.835  0.3332 -0.8796  0.9546
 9146TIP3   OH248928   1.650   1.696  59.347  0.8619  0.4538 -0.2404
 9146TIP3    H148929   1.578   1.657  59.297  1.5869 -2.8181  1.0132
 9146TIP3    H248930   1.728   1.676  59.296  1.2063  0.6535  0.2016
 9147TIP3   OH248931   1.332   2.737  54.585  0.6329 -0.2082  0.1115
 9147TIP3    H148932   1.242   2.703  54.587 -0.7298  2.6058 -2.7664
 9147TIP3    H248933   1.324   2.826  54.619  2.1232  0.3854 -0.9898
 9148TIP3   OH248934   3.085   2.116  59.769 -0.3904  0.6130  0.5865
 9148TIP3    H148935   3.102   2.208  59.787  1.1753  0.7556 -1.2491
 9148TIP3    H248936   3.166   2.084  59.728 -0.6421 -1.7732  1.7921
 9149TIP3   OH248937   1.397   0.209  33.974  0.3013  0.0400 -0.7507
 9149TIP3    H148938   1.423   0.117  33.966 -0.7259 -0.3177 -0.2524
 9149TIP3    H248939   1.315   0.214  33.925 -0.4263  0.3292  0.4522
 9150TIP3   OH248940   2.737   0.046  13.579 -0.2874 -0.2701  0.2559
 9150TIP3    H148941   2.760  -0.047  13.576 -0.2337 -0.2267 -0.9619
 9150TIP3    H248942   2.763   0.074  13.667  0.5452 -1.1907  0.3145
 9151TIP3   OH248943   2.207   2.782  18.001  0.1189  0.8141 -0.5385
 9151TIP3    H148944   2.292   2.744  18.026 -0.2121 -0.5145 -1.3502
 9151TIP3    H248945   2.219   2.807  17.909 -0.3640  0.6187 -0.6543
 9152TIP3   OH248946   1.023   2.627   0.244  0.0187 -0.1102  0.0279
 9152TIP3    H148947   1.096   2.580   0.284 -0.9787 -2.3577 -0.6731
 9152TIP3    H248948   1.053   2.718   0.241  3.1343 -1.0224 -0.9408
 9153TIP3   OH248949   2.015   0.926  58.976 -0.6725  0.2428 -0.7019
 9153TIP3    H148950   2.027   0.831  58.979 -1.3079  0.1706 -0.3101
 9153TIP3    H248951   1.978   0.943  58.889 -1.7719 -0.0263 -0.3071
 9154TIP3   OH248952   0.878   3.032  47.506  0.2215 -0.0754 -0.1960
 9154TIP3    H148953   0.814   3.086  47.552  2.9590  1.4412  2.1311
 9154TIP3    H248954   0.865   3.052  47.413 -2.5189  0.2329  0.1927
 9155TIP3   OH248955   2.578   2.379  16.046  0.1221  0.0821  0.0141
 9155TIP3    H148956   2.652   2.406  15.992  1.5622 -2.1113  0.7547
 9155TIP3    H248957   2.514   2.343  15.985  1.4793 -1.8264 -0.3673
 9156TIP3   OH248958   0.726   2.630  58.016  0.1376  0.6005  0.9433
 9156TIP3    H148959   0.751   2.626  58.108 -1.3314  0.8786  1.3696
 9156TIP3    H248960   0.709   2.538  57.992  0.8604  0.4878  0.8358
 9157TIP3   OH248961   1.614   0.804   9.378  0.3044  0.1786  0.2928
 9157TIP3    H148962   1.577   0.884   9.414  0.1410  0.2741 -0.0814
 9157TIP3    H248963   1.609   0.740   9.450  0.2431  0.4427  0.5225
 9158TIP3   OH248964   3.233   3.360  13.323 -0.6739  0.1129  0.6432
 9158TIP3    H148965   3.206   3.269  13.336  2.3872 -1.1783 -0.8739
 9158TIP3    H248966   3.169   3.396  13.262 -1.9387 -0.9812  1.2634
 9159TIP3   OH248967   2.546   0.690  11.984 -0.6663 -0.0828 -0.3863
 9159TIP3    H148968   2.584   0.754  12.044 -0.9291 -0.1261 -0.1726
 9159TIP3    H248969   2.452   0.705  11.989 -0.6320  0.6588 -1.6338
 9160TIP3   OH248970   1.992   1.843   3.162 -0.1044  0.3674  0.2019
 9160TIP3    H148971   2.043   1.792   3.100  1.2606  0.0654  1.5251
 9160TIP3    H248972   1.913   1.791   3.178 -1.7852  1.6056 -3.1261
 9161TIP3   OH248973   0.782   0.954   4.899 -0.4116  0.0218 -0.3708
 9161TIP3    H148974   0.862   0.953   4.951  0.5185  0.2842 -1.7168
 9161TIP3    H248975   0.717   0.996   4.955  0.3913 -0.1732  0.7453
 9162TIP3   OH248976   0.528   0.447  65.652  0.3274  0.1810 -0.0981
 9162TIP3    H148977   0.542   0.507  65.578 -0.3487 -0.8677 -1.1166
 9162TIP3    H248978   0.504   0.364  65.611  2.3809 -1.1657  1.2220
 9163TIP3   OH248979   3.311   2.404  13.284 -0.2948  0.4320 -0.4470
 9163TIP3    H148980   3.402   2.384  13.306 -1.0305 -2.9503 -0.0718
 9163TIP3    H248981   3.309   2.407  13.188  0.2481  0.9152 -0.4497
 9164TIP3   OH248982   1.890   0.576   7.785  0.1113 -0.1747 -0.2847
 9164TIP3    H148983   1.912   0.492   7.826  0.3525  0.6143  1.2778
 9164TIP3    H248984   1.929   0.642   7.843 -1.2607  1.0646 -0.7020
 9165TIP3   OH248985   2.678   0.642  54.760  0.4884  0.5516 -0.4541
 9165TIP3    H148986   2.630   0.675  54.684  0.1683  1.8226  0.2805
 9165TIP3    H248987   2.632   0.561  54.783 -0.3573  0.9502 -0.6985
 9166TIP3   OH248988   1.158   2.709   4.934 -0.4219  0.2886 -0.1956
 9166TIP3    H148989   1.196   2.703   5.022  0.8260  1.0348 -0.6490
 9166TIP3    H248990   1.223   2.759   4.884 -1.6499  0.9008 -1.2339
 9167TIP3   OH248991   3.366   1.322  41.950  0.9447 -0.0936 -0.0930
 9167TIP3    H148992   3.454   1.324  41.988  0.1549  0.4416  1.8422
 9167TIP3    H248993   3.348   1.414  41.929  1.2161 -0.3359 -1.4387
 9168TIP3   OH248994   3.152   0.720  21.471  0.6434  0.2373  0.5129
 9168TIP3    H148995   3.117   0.688  21.554  0.0875  1.5346  0.7995
 9168TIP3    H248996   3.235   0.673  21.461  0.1103 -0.8913  1.1458
 9169TIP3   OH248997   3.451   0.021   0.471  0.5471  0.0261  0.5953
 9169TIP3    H148998   3.469  -0.072   0.459  0.3928  0.1929 -1.1191
 9169TIP3    H248999   3.360   0.031   0.445  1.0323  0.9072 -0.8747
 9170TIP3   OH249000   1.945   0.071   1.308 -0.3977 -0.0553 -0.4769
 9170TIP3    H149001   1.870   0.114   1.267 -0.6580 -0.1253 -0.0650
 9170TIP3    H249002   2.011   0.068   1.238 -1.5911 -2.1783 -1.6046
 9171TIP3   OH249003   2.426   1.899   2.102 -0.0153 -0.3953 -0.2090
 9171TIP3    H149004   2.416   1.809   2.069  1.3904 -0.4368 -0.5594
 9171TIP3    H249005   2.346   1.914   2.152 -0.2905 -1.8446 -0.1541
 9172TIP3   OH249006   1.878   0.654  13.521 -0.1500  0.2884  0.2279
 9172TIP3    H149007   1.908   0.564  13.515  2.1007  0.8430  1.8056
 9172TIP3    H249008   1.813   0.663  13.451 -0.5919 -2.5707  0.1572
 9173TIP3   OH249009   1.408   1.806  65.718  0.0978 -0.6085  0.3629
 9173TIP3    H149010   1.392   1.834  65.628 -1.0553  0.5965  0.9012
 9173TIP3    H249011   1.504   1.802  65.725  0.2263 -3.0379 -1.5441
 9174TIP3   OH249012   1.825   2.038  47.470  0.9046  0.1959  0.3300
 9174TIP3    H149013   1.749   1.987  47.441  1.0192 -0.4419  1.1096
 9174TIP3    H249014   1.807   2.059  47.561  0.7640  1.7751 -0.0303
 9175TIP3   OH249015   3.225   0.237   7.666  0.4210 -0.4295  0.1635
 9175TIP3    H149016   3.167   0.280   7.729 -1.8881 -2.7327 -0.2052
 9175TIP3    H249017   3.265   0.165   7.716  2.2681  0.5152  0.1363
 9176TIP3   OH249018   1.801   2.202  57.602 -0.5614 -0.5871  0.4388
 9176TIP3    H149019   1.845   2.117  57.603  2.4685  0.8077 -0.1196
 9176TIP3    H249020   1.818   2.239  57.688  1.1937  0.7320 -0.3946
 9177TIP3   OH249021   1.919   0.994  25.921 -0.1924  0.0859  0.1446
 9177TIP3    H149022   1.842   0.958  25.965  0.4830 -0.3230  1.0295
 9177TIP3    H249023   1.929   1.082  25.957  1.2284 -0.7794  1.9908
 9178TIP3   OH249024   1.329   0.766  42.521 -0.0679  0.2109  0.0804
 9178TIP3    H149025   1.238   0.782  42.497 -0.2779 -0.0307  0.6938
 9178TIP3    H249026   1.370   0.733  42.441 -0.2038  1.5291 -0.5578
 9179TIP3   OH249027   0.168   2.398  49.353  0.6684 -0.0167  0.0764
 9179TIP3    H149028   0.119   2.441  49.283 -0.7724 -1.8484 -0.1241
 9179TIP3    H249029   0.254   2.380  49.314  0.2305 -0.1025 -0.8780
 9180TIP3   OH249030   2.266   1.705  48.237  0.4875 -0.1466  0.1907
 9180TIP3    H149031   2.205   1.666  48.175  0.5204  0.3935 -0.1893
 9180TIP3    H249032   2.334   1.638  48.249  0.5978 -0.1780 -0.5306
 9181TIP3   OH249033   1.272   0.930   5.236 -0.4890 -0.1696 -0.2392
 9181TIP3    H149034   1.367   0.943   5.236 -0.5044 -0.0393 -0.5237
 9181TIP3    H249035   1.244   0.955   5.324 -0.4815  1.4663 -0.6678
 9182TIP3   OH249036   0.368   1.800  19.486  0.0673 -0.2479  0.3846
 9182TIP3    H149037   0.415   1.750  19.553  0.0172 -2.7368 -1.2785
 9182TIP3    H249038   0.436   1.827  19.424 -0.1190  0.3797  0.4491
 9183TIP3   OH249039   2.289   0.017  21.940  0.3173 -0.1368  0.0094
 9183TIP3    H149040   2.376   0.057  21.948  0.2471 -0.2896  1.8323
 9183TIP3    H249041   2.285  -0.046  22.011 -0.3981 -1.8845 -1.4992
 9184TIP3   OH249042   2.465   2.609  50.267 -0.0384 -0.9573  0.1758
 9184TIP3    H149043   2.527   2.536  50.268 -0.1166 -1.0195  0.6252
 9184TIP3    H249044   2.419   2.603  50.351 -1.4041 -1.5581 -0.5802
 9185TIP3   OH249045   2.076   3.276  20.517  0.4312 -0.7062  0.2346
 9185TIP3    H149046   2.015   3.241  20.453  0.8787  0.2780 -0.7488
 9185TIP3    H249047   2.077   3.370  20.501  1.0475 -0.5225  1.2556
 9186TIP3   OH249048   0.111   0.575   8.961  0.2574  0.3968 -0.2742
 9186TIP3    H149049   0.058   0.554   8.884 -1.3098 -2.0866  1.3217
 9186TIP3    H249050   0.195   0.533   8.944  0.4735  1.1965 -1.2671
 9187TIP3   OH249051   1.529   0.861  58.745  0.2702  0.0781 -0.7493
 9187TIP3    H149052   1.531   0.923  58.673  0.6007  1.6542  0.5593
 9187TIP3    H249053   1.612   0.813  58.738  0.4044  0.3789 -1.2554
 9188TIP3   OH249054   2.202   1.117   2.935 -0.4639 -0.1554  0.5948
 9188TIP3    H149055   2.233   1.071   2.858 -0.8236  0.6389 -0.0444
 9188TIP3    H249056   2.225   1.060   3.009  1.0202 -0.3429  0.0160
 9189TIP3   OH249057   2.479   1.310  45.313 -0.0844  0.3909 -0.1439
 9189TIP3    H149058   2.416   1.281  45.246 -0.9291 -0.1850  0.8599
 9189TIP3    H249059   2.447   1.270  45.394 -0.0734  2.4371  0.9388
 9190TIP3   OH249060   2.729   2.900   0.523  0.0202  0.3331 -0.3522
 9190TIP3    H149061   2.816   2.875   0.491  0.6992  1.7384  0.2965
 9190TIP3    H249062   2.704   2.829   0.582  3.0241  2.0879  3.4955
 9191TIP3   OH249063   1.146   2.577  59.802  0.0405 -0.4377  0.1631
 9191TIP3    H149064   1.123   2.490  59.837 -1.1860 -0.7044 -1.1689
 9191TIP3    H249065   1.124   2.637  59.873 -2.2194 -0.9685  0.0195
 9192TIP3   OH249066   1.739   0.259  53.800 -0.4613 -0.4023  0.1302
 9192TIP3    H149067   1.803   0.215  53.744 -1.0399 -0.4986 -0.4740
 9192TIP3    H249068   1.782   0.266  53.885 -0.3187 -2.0488  0.2280
 9193TIP3   OH249069   2.443   2.275   4.299  0.7779 -0.1873 -0.1642
 9193TIP3    H149070   2.439   2.215   4.374 -0.2358  0.8283  0.6307
 9193TIP3    H249071   2.377   2.242   4.238  0.3092  0.0339  0.2163
 9194TIP3   OH249072   1.491   0.629   6.977 -0.1609 -0.3418 -0.4442
 9194TIP3    H149073   1.495   0.591   7.065 -2.6209  0.5077  0.1096
 9194TIP3    H249074   1.577   0.610   6.939  1.9188  1.3058  2.9398
 9195TIP3   OH249075   2.161   1.581  58.866  0.1874  0.0504 -0.2781
 9195TIP3    H149076   2.068   1.583  58.842  0.0550 -0.6936  0.1336
 9195TIP3    H249077   2.163   1.611  58.957  0.2099 -1.0339  0.0909
 9196TIP3   OH249078   0.076   0.759  18.070 -0.4499 -0.0574 -0.3796
 9196TIP3    H149079   0.050   0.851  18.076  1.5596  0.5359 -0.1058
 9196TIP3    H249080   0.003   0.711  18.109 -1.1039  1.4944  0.4021
 9197TIP3   OH249081   2.373   0.555  16.627 -0.6078  0.0519  0.5388
 9197TIP3    H149082   2.353   0.643  16.595  1.2034  0.1972 -0.3199
 9197TIP3    H249083   2.468   0.555  16.641 -0.5916 -1.7011  0.6885
 9198TIP3   OH249084   0.162   0.038  60.915 -0.1450  0.2306 -0.2246
 9198TIP3    H149085   0.149  -0.057  60.923 -1.7750  0.3845 -0.6414
 9198TIP3    H249086   0.256   0.048  60.904  0.2015 -1.2445  1.0483
 9199TIP3   OH249087   2.147   3.433  47.754  0.1533 -0.8550 -0.4229
 9199TIP3    H149088   2.126   3.340  47.747 -0.7524 -0.6216 -1.0067
 9199TIP3    H249089   2.212   3.449  47.686  0.4703 -1.0950 -0.1811
 9200TIP3   OH249090   2.397   0.921  49.384 -0.3836 -0.3478 -0.6169
 9200TIP3    H149091   2.417   0.948  49.294  0.1785  1.3237 -0.0365
 9200TIP3    H249092   2.401   1.003  49.434  0.6890 -1.4468  1.1761
 9201TIP3   OH249093   0.615   1.672   7.348 -0.1915  0.1362  0.3579
 9201TIP3    H149094   0.623   1.767   7.336 -0.1018 -0.0313 -0.9500
 9201TIP3    H249095   0.521   1.656   7.346 -0.1629  0.0444 -0.7441
 9202TIP3   OH249096   1.258   0.148  51.376 -0.2240 -0.3841 -0.4513
 9202TIP3    H149097   1.332   0.206  51.355  0.0921 -1.2517 -1.8753
 9202TIP3    H249098   1.295   0.060  51.375 -1.2542 -0.8349 -1.1773
 9203TIP3   OH249099   1.344   3.017  10.940 -0.0032  0.2963  0.4879
 9203TIP3    H149100   1.263   3.068  10.945 -1.2911 -1.7047  1.3291
 9203TIP3    H249101   1.413   3.081  10.959 -1.2217  2.2911 -1.2981
 9204TIP3   OH249102   2.091   2.514  14.227 -0.1054  0.1952 -0.7194
 9204TIP3    H149103   2.090   2.556  14.141 -1.5713  1.4432 -0.1387
 9204TIP3    H249104   2.170   2.548  14.270 -0.5607  1.3351 -0.7594
 9205TIP3   OH249105   2.771   3.063  11.414 -0.1854  0.0956 -0.1605
 9205TIP3    H149106   2.813   3.054  11.500 -3.0105  1.5975  1.5121
 9205TIP3    H249107   2.739   2.975  11.394  0.8952 -0.3696  0.0457
 9206TIP3   OH249108   1.716   0.647   0.019 -0.0121  0.2078  0.4796
 9206TIP3    H149109   1.789   0.618   0.073 -1.0589 -0.7095  1.4407
 9206TIP3    H249110   1.637   0.620   0.066 -0.9822  0.3491 -0.9687
 9207TIP3   OH249111   2.431   2.538  13.593  0.6703 -0.4169 -0.3204
 9207TIP3    H149112   2.354   2.593  13.606 -0.4152 -2.0761  0.5164
 9207TIP3    H249113   2.505   2.598  13.603 -0.4644  0.9869 -0.0213
 9208TIP3   OH249114   1.337   2.649  53.915  0.0964  0.3068 -0.3705
 9208TIP3    H149115   1.339   2.662  53.821 -1.7572 -0.3212 -0.5367
 9208TIP3    H249116   1.428   2.628  53.938  0.7502  1.3343 -1.8519
 9209TIP3   OH249117   1.399   3.105  17.856 -0.2493 -0.0648 -0.4202
 9209TIP3    H149118   1.407   3.100  17.951 -0.1465  0.3637 -0.4007
 9209TIP3    H249119   1.365   3.020  17.829 -1.4265  0.2100  0.1202
 9210TIP3   OH249120   1.300   0.876  58.388 -0.4447 -0.1717  0.2949
 9210TIP3    H149121   1.364   0.807  58.372  0.6850  0.7999  0.5127
 9210TIP3    H249122   1.346   0.957  58.369 -1.5317  0.5758  0.7306
 9211TIP3   OH249123   1.976   1.841  17.859  0.1229  0.4840 -0.1172
 9211TIP3    H149124   2.051   1.879  17.904  1.7829 -1.5599 -0.9948
 9211TIP3    H249125   1.975   1.884  17.773 -0.4348  1.3194  0.2945
 9212TIP3   OH249126   0.285   3.006  45.766 -0.5903 -0.6965  0.3654
 9212TIP3    H149127   0.258   2.915  45.768 -1.0041 -0.6874 -2.0756
 9212TIP3    H249128   0.380   3.003  45.776 -0.6576 -1.3280  0.8856
 9213TIP3   OH249129   1.610   0.951  63.717 -0.2432 -0.1032 -0.3622
 9213TIP3    H149130   1.576   0.862  63.729  0.6896 -0.4730 -0.3432
 9213TIP3    H249131   1.644   0.953  63.628  0.2615  0.0425 -0.1742
 9214TIP3   OH249132   0.943   1.182  18.816 -0.1903 -0.0889 -0.1783
 9214TIP3    H149133   0.914   1.248  18.879  0.2010 -0.0449 -0.0414
 9214TIP3    H249134   0.872   1.119  18.813  0.2740 -0.7351  1.2216
 9215TIP3   OH249135   1.650   1.113  50.389 -0.5562 -0.5194  0.3230
 9215TIP3    H149136   1.594   1.046  50.427 -0.4150 -1.0945 -0.4457
 9215TIP3    H249137   1.712   1.064  50.334 -2.8395  0.3642 -3.4237
 9216TIP3   OH249138   3.400   0.583   2.410 -0.1313  0.5199  0.5242
 9216TIP3    H149139   3.407   0.490   2.385  0.6309  0.4161  1.1074
 9216TIP3    H249140   3.321   0.613   2.365  0.1571 -0.1538 -0.4663
 9217TIP3   OH249141   0.718   1.416  45.228 -0.2248  0.0864 -0.7171
 9217TIP3    H149142   0.796   1.471  45.239 -1.6168  1.9638  0.3742
 9217TIP3    H249143   0.699   1.420  45.134  0.7497 -0.0820 -0.9348
 9218TIP3   OH249144   3.440   1.353  21.429  0.0131 -0.0021  0.2485
 9218TIP3    H149145   3.353   1.390  21.411 -0.1760 -0.3240  0.4981
 9218TIP3    H249146   3.496   1.430  21.441  0.0486  0.2286 -1.2136
 9219TIP3   OH249147   2.844   0.893  13.635 -0.3134 -0.2137  0.1637
 9219TIP3    H149148   2.838   0.907  13.541 -0.1711 -1.3601 -0.0299
 9219TIP3    H249149   2.854   0.981  13.672  0.6604  0.1712 -0.9689
 9220TIP3   OH249150   1.965   2.446  42.921  0.0024 -0.0084 -0.5068
 9220TIP3    H149151   1.921   2.438  43.005  0.7614 -2.1723 -0.2528
 9220TIP3    H249152   2.045   2.495  42.940  0.0782 -0.3214 -0.0114
 9221TIP3   OH249153   2.343   2.246  48.652  0.3373  0.1719 -0.1063
 9221TIP3    H149154   2.389   2.175  48.695  1.5044  0.1427 -1.3379
 9221TIP3    H249155   2.403   2.275  48.583 -1.7070 -0.2707 -2.1922
 9222TIP3   OH249156   0.554   1.181  53.335 -0.0394 -0.1190 -0.3652
 9222TIP3    H149157   0.500   1.155  53.260 -1.9258 -2.0897  1.5516
 9222TIP3    H249158   0.494   1.227  53.393  1.0141  0.0668  0.6134
 9223TIP3   OH249159   0.280   2.751   7.147 -0.5954 -0.2717 -0.3230
 9223TIP3    H149160   0.296   2.688   7.218 -0.6482 -0.1490 -0.2014
 9223TIP3    H249161   0.203   2.799   7.176 -0.0706  0.4090 -0.0295
 9224TIP3   OH249162   0.220   2.669  10.158 -0.7702 -1.1070  0.1432
 9224TIP3    H149163   0.164   2.741  10.129  0.7501  0.0989  0.0557
 9224TIP3    H249164   0.219   2.675  10.254  0.4369 -0.0334  0.1242
 9225TIP3   OH249165   1.330   1.723  63.250  0.2216  0.4209  0.2323
 9225TIP3    H149166   1.243   1.758  63.272  0.0949 -0.5199  1.2676
 9225TIP3    H249167   1.311   1.644  63.199  0.4783  0.3493  0.2498
 9226TIP3   OH249168   0.139   2.643  58.066 -0.3475 -0.7820 -0.2654
 9226TIP3    H149169   0.146   2.736  58.045 -0.5388 -1.2013 -2.4461
 9226TIP3    H249170   0.223   2.606  58.038 -0.7058 -1.4383 -0.4958
 9227TIP3   OH249171   0.854   2.824  15.509  0.4958  0.1510 -0.9398
 9227TIP3    H149172   0.901   2.751  15.469  0.4796 -0.3768 -0.0410
 9227TIP3    H249173   0.771   2.786  15.537  0.7921  0.3007  0.2140
 9228TIP3   OH249174   3.371   1.647  21.525 -0.0832  0.2911 -0.2788
 9228TIP3    H149175   3.440   1.615  21.583 -0.4032 -2.3200 -1.2354
 9228TIP3    H249176   3.296   1.662  21.584  0.4406  0.4223  0.3628
 9229TIP3   OH249177   1.475   1.726  50.948 -0.1477 -0.6969 -0.3015
 9229TIP3    H149178   1.420   1.651  50.969 -0.4881 -0.7564 -1.3741
 9229TIP3    H249179   1.564   1.690  50.946 -0.0768 -0.6565  1.1451
 9230TIP3   OH249180   0.213   3.325  46.499 -0.1903  0.0518 -0.0589
 9230TIP3    H149181   0.159   3.312  46.577 -0.2290  0.3887 -0.0243
 9230TIP3    H249182   0.295   3.279  46.519 -0.9561 -1.6417 -0.6768
 9231TIP3   OH249183   3.185   2.605   5.953  0.2018 -0.2441 -0.7026
 9231TIP3    H149184   3.127   2.660   6.007  0.8136 -0.0486 -0.2337
 9231TIP3    H249185   3.177   2.641   5.865 -1.7673 -1.3324 -1.0287
 9232TIP3   OH249186   1.250   2.087  20.404 -0.2722 -0.1455  0.3715
 9232TIP3    H149187   1.257   2.002  20.360 -0.2908 -0.7437  1.4867
 9232TIP3    H249188   1.338   2.107  20.434 -0.5838 -0.6621  1.6914
 9233TIP3   OH249189   0.859   0.711  16.741 -0.0629  0.0141 -0.2561
 9233TIP3    H149190   0.899   0.730  16.826  1.2265 -0.3712 -0.7530
 9233TIP3    H249191   0.878   0.619  16.725  1.8764  0.6630 -2.0440
 9234TIP3   OH249192   2.413   0.891  18.490 -0.6383  0.1242  0.3563
 9234TIP3    H149193   2.379   0.801  18.485  0.8469 -0.4727  0.2735
 9234TIP3    H249194   2.413   0.911  18.583 -1.3741  0.2148  0.3448
 9235TIP3   OH249195   0.346   2.614  48.473 -0.4013  0.0202  0.1411
 9235TIP3    H149196   0.310   2.663  48.399  0.1454  1.8380  1.0368
 9235TIP3    H249197   0.284   2.630  48.544 -0.6775 -1.3450  0.2403
 9236TIP3   OH249198   1.611   0.098  62.466  0.5777  0.1956 -0.0886
 9236TIP3    H149199   1.673   0.166  62.491  0.6794  0.0140  0.1486
 9236TIP3    H249200   1.604   0.041  62.542 -0.4233  0.6218  0.1542
 9237TIP3   OH249201   1.061   2.387  16.901 -0.4472 -0.2654 -0.1714
 9237TIP3    H149202   1.085   2.458  16.961  0.5630  0.2574 -1.1659
 9237TIP3    H249203   1.039   2.431  16.819  0.1623 -1.1016 -0.7939
 9238TIP3   OH249204   1.443   2.334  63.411  0.1302  0.1368  0.5278
 9238TIP3    H149205   1.348   2.338  63.415  0.0267 -1.3292 -0.0883
 9238TIP3    H249206   1.465   2.345  63.319  0.2338 -3.8595 -0.1012
 9239TIP3   OH249207   2.475   0.818  64.489  0.8208  0.1460 -0.3744
 9239TIP3    H149208   2.545   0.874  64.456  0.3755  0.9571  0.0208
 9239TIP3    H249209   2.396   0.849  64.445  0.4131  0.4680  0.5447
 9240TIP3   OH249210   2.179   3.230  21.501 -0.9338  0.2160  0.4274
 9240TIP3    H149211   2.227   3.148  21.515 -1.7584 -0.1920  0.9996
 9240TIP3    H249212   2.193   3.280  21.581 -1.5282  0.0491  0.6432
 9241TIP3   OH249213   1.369   3.367  57.856  0.2203 -0.2529 -0.2268
 9241TIP3    H149214   1.422   3.309  57.911  0.6479 -0.0360 -0.4113
 9241TIP3    H249215   1.279   3.339  57.872  0.4251 -0.9669 -0.3141
 9242TIP3   OH249216   0.849   2.420  43.498  0.7903 -0.1172  0.1916
 9242TIP3    H149217   0.822   2.351  43.559  0.1641 -0.1529 -0.1222
 9242TIP3    H249218   0.851   2.376  43.413 -0.5278  0.4600 -0.1627
 9243TIP3   OH249219   1.660   0.202   2.061 -0.4133 -0.4656  0.1273
 9243TIP3    H149220   1.717   0.127   2.043 -1.5512 -1.1046 -0.9619
 9243TIP3    H249221   1.685   0.267   1.995  0.9326  0.3632  1.3956
 9244TIP3   OH249222   0.110   2.711  10.886 -0.1218 -0.3607 -0.0447
 9244TIP3    H149223   0.193   2.673  10.859 -0.0416 -1.2160  1.3152
 9244TIP3    H249224   0.129   2.804  10.899  0.1542 -0.1862 -1.5077
 9245TIP3   OH249225   3.317   0.962  50.746  0.1407 -0.4353  0.0647
 9245TIP3    H149226   3.377   0.891  50.727  1.9545  0.6178  1.4823
 9245TIP3    H249227   3.326   1.022  50.672  1.0160 -0.1906  0.3583
 9246TIP3   OH249228   2.656   2.860  52.611 -0.4653 -0.0005  0.0875
 9246TIP3    H149229   2.696   2.781  52.648 -2.2848 -0.7006  0.6447
 9246TIP3    H249230   2.674   2.853  52.517  0.5140 -0.3926  0.2857
 9247TIP3   OH249231   1.460   0.534   6.256 -0.3188 -0.6600  0.2274
 9247TIP3    H149232   1.482   0.441   6.247 -0.0135 -0.4137 -2.0583
 9247TIP3    H249233   1.502   0.561   6.338  0.5397 -2.2655  0.3441
 9248TIP3   OH249234   0.773   2.833  64.908 -0.1245  0.3054 -0.7068
 9248TIP3    H149235   0.689   2.788  64.920 -1.0914  1.9545 -1.0283
 9248TIP3    H249236   0.749   2.920  64.875  1.7829  0.3032 -2.2609
 9249TIP3   OH249237   1.313   1.896  66.769  0.1994  0.0154  0.5064
 9249TIP3    H149238   1.398   1.905  66.812  1.2614  0.3785 -1.5405
 9249TIP3    H249239   1.316   1.810  66.728 -0.9574 -0.4984  1.4706
 9250TIP3   OH249240   0.402   1.364  47.812 -0.3682  0.0161  0.3577
 9250TIP3    H149241   0.457   1.297  47.853 -1.6075 -0.7342  0.8430
 9250TIP3    H249242   0.418   1.352  47.718  2.2909  1.5854  0.5206
 9251TIP3   OH249243   1.117   1.996  46.625 -0.5755  0.2905  0.0180
 9251TIP3    H149244   1.185   2.059  46.648 -0.6993 -0.5214  2.9842
 9251TIP3    H249245   1.159   1.911  46.632 -1.3179 -0.1214 -0.4089
 9252TIP3   OH249246   0.614   1.569  44.804 -0.1493  0.2761  0.4062
 9252TIP3    H149247   0.563   1.500  44.762 -0.8612  0.3419  1.1539
 9252TIP3    H249248   0.672   1.601  44.734 -2.1425  1.2094 -0.9048
 9253TIP3   OH249249   1.967   0.344  66.515  0.1196  0.2721  0.0744
 9253TIP3    H149250   2.042   0.300  66.554  0.7746  1.5689  0.3381
 9253TIP3    H249251   1.978   0.436  66.539 -1.8151  0.4276  0.5266
 9254TIP3   OH249252   1.999   2.322   7.434  0.6925  0.2063 -0.2698
 9254TIP3    H149253   1.943   2.391   7.401  1.1607 -0.3259 -2.3259
 9254TIP3    H249254   1.987   2.324   7.529 -3.3034 -0.3143 -0.6199
 9255TIP3   OH249255   2.275   0.885  51.826 -0.1450  0.6284  0.3809
 9255TIP3    H149256   2.310   0.870  51.914 -0.1478 -1.3056  0.0801
 9255TIP3    H249257   2.186   0.918  51.842 -0.7310 -1.1755  1.1523
 9256TIP3   OH249258   2.219   0.920  48.511 -0.4549 -0.2025 -0.3783
 9256TIP3    H149259   2.185   0.854  48.572 -0.3145  0.3924  0.3524
 9256TIP3    H249260   2.305   0.887  48.485 -0.3419 -0.2551  0.0670
 9257TIP3   OH249261   3.080   2.970   5.685 -0.2348  0.0613 -1.0816
 9257TIP3    H149262   3.017   3.027   5.641  0.0026  0.3331 -1.0702
 9257TIP3    H249263   3.037   2.946   5.767 -0.8304 -0.7438 -1.6157
 9258TIP3   OH249264   2.730   1.377  44.746 -0.4412  0.1695  0.6305
 9258TIP3    H149265   2.796   1.445  44.759 -0.3798 -0.1741  2.3668
 9258TIP3    H249266   2.778   1.295  44.755 -0.8658 -0.0964  0.5075
 9259TIP3   OH249267   1.848   1.666  47.264 -0.0898 -0.0620  0.0396
 9259TIP3    H149268   1.890   1.619  47.193 -1.6891 -0.7873 -0.4853
 9259TIP3    H249269   1.801   1.738  47.221 -1.6895 -0.9450  0.2079
 9260TIP3   OH249270   1.743   0.859  44.128 -0.0649  0.0499  0.2293
 9260TIP3    H149271   1.782   0.781  44.088 -1.5144 -0.8667  0.5549
 9260TIP3    H249272   1.742   0.923  44.057  1.2994 -0.1463  0.0027
 9261TIP3   OH249273   2.680   1.608  50.282  0.2949 -0.1934 -0.2995
 9261TIP3    H149274   2.639   1.644  50.361 -0.7358 -0.1117 -0.8552
 9261TIP3    H249275   2.617   1.625  50.212  1.1138 -0.4226 -1.1188
 9262TIP3   OH249276   1.279   2.146  42.778  0.4602  0.3235  0.4854
 9262TIP3    H149277   1.346   2.211  42.757  1.0119 -0.1471  0.7758
 9262TIP3    H249278   1.313   2.064  42.744 -1.1959  0.5032 -1.7935
 9263TIP3   OH249279   0.287   2.500   1.072 -0.2834  0.9487  0.0140
 9263TIP3    H149280   0.244   2.572   1.118 -2.3212  1.2023 -2.0947
 9263TIP3    H249281   0.218   2.461   1.018  1.4897 -0.5933 -1.2713
 9264TIP3   OH249282   2.936   1.919  67.405 -0.1466  0.1241  0.1856
 9264TIP3    H149283   3.023   1.925  67.445  0.9925  2.2116 -2.2679
 9264TIP3    H249284   2.876   1.908  67.479  2.0717 -0.0084  2.0840
 9265TIP3   OH249285   1.055   0.006  63.732  0.0046 -0.5909 -0.7531
 9265TIP3    H149286   0.986  -0.018  63.794  0.1628  0.5874 -0.0839
 9265TIP3    H249287   1.010   0.059  63.666  0.6081  2.4987  1.1101
 9266TIP3   OH249288   0.535   1.690   2.819 -0.0119 -0.0222 -0.0453
 9266TIP3    H149289   0.596   1.631   2.774  1.3043  1.6803 -0.6099
 9266TIP3    H249290   0.582   1.717   2.897  0.2917  1.8282 -0.8139
 9267TIP3   OH249291   3.061   0.601   3.692  0.5427 -0.1711 -0.1703
 9267TIP3    H149292   3.130   0.613   3.628  0.9450 -0.4816  0.1984
 9267TIP3    H249293   3.072   0.673   3.754 -0.1852  0.4499 -0.7357
 9268TIP3   OH249294   3.065   1.210  45.994 -0.1650  0.2058  0.2712
 9268TIP3    H149295   3.137   1.196  46.055 -0.5446 -1.3919  0.3911
 9268TIP3    H249296   3.036   1.122  45.971 -1.3096  0.8124 -0.6954
 9269TIP3   OH249297   1.523   0.466   8.136  0.1960  0.4606  0.0833
 9269TIP3    H149298   1.482   0.515   8.065  1.2667  0.0321 -0.8440
 9269TIP3    H249299   1.486   0.378   8.129  0.5758  0.3202 -0.1785
 9270TIP3   OH249300   1.617   3.389   7.649 -0.6312 -0.2885  0.4598
 9270TIP3    H149301   1.611   3.385   7.554 -3.3606  0.5168  0.5035
 9270TIP3    H249302   1.636   3.481   7.668  1.6255 -0.7464  0.7298
 9271TIP3   OH249303   2.002   1.623  10.065  0.4773 -0.2284 -0.3023
 9271TIP3    H149304   2.093   1.650  10.059  0.1511  0.6774 -1.8294
 9271TIP3    H249305   1.971   1.659  10.148  1.3931 -0.2316  0.0500
 9272TIP3   OH249306   3.271   0.746   2.163 -0.0906  0.4744 -0.6960
 9272TIP3    H149307   3.199   0.695   2.200  0.2051  1.4609  1.4295
 9272TIP3    H249308   3.242   0.837   2.171  0.9966  0.8353 -0.6921
 9273TIP3   OH249309   1.929   2.136   1.820 -0.1919 -0.7322 -0.0312
 9273TIP3    H149310   1.931   2.055   1.871  0.7407 -0.6924  0.0208
 9273TIP3    H249311   1.877   2.114   1.742  0.3630 -1.4952 -0.2005
 9274TIP3   OH249312   2.092   3.370  43.209 -0.5021 -0.0940  0.5312
 9274TIP3    H149313   2.085   3.407  43.297 -2.9427 -0.6292  0.6455
 9274TIP3    H249314   2.017   3.311  43.202  0.3307 -0.9963 -1.4934
 9275TIP3   OH249315   1.879   0.143   5.310 -0.0410 -0.0470  0.0724
 9275TIP3    H149316   1.824   0.072   5.276  0.0304 -0.4920  0.8617
 9275TIP3    H249317   1.817   0.208   5.343 -0.0989 -0.1128  0.0940
 9276TIP3   OH249318   0.703   3.102  58.513 -0.9158  0.1577 -0.4012
 9276TIP3    H149319   0.609   3.093  58.529 -1.2174  0.8109 -1.6543
 9276TIP3    H249320   0.738   3.014  58.524 -1.4761  0.1089  1.1814
 9277TIP3   OH249321   2.247   1.453  66.860  0.4258 -0.1586  0.4250
 9277TIP3    H149322   2.210   1.541  66.853 -0.7044 -0.5206  1.5090
 9277TIP3    H249323   2.308   1.458  66.934  1.6796  0.1266 -0.6020
 9278TIP3   OH249324   2.818   0.155  60.072  0.0307  0.1355 -0.3491
 9278TIP3    H149325   2.839   0.245  60.096  1.9850 -0.4345  0.2672
 9278TIP3    H249326   2.894   0.124  60.024  0.0568 -1.6327  0.7186
 9279TIP3   OH249327   2.157   0.529  52.433 -0.0603 -0.3847 -0.4361
 9279TIP3    H149328   2.122   0.585  52.502 -0.7763 -0.7531 -0.4884
 9279TIP3    H249329   2.201   0.458  52.480  0.5849  0.0477 -0.3721
 9280TIP3   OH249330   0.147   2.300  55.888  0.1915  0.0023 -0.4600
 9280TIP3    H149331   0.132   2.287  55.794  0.3193 -0.7377 -0.3826
 9280TIP3    H249332   0.076   2.253  55.930  0.1313  0.3396 -0.1788
 9281TIP3   OH249333   3.054   0.199  47.544  0.1541 -0.7018  0.0957
 9281TIP3    H149334   3.061   0.149  47.462  0.4269 -1.3770  0.5283
 9281TIP3    H249335   3.024   0.286  47.516  1.8953 -0.3768 -0.9099
 9282TIP3   OH249336   1.491   3.404  55.747 -0.1346 -0.1132  0.2946
 9282TIP3    H149337   1.581   3.394  55.777 -0.1287  0.0013  0.3154
 9282TIP3    H249338   1.499   3.426  55.654 -0.1218  0.4717  0.4306
 9283TIP3   OH249339   0.964   0.559  13.224  0.3846 -0.2953 -0.8826
 9283TIP3    H149340   0.927   0.569  13.136 -1.0217 -1.0696 -0.4119
 9283TIP3    H249341   0.954   0.465  13.243 -1.3644  0.1874  0.9274
 9284TIP3   OH249342   0.114   2.705  49.424 -0.2575 -0.3803 -0.2677
 9284TIP3    H149343   0.028   2.700  49.381 -1.4989  1.2003  1.8143
 9284TIP3    H249344   0.130   2.616  49.454 -0.1051 -1.1706 -2.4876
 9285TIP3   OH249345   0.734   1.352  62.284 -0.4465 -0.7158 -0.3799
 9285TIP3    H149346   0.686   1.350  62.367 -1.9024  0.5973 -1.1293
 9285TIP3    H249347   0.667   1.341  62.217  0.3707  0.4492 -1.4457
 9286TIP3   OH249348   1.237   2.219  65.160 -0.4067  0.1953  0.2453
 9286TIP3    H149349   1.145   2.194  65.153 -0.1474 -0.5312 -0.9566
 9286TIP3    H249350   1.253   2.274  65.084  0.5063 -0.9319 -0.4165
 9287TIP3   OH249351   3.045   0.019  56.291  0.0160 -0.1832 -0.5130
 9287TIP3    H149352   3.080   0.061  56.370 -0.3910 -0.7369 -0.0288
 9287TIP3    H249353   3.000   0.090  56.245  3.1757  1.0311 -2.0922
 9288TIP3   OH249354   1.645   2.503  49.686  0.2236  0.3383 -0.3380
 9288TIP3    H149355   1.590   2.467  49.755 -1.0832 -0.9213 -1.9788
 9288TIP3    H249356   1.734   2.495  49.720 -0.1606 -2.7260  0.1714
 9289TIP3   OH249357   2.936   1.602  27.510  0.3922 -0.0243  0.1595
 9289TIP3    H149358   2.890   1.543  27.450  2.0715 -0.2812 -0.9766
 9289TIP3    H249359   2.952   1.550  27.588 -0.8477 -0.0600  0.3943
 9290TIP3   OH249360   3.199   2.533  51.825 -0.1455 -0.1222 -0.5022
 9290TIP3    H149361   3.194   2.557  51.733  0.0629 -0.3311 -0.5695
 9290TIP3    H249362   3.276   2.579  51.858 -0.3101  0.0778 -0.3949
 9291TIP3   OH249363   1.419   0.355  19.849 -0.0376 -0.1866  0.1128
 9291TIP3    H149364   1.378   0.326  19.931  0.7904  0.5634  0.7989
 9291TIP3    H249365   1.464   0.277  19.816 -2.2679 -1.1597 -0.8725
 9292TIP3   OH249366   0.687   0.831  18.231  0.3296 -0.0956 -0.0259
 9292TIP3    H149367   0.660   0.773  18.303 -0.6673 -2.6012 -2.2471
 9292TIP3    H249368   0.606   0.877  18.207 -0.2859 -1.9711 -1.7890
 9293TIP3   OH249369   0.788   0.137   4.902  0.2775 -0.3123 -0.3659
 9293TIP3    H149370   0.870   0.179   4.928 -0.1356  0.6827 -0.5891
 9293TIP3    H249371   0.729   0.210   4.886 -0.3552 -0.9849 -1.1915
 9294TIP3   OH249372   1.919   1.580  66.304 -0.1013 -0.1109  0.8280
 9294TIP3    H149373   1.848   1.522  66.332 -1.6954  0.8057 -1.0859
 9294TIP3    H249374   1.932   1.561  66.211  1.4815  0.4852  0.8888
 9295TIP3   OH249375   1.152   1.098  15.659 -0.1989  0.2601 -0.1187
 9295TIP3    H149376   1.165   1.006  15.681 -1.6702  0.1271  0.3345
 9295TIP3    H249377   1.147   1.143  15.743 -2.6906  0.2204 -0.1459
 9296TIP3   OH249378   1.142   0.367  50.982 -0.7217 -0.2132 -0.3389
 9296TIP3    H149379   1.054   0.353  51.018 -0.7100 -0.8516 -0.5545
 9296TIP3    H249380   1.182   0.432  51.041 -0.4342 -1.7812  1.2638
 9297TIP3   OH249381   0.190   0.059  55.886 -0.5618 -0.3864  0.1669
 9297TIP3    H149382   0.142   0.136  55.916 -0.5443 -0.8281  1.3810
 9297TIP3    H249383   0.131  -0.015  55.907  0.1253 -0.8307  0.5700
 9298TIP3   OH249384   0.595   2.424  22.543  1.0611  0.4791  1.2656
 9298TIP3    H149385   0.675   2.420  22.491  0.5883 -1.0280  0.6099
 9298TIP3    H249386   0.580   2.333  22.570 -1.8722  0.1926 -0.8775
 9299TIP3   OH249387   2.951   0.485   7.457  0.5178 -0.0227 -0.2900
 9299TIP3    H149388   2.934   0.563   7.405 -0.3259 -0.5528 -0.8363
 9299TIP3    H249389   2.946   0.412   7.395  0.5972 -0.5745  0.3297
 9300TIP3   OH249390   1.138   0.766  55.905 -0.0930 -0.3272 -0.0269
 9300TIP3    H149391   1.052   0.796  55.877 -0.2195  0.2266  0.9034
 9300TIP3    H249392   1.123   0.680  55.943 -0.2452 -0.2146  0.1701
 9301TIP3   OH249393   3.070   1.670  28.520 -0.3415 -0.2809 -0.1102
 9301TIP3    H149394   3.108   1.635  28.440 -1.2544 -0.6523 -0.3899
 9301TIP3    H249395   3.040   1.758  28.496  1.7895  0.7076  0.5462
 9302TIP3   OH249396   0.544   1.658   5.013  0.2557  0.4727  0.3245
 9302TIP3    H149397   0.472   1.720   5.026  1.2027  1.6371  0.1238
 9302TIP3    H249398   0.525   1.617   4.928 -1.0428 -0.4760  1.0262
 9303TIP3   OH249399   1.856   1.956  56.744 -0.0008  0.5012 -0.8906
 9303TIP3    H149400   1.801   1.890  56.785  0.2595  1.8682  1.8828
 9303TIP3    H249401   1.935   1.908  56.718 -0.4311 -0.5393 -0.3271
 9304TIP3   OH249402   2.999   2.575  58.928  0.0831 -0.0489  0.4705
 9304TIP3    H149403   2.923   2.633  58.920  0.5639  0.6514  0.8971
 9304TIP3    H249404   2.964   2.487  58.914 -0.3714  0.4526 -2.0468
 9305TIP3   OH249405   1.215   0.780  61.123 -0.6641 -0.0454  0.2022
 9305TIP3    H149406   1.136   0.731  61.101 -0.1213 -0.2972 -1.3215
 9305TIP3    H249407   1.183   0.855  61.173 -1.6414 -1.2239  1.4151
 9306TIP3   OH249408   2.350   0.546  15.429  0.0779 -0.3019 -0.2137
 9306TIP3    H149409   2.289   0.559  15.501 -1.6631 -0.9175 -1.4990
 9306TIP3    H249410   2.415   0.615  15.439 -1.6699  1.3334  0.3825
 9307TIP3   OH249411   0.483   2.188  48.053 -0.7233  0.3894 -0.4624
 9307TIP3    H149412   0.465   2.108  48.103  1.2582 -1.2784 -2.2121
 9307TIP3    H249413   0.423   2.183  47.979 -1.3764  1.1364  0.0065
 9308TIP3   OH249414   1.655   0.541  58.486  0.1625  1.0876  0.6723
 9308TIP3    H149415   1.566   0.534  58.453  0.5240  0.7931 -0.2787
 9308TIP3    H249416   1.657   0.483  58.562 -1.0556  2.7978  2.0885
 9309TIP3   OH249417   0.865   2.901  67.099  0.4065 -0.4243  0.2419
 9309TIP3    H149418   0.950   2.897  67.144  0.6924 -0.3232 -0.2877
 9309TIP3    H249419   0.857   2.815  67.057 -0.3889 -0.9523  1.4233
 9310TIP3   OH249420   0.511   0.723  42.768 -0.1207  0.1165  0.1914
 9310TIP3    H149421   0.439   0.661  42.755  0.9222 -1.3681  1.1656
 9310TIP3    H249422   0.589   0.676  42.738  0.8561  0.4851  2.0243
 9311TIP3   OH249423   1.469   0.440  52.624 -0.2723 -0.0667 -0.4178
 9311TIP3    H149424   1.378   0.417  52.603  0.3996 -2.3413 -1.0766
 9311TIP3    H249425   1.515   0.438  52.540  0.8882 -1.5655  0.2083
 9312TIP3   OH249426   2.613   1.813   0.572  0.1018  0.0940 -0.1773
 9312TIP3    H149427   2.597   1.871   0.497  0.9648  1.4419  0.6305
 9312TIP3    H249428   2.554   1.844   0.640  2.3495  1.8570  1.1462
 9313TIP3   OH249429   0.363   3.115  43.803  0.6079  0.3358  0.1687
 9313TIP3    H149430   0.344   3.085  43.892 -0.0087  1.1010  0.3141
 9313TIP3    H249431   0.392   3.037  43.756  0.3416 -0.1982  0.8800
 9314TIP3   OH249432   1.528   2.360  57.987 -0.7269  0.1670  0.2358
 9314TIP3    H149433   1.609   2.351  57.936 -0.9533 -3.5023  0.2861
 9314TIP3    H249434   1.460   2.379  57.922 -0.4849 -1.1552 -0.4358
 9315TIP3   OH249435   1.679   1.908  44.011 -0.2313  0.5060  0.5356
 9315TIP3    H149436   1.712   1.838  43.955 -2.8677 -0.3873 -0.0475
 9315TIP3    H249437   1.678   1.870  44.099 -1.6915 -0.2935  0.2165
 9316TIP3   OH249438   3.044   0.948  57.243  0.0577 -0.0873 -0.6946
 9316TIP3    H149439   3.079   0.990  57.165 -0.8014 -0.4456 -1.2826
 9316TIP3    H249440   3.119   0.904  57.282  0.9742  1.8810 -0.1070
 9317TIP3   OH249441   0.622   0.201  46.222 -0.0976  0.0886  0.1213
 9317TIP3    H149442   0.656   0.115  46.195  2.0193  0.7313  0.6092
 9317TIP3    H249443   0.568   0.181  46.298 -0.2550 -0.8843 -0.2167
 9318TIP3   OH249444   1.683   2.189  18.252 -0.1781  0.1127 -0.5348
 9318TIP3    H149445   1.675   2.139  18.334 -1.5784 -0.7332 -1.1431
 9318TIP3    H249446   1.634   2.269  18.269 -1.2282 -0.4538 -0.8136
 9319TIP3   OH249447   1.133   3.427  47.570  0.0037 -0.1581  0.2784
 9319TIP3    H149448   1.122   3.398  47.479 -0.3429 -0.6319  0.4650
 9319TIP3    H249449   1.044   3.441  47.601  0.0894 -0.5517  0.7191
 9320TIP3   OH249450   2.931   1.561  60.442  0.9072  0.7007 -0.2364
 9320TIP3    H149451   2.974   1.647  60.444  2.7642 -0.1342 -1.6528
 9320TIP3    H249452   2.973   1.512  60.513  3.0565 -0.3891 -2.1395
 9321TIP3   OH249453   2.209   2.046  56.118 -0.1883  0.3796  0.1067
 9321TIP3    H149454   2.185   2.124  56.167  0.2059  0.1451  0.6743
 9321TIP3    H249455   2.125   2.003  56.099 -0.4958  1.3970 -1.0082
 9322TIP3   OH249456   3.251   0.159  44.150 -0.9561 -0.4621  0.1095
 9322TIP3    H149457   3.227   0.133  44.238  0.4711 -0.0447  0.6590
 9322TIP3    H249458   3.246   0.255  44.151 -0.9196 -0.4530 -0.2548
 9323TIP3   OH249459   3.203   0.712  11.624 -0.0673  0.0853  0.4579
 9323TIP3    H149460   3.278   0.654  11.629  0.6000  0.8501 -0.3637
 9323TIP3    H249461   3.239   0.800  11.640 -0.7029  0.5189 -0.3962
 9324TIP3   OH249462   0.183   3.313  45.538 -0.0418 -0.4656  0.0831
 9324TIP3    H149463   0.229   3.232  45.560  3.2170  0.7535 -1.6090
 9324TIP3    H249464   0.214   3.377  45.603  0.6343  0.3700 -1.0314
 9325TIP3   OH249465   1.826   2.006  67.188 -0.1632 -0.3186 -0.0017
 9325TIP3    H149466   1.752   2.030  67.133 -0.0005 -0.7703 -0.4334
 9325TIP3    H249467   1.823   1.910  67.191 -0.1699 -0.3023  0.7808
 9326TIP3   OH249468   0.883   2.138  10.834 -0.2063 -0.3540  0.7213
 9326TIP3    H149469   0.878   2.194  10.757 -0.5223 -1.8252 -0.3540
 9326TIP3    H249470   0.805   2.159  10.885 -0.7653 -0.4348 -0.1011
 9327TIP3   OH249471   1.414   1.619  10.092  0.1353  0.0727 -0.1163
 9327TIP3    H149472   1.457   1.607  10.007  0.7102  0.4089  0.1178
 9327TIP3    H249473   1.333   1.568  10.086  0.0997  0.2154 -0.9165
 9328TIP3   OH249474   0.902   1.943  62.561  0.0087 -0.1858 -0.2156
 9328TIP3    H149475   0.828   1.992  62.526 -1.1305 -1.1619  0.7294
 9328TIP3    H249476   0.886   1.939  62.656  1.4130 -0.1965  0.0465
 9329TIP3   OH249477   0.723   0.734  14.346  0.5067  0.2789  1.1282
 9329TIP3    H149478   0.672   0.739  14.427 -3.0467  1.0902 -0.9292
 9329TIP3    H249479   0.722   0.824  14.312 -1.6687 -0.6410 -1.6472
 9330TIP3   OH249480   0.619   2.592  36.133  0.0826  0.5569  0.3164
 9330TIP3    H149481   0.581   2.504  36.127 -0.2733  0.7096  0.3052
 9330TIP3    H249482   0.596   2.622  36.221  1.0320  0.2661  0.6785
 9331TIP3   OH249483   0.104   1.078  54.959 -0.2404  0.0191 -0.3030
 9331TIP3    H149484   0.052   1.005  54.991 -2.5475  0.7941 -1.9847
 9331TIP3    H249485   0.068   1.154  55.004  0.3472  0.4141 -0.4897
 9332TIP3   OH249486   1.033   0.630   9.353  0.0164 -0.2475  0.3552
 9332TIP3    H149487   1.035   0.539   9.323  0.8752  0.0053 -0.4005
 9332TIP3    H249488   1.016   0.680   9.273 -0.8739  0.2380  0.8320
 9333TIP3   OH249489   1.117   1.636  48.848  0.7210 -0.1417 -0.5980
 9333TIP3    H149490   1.061   1.701  48.806  0.0153 -0.4039 -0.0834
 9333TIP3    H249491   1.056   1.570  48.882  1.3178 -0.2414  0.3019
 9334TIP3   OH249492   0.821   0.401  15.410  0.4945  0.5112 -0.4642
 9334TIP3    H149493   0.743   0.456  15.401 -1.6243 -2.1299  0.4443
 9334TIP3    H249494   0.820   0.344  15.333  1.8266  0.7489 -0.6793
 9335TIP3   OH249495   1.964   1.337  19.846 -0.2478 -0.2814 -0.1731
 9335TIP3    H149496   1.949   1.265  19.907  0.6749 -1.2936 -1.0993
 9335TIP3    H249497   1.878   1.353  19.806 -0.5889 -0.4298  0.4814
 9336TIP3   OH249498   0.490   0.465  36.509 -0.4216 -0.0034  0.2245
 9336TIP3    H149499   0.500   0.560  36.521 -0.5336  0.0773 -0.3134
 9336TIP3    H249500   0.403   0.446  36.546 -1.0304  0.3485 -0.9828
 9337TIP3   OH249501   1.362   2.008  55.395 -0.2641 -0.5042  0.0066
 9337TIP3    H149502   1.378   1.917  55.419 -0.7885 -0.3689  0.9271
 9337TIP3    H249503   1.274   2.027  55.428  0.7677  1.0659  2.2108
 9338TIP3   OH249504   3.150   0.825  16.495  0.3477 -0.4412  0.2704
 9338TIP3    H149505   3.163   0.785  16.581 -1.5813 -0.4087  0.6080
 9338TIP3    H249506   3.147   0.751  16.434  1.3029 -0.4878  0.2575
 9339TIP3   OH249507   1.192   1.563  10.793 -0.0296 -0.9794  0.4195
 9339TIP3    H149508   1.099   1.559  10.815 -0.3803  1.2532 -0.4254
 9339TIP3    H249509   1.194   1.574  10.698  1.1293 -1.4310  0.3801
 9340TIP3   OH249510   0.114   1.108  52.673 -0.1248  0.7349 -0.1156
 9340TIP3    H149511   0.093   1.047  52.743  2.0638 -2.7627 -2.2517
 9340TIP3    H249512   0.064   1.187  52.695 -1.3849 -0.9511  4.0216
 9341TIP3   OH249513   2.335   0.908  48.175  0.0219  0.4483 -0.4478
 9341TIP3    H149514   2.393   0.973  48.214 -0.6576  0.7706  0.0589
 9341TIP3    H249515   2.251   0.954  48.165 -0.2962 -0.1666 -0.6601
 9342TIP3   OH249516   1.444   2.112  56.787 -0.3819  0.4016 -0.0757
 9342TIP3    H149517   1.365   2.151  56.825 -0.9865  0.0055 -0.8805
 9342TIP3    H249518   1.432   2.123  56.693  0.4175  0.1047 -0.2155
 9343TIP3   OH249519   2.975   0.309  52.989 -0.3188 -0.1467 -0.7060
 9343TIP3    H149520   2.992   0.215  52.977 -0.8291 -0.3011 -0.2866
 9343TIP3    H249521   2.957   0.318  53.082 -1.1653  0.2068 -0.8881
 9344TIP3   OH249522   3.079   3.151  10.518 -0.1413  0.1828 -0.0997
 9344TIP3    H149523   3.052   3.239  10.492  0.5162  0.5069  0.2959
 9344TIP3    H249524   3.154   3.165  10.575  1.9252 -0.7271 -2.4050
 9345TIP3   OH249525   1.687   0.135  50.910 -0.3473 -0.7293  0.5992
 9345TIP3    H149526   1.755   0.070  50.894 -1.2821 -1.3969 -0.8922
 9345TIP3    H249527   1.724   0.193  50.977  2.4416  0.0251 -1.3944
 9346TIP3   OH249528   0.418   2.578  61.059  0.2782  0.0754  0.1112
 9346TIP3    H149529   0.359   2.526  61.114  0.9779 -0.8006  0.0667
 9346TIP3    H249530   0.464   2.635  61.120 -1.2972  1.4812  0.0392
 9347TIP3   OH249531   1.678   1.892   2.302  0.2556  0.3529 -0.0890
 9347TIP3    H149532   1.741   1.840   2.251 -2.0665 -0.5034 -2.3069
 9347TIP3    H249533   1.648   1.960   2.242  0.7935  2.2948  1.7231
 9348TIP3   OH249534   1.866   3.101  49.427 -0.1925 -0.4399  0.2878
 9348TIP3    H149535   1.935   3.121  49.364  0.7056  0.8894  1.6141
 9348TIP3    H249536   1.913   3.075  49.506 -1.2596 -0.9089  0.7886
 9349TIP3   OH249537   1.425   1.170  54.039 -0.0520  0.3443  0.1952
 9349TIP3    H149538   1.441   1.100  53.976 -1.2891  0.5136 -0.3430
 9349TIP3    H249539   1.427   1.127  54.124 -0.8639 -0.3617 -0.1348
 9350TIP3   OH249540   3.039   2.374  19.842  0.0148 -0.2973 -0.0533
 9350TIP3    H149541   2.979   2.408  19.909 -0.7401 -0.7518 -0.4792
 9350TIP3    H249542   3.112   2.435  19.842  0.1381 -0.4145  1.3452
 9351TIP3   OH249543   1.811   2.143  53.401  0.3294 -0.1613  0.2343
 9351TIP3    H149544   1.865   2.163  53.325 -1.7178  0.3556 -1.1621
 9351TIP3    H249545   1.874   2.127  53.472  2.2815 -0.1964 -1.4284
 9352TIP3   OH249546   0.270   1.827  54.173 -0.2131 -0.1867  0.0468
 9352TIP3    H149547   0.364   1.819  54.191 -0.1029 -1.6339 -0.9490
 9352TIP3    H249548   0.230   1.754  54.221 -0.9235  0.8028  0.9938
 9353TIP3   OH249549   0.066   2.128  12.869  0.1161 -0.6334 -0.4749
 9353TIP3    H149550   0.094   2.078  12.946 -1.7970 -1.4167 -0.2131
 9353TIP3    H249551   0.034   2.062  12.808 -0.4093  0.1248 -1.0403
 9354TIP3   OH249552   1.072   1.939  53.681 -0.5935  0.5891  0.7019
 9354TIP3    H149553   1.061   1.864  53.740 -0.0912 -0.0186  0.0475
 9354TIP3    H249554   1.159   1.973  53.701  1.1233 -1.7496 -1.9558
 9355TIP3   OH249555   0.411   3.147  60.878 -0.3129  0.0142  0.5430
 9355TIP3    H149556   0.343   3.129  60.813  0.3274 -0.2180 -0.0796
 9355TIP3    H249557   0.493   3.145  60.828  0.1890 -0.1223  1.3538
 9356TIP3   OH249558   0.535   1.125  51.689  0.1526  0.0670  0.1060
 9356TIP3    H149559   0.513   1.169  51.607 -0.9778 -2.9694 -1.3671
 9356TIP3    H249560   0.631   1.121  51.690  0.2432  1.6655 -0.1452
 9357TIP3   OH249561   0.967   0.489  16.407  0.4939  0.1553 -0.4604
 9357TIP3    H149562   1.046   0.498  16.460 -0.4931  3.7486  0.7274
 9357TIP3    H249563   0.897   0.473  16.471 -0.0914 -0.4056 -1.2260
 9358TIP3   OH249564   2.760   0.847   1.250 -0.0894 -0.0558  0.1014
 9358TIP3    H149565   2.669   0.834   1.279  0.0376  0.9271  1.0003
 9358TIP3    H249566   2.810   0.784   1.302 -0.4538 -2.3329 -2.0756
 9359TIP3   OH249567   1.424   1.782  12.117 -0.0610 -0.5365  0.3135
 9359TIP3    H149568   1.342   1.808  12.159  0.2215  1.4770 -0.2680
 9359TIP3    H249569   1.401   1.704  12.067 -1.6079 -0.0868  0.2533
 9360TIP3   OH249570   0.110   1.309  66.032 -0.1276  0.3498 -0.3760
 9360TIP3    H149571   0.115   1.260  65.950  1.6595 -1.2568  0.6111
 9360TIP3    H249572   0.104   1.243  66.100  0.3336  1.5616  0.9103
 9361TIP3   OH249573   0.539   0.637  50.012 -0.1746 -0.3396 -0.7551
 9361TIP3    H149574   0.459   0.623  50.064 -0.0253  2.2903  0.3314
 9361TIP3    H249575   0.594   0.692  50.068  1.2656  0.1218 -2.5427
 9362TIP3   OH249576   2.234   2.633  63.370 -0.0534  0.1889  0.7564
 9362TIP3    H149577   2.146   2.658  63.398 -0.3383  0.6869 -0.4933
 9362TIP3    H249578   2.247   2.681  63.288  0.6907 -1.2574 -0.0108
 9363TIP3   OH249579   0.698   2.937  63.271 -0.2780 -0.5145  0.0357
 9363TIP3    H149580   0.700   2.993  63.348 -1.2955  1.2715 -1.1772
 9363TIP3    H249581   0.759   2.866  63.291  0.2569  0.4597  2.0418
 9364TIP3   OH249582   2.425   0.721   1.100 -0.1984 -0.0801  0.6987
 9364TIP3    H149583   2.498   0.751   1.153 -0.5429  0.0338  1.1127
 9364TIP3    H249584   2.414   0.789   1.034 -1.0618  0.7979  1.7128
 9365TIP3   OH249585   1.933   0.917  57.871 -0.1092  0.3739 -0.2976
 9365TIP3    H149586   1.964   0.958  57.952  0.4786  0.2651 -0.4601
 9365TIP3    H249587   1.898   0.990  57.819 -2.4455  0.1922  0.8827
 9366TIP3   OH249588   3.049   0.515  50.200  0.1146  0.1692  0.2644
 9366TIP3    H149589   3.004   0.437  50.234  0.7178  0.2798  1.3468
 9366TIP3    H249590   3.004   0.588  50.242  0.7239  0.3163  0.6746
 9367TIP3   OH249591   0.140   2.730  52.972  0.7702  0.1322 -0.3154
 9367TIP3    H149592   0.047   2.717  52.989  0.8280  1.3701  1.1395
 9367TIP3    H249593   0.179   2.643  52.981  0.1025 -0.0098  1.5540
 9368TIP3   OH249594   0.369   1.217  20.440 -0.0604  0.3633  0.0470
 9368TIP3    H149595   0.362   1.122  20.433  1.0086  0.3682 -1.9433
 9368TIP3    H249596   0.283   1.250  20.415 -0.0545 -0.0619 -0.5418
 9369TIP3   OH249597   2.045   0.667  51.236  0.1581 -0.2075 -0.0830
 9369TIP3    H149598   2.115   0.641  51.175 -0.9060 -0.7007 -1.1250
 9369TIP3    H249599   1.977   0.601  51.225 -0.4895  0.2605  0.9175
 9370TIP3   OH249600   2.833   3.401  61.540 -0.9113  0.0579  0.0620
 9370TIP3    H149601   2.814   3.394  61.446  1.7938 -0.0201 -0.5653
 9370TIP3    H249602   2.837   3.310  61.570  1.9011 -0.1350 -0.6646
 9371TIP3   OH249603   1.360   1.994  50.305 -0.1224 -0.0644  0.2190
 9371TIP3    H149604   1.398   1.944  50.377 -0.6481 -0.5801  0.1405
 9371TIP3    H249605   1.355   1.931  50.232  5.4180  1.5960 -2.1409
 9372TIP3   OH249606   2.725   2.375  19.625  0.0304  0.2940  0.2932
 9372TIP3    H149607   2.636   2.387  19.591 -0.2777  0.4333  1.1245
 9372TIP3    H249608   2.767   2.460  19.615 -0.2694  0.5102  0.8505
 9373TIP3   OH249609   1.769   1.549   9.536 -0.2347 -0.2325 -0.1796
 9373TIP3    H149610   1.707   1.583   9.471 -0.5576 -1.7230 -0.6864
 9373TIP3    H249611   1.726   1.471   9.572  0.2945  0.0934  1.2568
 9374TIP3   OH249612   1.971   1.655  42.813  0.0533  0.5672 -0.2336
 9374TIP3    H149613   2.060   1.662  42.778 -0.4123 -0.0024 -1.6297
 9374TIP3    H249614   1.949   1.744  42.840  1.7195  0.3792  1.9891
 9375TIP3   OH249615   1.258   0.031  47.912 -0.1424 -0.3760 -0.4389
 9375TIP3    H149616   1.292  -0.048  47.870 -1.1708 -0.2813 -1.5110
 9375TIP3    H249617   1.215   0.079  47.841 -0.1624  0.8022  0.3417
 9376TIP3   OH249618   3.140   0.397   1.958  0.3559  0.0158 -0.0284
 9376TIP3    H149619   3.196   0.448   1.899  0.9921 -1.5211 -0.8080
 9376TIP3    H249620   3.073   0.459   1.987  1.6275  1.5319 -0.1894
 9377TIP3   OH249621   1.265   2.977   4.328  0.2010 -0.4341 -0.0209
 9377TIP3    H149622   1.312   3.045   4.279 -3.0362  1.9214 -0.1839
 9377TIP3    H249623   1.326   2.952   4.397  2.5041  0.7588 -1.4917
 9378TIP3   OH249624   2.251   2.858  18.394  0.2171  0.6092 -0.2879
 9378TIP3    H149625   2.238   2.766  18.371 -0.3819  0.3964  0.8571
 9378TIP3    H249626   2.222   2.906  18.317 -0.4929 -0.1277 -0.4889
 9379TIP3   OH249627   2.537   1.118  13.657 -0.2233  0.5646 -0.1366
 9379TIP3    H149628   2.584   1.180  13.601  1.5636 -1.6523 -1.2730
 9379TIP3    H249629   2.517   1.044  13.599 -0.6837 -0.6775  1.5398
 9380TIP3   OH249630   2.404   3.422  56.360  0.3553 -0.2771 -0.4369
 9380TIP3    H149631   2.491   3.423  56.321  0.0426  1.0566 -1.1542
 9380TIP3    H249632   2.396   3.506  56.405 -1.1674  0.3939 -1.8374
 9381TIP3   OH249633   0.700   0.248  48.926  0.1050 -0.7281 -0.0678
 9381TIP3    H149634   0.713   0.327  48.979 -1.2949 -0.3662 -0.2157
 9381TIP3    H249635   0.605   0.245  48.911  0.4930 -0.1467 -3.5464
 9382TIP3   OH249636   2.296   0.236  58.459 -0.3041  0.1770  0.7339
 9382TIP3    H149637   2.359   0.280  58.516  0.6071 -1.7985  1.3591
 9382TIP3    H249638   2.265   0.304  58.399  1.0198  1.6175  1.6219
 9383TIP3   OH249639   0.430   3.258   7.156 -0.0456  0.1165 -0.2757
 9383TIP3    H149640   0.438   3.350   7.181  0.3677 -0.1346  0.5628
 9383TIP3    H249641   0.444   3.257   7.061 -0.8134  1.0027 -0.4135
 9384TIP3   OH249642   2.423   0.392  44.858  0.1813  0.6568  0.4502
 9384TIP3    H149643   2.420   0.297  44.844 -0.2308  0.6274  0.7311
 9384TIP3    H249644   2.411   0.402  44.953  0.1635  0.9936  0.4109
 9385TIP3   OH249645   0.206   3.245  17.976  0.4129  0.1649  0.3902
 9385TIP3    H149646   0.279   3.307  17.979  0.9049 -0.3635 -0.1768
 9385TIP3    H249647   0.128   3.300  17.968  0.7047  0.7535  1.3724
 9386TIP3   OH249648   0.041   3.069  14.035 -0.0898 -0.1729  0.1473
 9386TIP3    H149649   0.042   3.085  14.129  1.7535  0.1585  0.1216
 9386TIP3    H249650   0.097   3.138  13.999  0.8427 -1.4531 -0.9596
 9387TIP3   OH249651   1.183   0.198   0.570  0.4394  0.4402  0.0582
 9387TIP3    H149652   1.211   0.200   0.479 -0.5749  1.1381 -0.2578
 9387TIP3    H249653   1.251   0.149   0.615  0.1804 -1.3021 -1.3472
 9388TIP3   OH249654   3.101   2.625  56.596  0.1551  0.3401  0.3442
 9388TIP3    H149655   3.093   2.605  56.689 -1.2466  0.3833  0.2582
 9388TIP3    H249656   3.167   2.565  56.563  0.1575 -0.1473  1.2357
 9389TIP3   OH249657   0.848   3.058  64.680  0.3399  0.0092 -0.4883
 9389TIP3    H149658   0.754   3.050  64.691  0.3665  0.6391  0.3128
 9389TIP3    H249659   0.859   3.097  64.593 -0.1419  0.1344 -0.4939
 9390TIP3   OH249660   1.778   1.352  66.698 -0.1033  0.3498 -0.4383
 9390TIP3    H149661   1.829   1.271  66.699 -1.5057 -0.5704 -0.4879
 9390TIP3    H249662   1.764   1.370  66.605 -0.6476  0.0727 -0.4120
 9391TIP3   OH249663   2.045   0.950  42.600  0.2987  0.4407 -0.0853
 9391TIP3    H149664   2.004   1.012  42.540  0.2554 -1.1479 -1.8041
 9391TIP3    H249665   2.128   0.927  42.559 -0.9491 -2.7812 -1.0852
 9392TIP3   OH249666   0.370   3.351   3.159 -0.0312  0.4356 -0.3444
 9392TIP3    H149667   0.340   3.402   3.084  1.7470  0.6020 -0.9990
 9392TIP3    H249668   0.354   3.407   3.235 -2.9177 -0.1797 -0.3671
 9393TIP3   OH249669   2.679   1.426  28.481  0.3823  0.2267  0.6955
 9393TIP3    H149670   2.731   1.388  28.410  1.0057  0.7820  0.8386
 9393TIP3    H249671   2.654   1.351  28.535  2.2876  0.0597  1.4378
 9394TIP3   OH249672   1.748   0.596  22.742  0.2738 -0.3005  0.0616
 9394TIP3    H149673   1.824   0.543  22.719 -0.1714 -0.9242 -0.0023
 9394TIP3    H249674   1.688   0.535  22.784  0.4623  0.5079  1.5631
 9395TIP3   OH249675   3.442   1.193  43.651 -0.1518  0.1026 -0.1967
 9395TIP3    H149676   3.532   1.225  43.651  0.1039 -0.4515 -2.5802
 9395TIP3    H249677   3.449   1.098  43.653 -0.8432 -0.0060  3.0202
 9396TIP3   OH249678   2.233   0.013  13.833  0.8517 -0.5841 -0.0473
 9396TIP3    H149679   2.144   0.020  13.798  0.9475  1.4540  0.0008
 9396TIP3    H249680   2.288   0.008  13.755  0.7840 -0.2275 -0.1229
 9397TIP3   OH249681   1.147   3.106  13.928  0.5336 -0.4917  0.1998
 9397TIP3    H149682   1.116   3.179  13.981  1.5750 -0.8074  1.2818
 9397TIP3    H249683   1.165   3.036  13.990  1.6815 -0.9072 -0.5553
 9398TIP3   OH249684   1.481   1.630  10.993 -0.1887  0.1475 -0.2587
 9398TIP3    H149685   1.541   1.566  11.031 -0.2217 -0.1364 -0.6820
 9398TIP3    H249686   1.397   1.584  10.986  0.0193 -0.0962 -1.4610
 9399TIP3   OH249687   1.884   0.863  62.105  0.0399 -0.1485 -0.1379
 9399TIP3    H149688   1.928   0.804  62.166 -2.3715  0.0602  1.9541
 9399TIP3    H249689   1.953   0.924  62.076  2.3727 -3.2038 -1.5961
 9400TIP3   OH249690   0.169   3.205  15.994  0.3143  0.1599 -0.3428
 9400TIP3    H149691   0.153   3.200  16.089 -0.0792 -0.7958 -0.4559
 9400TIP3    H249692   0.082   3.196  15.955  0.3283  1.6215 -0.7878
 9401TIP3   OH249693   3.294   1.517  62.561  0.3695 -0.4176  0.2695
 9401TIP3    H149694   3.283   1.443  62.502  0.3722 -0.5705  0.4580
 9401TIP3    H249695   3.388   1.523  62.576  0.4581  0.2039 -0.4741
 9402TIP3   OH249696   2.937   0.685  48.351 -0.0159  0.2881  0.0565
 9402TIP3    H149697   2.993   0.763  48.341  0.0960  0.1180 -0.7249
 9402TIP3    H249698   2.998   0.611  48.342 -0.3754  0.0973 -1.0118
 9403TIP3   OH249699   0.074   1.817  15.963  0.5448 -0.6648  0.2355
 9403TIP3    H149700   0.021   1.848  15.890  2.1713  0.6609 -0.4641
 9403TIP3    H249701   0.056   1.723  15.969  1.3130 -1.0916 -2.7476
 9404TIP3   OH249702   1.189   3.292  49.879  0.1121  0.0443 -0.4300
 9404TIP3    H149703   1.246   3.278  49.954 -0.7446  0.3994  0.3034
 9404TIP3    H249704   1.202   3.214  49.824 -0.4882 -1.0485  0.9118
 9405TIP3   OH249705   0.442   3.355  50.491 -0.1076 -0.2137  0.3381
 9405TIP3    H149706   0.414   3.382  50.403 -0.0178  0.6377  0.5607
 9405TIP3    H249707   0.525   3.310  50.477  0.7900  1.4341  0.1405
 9406TIP3   OH249708   2.828   2.530  61.759 -0.6740 -0.1152  0.2310
 9406TIP3    H149709   2.880   2.489  61.828  1.2913 -0.3396 -1.2679
 9406TIP3    H249710   2.847   2.624  61.768  0.5052 -0.2458 -0.6553
 9407TIP3   OH249711   0.059   0.237  61.980 -0.7056 -0.1354 -0.2746
 9407TIP3    H149712   0.114   0.274  61.912  0.8465 -0.0449  0.9721
 9407TIP3    H249713   0.081   0.144  61.983  0.6757  0.1927  1.3264
 9408TIP3   OH249714   2.338   0.598   6.234  0.3711  0.2023 -0.1629
 9408TIP3    H149715   2.421   0.642   6.247  0.2054  0.3987  0.2265
 9408TIP3    H249716   2.277   0.643   6.292  0.2612 -0.7092  0.4503
 9409TIP3   OH249717   0.775   0.783  14.798 -0.0450  0.4158 -0.4774
 9409TIP3    H149718   0.700   0.842  14.790 -0.2558 -0.0050 -1.8260
 9409TIP3    H249719   0.743   0.699  14.766  0.2541 -0.4679  1.3885
 9410TIP3   OH249720   2.403   1.652  44.241  0.2673  0.3919 -0.2586
 9410TIP3    H149721   2.470   1.591  44.273  0.0523 -0.3347 -1.1509
 9410TIP3    H249722   2.368   1.610  44.162 -2.0625  0.2040  0.8061
 9411TIP3   OH249723   0.620   0.800   0.631 -0.0484 -0.1873 -0.3892
 9411TIP3    H149724   0.632   0.707   0.652 -1.2033 -0.7050 -1.8673
 9411TIP3    H249725   0.549   0.828   0.689  2.1793  0.6171  2.1624
 9412TIP3   OH249726   2.916   2.627   7.067 -0.0849  0.1473 -0.1167
 9412TIP3    H149727   2.968   2.645   7.145 -0.0269  0.6448 -0.2664
 9412TIP3    H249728   2.964   2.670   6.996 -0.3733  0.0842 -0.3502
 9413TIP3   OH249729   2.879   2.351  45.377  0.0848 -0.9627 -0.7226
 9413TIP3    H149730   2.842   2.388  45.457  3.7826  2.0638 -0.0824
 9413TIP3    H249731   2.879   2.257  45.391 -0.7012 -0.6163  2.2381
 9414TIP3   OH249732   1.473   0.109   2.915 -0.1613  0.0138  0.8722
 9414TIP3    H149733   1.514   0.057   2.984 -0.4699 -0.4958  0.6751
 9414TIP3    H249734   1.399   0.056   2.886  0.1037  0.1116 -0.0142
 9415TIP3   OH249735   0.045   2.592  53.906  0.0430 -0.2116 -0.4075
 9415TIP3    H149736   0.086   2.508  53.926  0.2331 -0.0105  0.0749
 9415TIP3    H249737  -0.022   2.572  53.840 -0.8921 -0.9744  0.7465
 9416TIP3   OH249738   1.236   0.977   5.492 -0.2071  0.1443  0.1474
 9416TIP3    H149739   1.204   0.941   5.575 -1.0662 -0.7511 -0.5482
 9416TIP3    H249740   1.195   1.064   5.487 -0.5095  0.0242  0.4619
 9417TIP3   OH249741   2.106   2.913  59.824  0.3056  0.7383 -0.4417
 9417TIP3    H149742   2.058   2.992  59.850 -0.1136 -0.0665  1.3889
 9417TIP3    H249743   2.197   2.940  59.820  0.0718  1.5101 -0.7141
 9418TIP3   OH249744   3.018   3.005  42.923  0.1073 -0.3660 -0.1920
 9418TIP3    H149745   3.029   3.084  42.871 -0.8093  0.6937  1.1599
 9418TIP3    H249746   2.924   2.987  42.921  0.1763 -0.8143  0.3624
 9419TIP3   OH249747   2.831   0.850   7.118  0.3111  0.1200  0.3075
 9419TIP3    H149748   2.738   0.857   7.139  0.0829  3.2450 -1.2621
 9419TIP3    H249749   2.836   0.869   7.025  2.5164 -0.3034  0.2949
 9420TIP3   OH249750   2.204   2.325  16.015 -0.6685 -0.2535 -0.2159
 9420TIP3    H149751   2.262   2.258  15.977 -0.5306  0.8499 -2.1011
 9420TIP3    H249752   2.159   2.280  16.086  1.2264 -1.6379  0.2109
 9421TIP3   OH249753   2.121   2.109  16.660 -0.0474  0.1444 -0.2876
 9421TIP3    H149754   2.057   2.164  16.615 -0.2128 -0.3866 -0.7119
 9421TIP3    H249755   2.137   2.153  16.743 -0.3056  0.7443 -0.5507
 9422TIP3   OH249756   1.470   1.428  46.372 -0.1909  0.0322 -0.2481
 9422TIP3    H149757   1.457   1.377  46.453 -1.7058  0.3706 -0.2573
 9422TIP3    H249758   1.544   1.385  46.329  0.1697 -0.6130  0.9544
 9423TIP3   OH249759   2.413   0.686  62.745 -0.1221 -0.1052 -0.4713
 9423TIP3    H149760   2.493   0.722  62.707  0.4235 -2.9202 -2.2765
 9423TIP3    H249761   2.350   0.686  62.674  0.1394 -3.1841 -0.8420
 9424TIP3   OH249762   1.065   0.856  10.467 -0.5350 -0.1451 -0.2029
 9424TIP3    H149763   1.055   0.761  10.474 -0.3045 -0.2098 -0.7411
 9424TIP3    H249764   1.120   0.869  10.390 -1.0717  0.4548 -0.4944
 9425TIP3   OH249765   1.076   3.357  60.315 -0.1619  0.1839  0.5648
 9425TIP3    H149766   1.074   3.292  60.385  1.1669 -1.0021 -0.4471
 9425TIP3    H249767   1.154   3.409  60.333  0.2785 -0.2302 -0.0958
 9426TIP3   OH249768   0.542   0.023  20.160  0.0549 -0.0774 -0.5944
 9426TIP3    H149769   0.578  -0.029  20.232  0.4978  2.1265  0.8722
 9426TIP3    H249770   0.619   0.060  20.117 -0.2479  2.2321  0.6820
 9427TIP3   OH249771   1.991   1.722  59.908  0.6886  0.4131  0.1941
 9427TIP3    H149772   1.944   1.778  59.970 -1.3901 -0.6359 -0.3600
 9427TIP3    H249773   1.982   1.634  59.944 -0.0294 -0.1271 -1.2403
 9428TIP3   OH249774   2.505   1.309  44.007  0.2176 -0.0024  0.3547
 9428TIP3    H149775   2.443   1.240  43.983  0.1059 -0.0479  0.7688
 9428TIP3    H249776   2.548   1.276  44.086  0.0974  0.4380  0.6067
 9429TIP3   OH249777   1.026   2.692  65.631  0.0649 -0.3691  0.1680
 9429TIP3    H149778   1.037   2.718  65.723  0.2521  0.7516 -0.1565
 9429TIP3    H249779   0.949   2.741  65.602  0.6844  0.1732 -0.5903
 9430TIP3   OH249780   0.139   2.098   6.142 -0.1566 -0.2468  0.6593
 9430TIP3    H149781   0.218   2.052   6.171 -1.1433 -0.4984  3.2102
 9430TIP3    H249782   0.127   2.168   6.205 -2.8237 -1.2001  1.3593
 9431TIP3   OH249783   1.887   1.335  10.700 -0.4867  0.2160 -0.3458
 9431TIP3    H149784   1.868   1.343  10.794 -1.0829  1.3448 -0.5473
 9431TIP3    H249785   1.982   1.321  10.697 -0.5430 -0.4191  0.4443
 9432TIP3   OH249786   1.332   2.034  15.757 -0.2071  0.7908 -0.0632
 9432TIP3    H149787   1.345   1.940  15.766  0.2745  0.6031 -2.3074
 9432TIP3    H249788   1.416   2.073  15.784  0.2023  0.4548 -0.8345
 9433TIP3   OH249789   0.286   1.850   1.068 -0.3908 -0.1498 -0.0905
 9433TIP3    H149790   0.242   1.863   1.152  0.8422 -1.9998  0.9078
 9433TIP3    H249791   0.350   1.922   1.063 -1.9607  1.2854 -0.5630
 9434TIP3   OH249792   1.876   2.068  50.427 -0.2584  0.6041  0.0548
 9434TIP3    H149793   1.912   2.108  50.348 -0.6430  0.3671 -0.2467
 9434TIP3    H249794   1.800   2.019  50.397  0.8064 -1.2492  0.2330
 9435TIP3   OH249795   2.686   0.914   0.974 -0.1245  0.2592 -0.3464
 9435TIP3    H149796   2.730   0.847   1.026 -0.8658 -0.3096 -0.4356
 9435TIP3    H249797   2.724   0.996   1.004 -0.6740 -0.0308  1.2713
 9436TIP3   OH249798   2.374   0.606  66.009  0.0477 -0.5564 -0.2074
 9436TIP3    H149799   2.429   0.540  66.052  1.1325 -0.2516 -1.0803
 9436TIP3    H249800   2.380   0.683  66.065 -0.0517 -0.7397  0.0595
 9437TIP3   OH249801   0.762   3.369  63.386  0.2028  0.3765 -0.0466
 9437TIP3    H149802   0.737   3.355  63.294  0.6917 -0.6908 -0.0286
 9437TIP3    H249803   0.681   3.392  63.430 -0.6057 -2.0060 -0.1935
 9438TIP3   OH249804   2.118   2.929  21.591  0.7536  0.3483 -0.0752
 9438TIP3    H149805   2.044   2.954  21.536  1.2109 -0.2399 -0.9827
 9438TIP3    H249806   2.097   2.965  21.677 -0.6967 -0.0108 -0.2501
 9439TIP3   OH249807   3.336   3.250   8.526 -0.3669  0.1834  0.4873
 9439TIP3    H149808   3.287   3.280   8.603  0.3591 -0.3497  1.1698
 9439TIP3    H249809   3.408   3.312   8.518 -0.4213  0.2160  0.2550
 9440TIP3   OH249810   0.570   0.451   3.418  0.0592  0.0773 -0.0448
 9440TIP3    H149811   0.665   0.445   3.423  0.2340  2.3388  0.6402
 9440TIP3    H249812   0.539   0.363   3.438  1.9802 -0.1740  2.3015
 9441TIP3   OH249813   1.984   2.541  61.231 -0.3191 -1.0330 -0.2112
 9441TIP3    H149814   1.951   2.451  61.236 -1.8764 -0.4262  1.0941
 9441TIP3    H249815   1.957   2.571  61.144  0.4254 -1.8934 -0.7549
 9442TIP3   OH249816   1.068   0.247  44.475  0.1867 -0.1657  0.1510
 9442TIP3    H149817   1.001   0.194  44.517 -0.7073  1.0258  0.2906
 9442TIP3    H249818   1.085   0.318  44.537  1.7645 -0.5634  0.2191
 9443TIP3   OH249819   1.251   3.079  50.628  0.0496 -0.1588 -0.4141
 9443TIP3    H149820   1.316   3.084  50.698  1.8035 -1.7380 -1.8313
 9443TIP3    H249821   1.174   3.122  50.664  0.9219 -0.7617  2.4182
 9444TIP3   OH249822   1.304   2.419   2.342 -0.0198  0.0724 -0.4953
 9444TIP3    H149823   1.328   2.466   2.262 -0.4023 -0.4642 -0.9345
 9444TIP3    H249824   1.341   2.472   2.413  0.9515  0.1667 -1.0581
 9445TIP3   OH249825   2.905   1.626  59.212  0.8606  0.0831  0.1650
 9445TIP3    H149826   2.966   1.553  59.202  0.1192 -0.4621 -0.4739
 9445TIP3    H249827   2.925   1.683  59.137  0.7470  0.0257  0.0914
 9446TIP3   OH249828   2.407   0.202  64.550  0.1065  0.3334 -0.2758
 9446TIP3    H149829   2.480   0.189  64.611 -0.3722 -0.2249  0.1967
 9446TIP3    H249830   2.365   0.283  64.580  0.7287  0.8485 -0.7621
 9447TIP3   OH249831   2.761   2.141   8.805 -0.3908  0.3583  0.3917
 9447TIP3    H149832   2.727   2.212   8.859  0.8105  0.5267  0.9631
 9447TIP3    H249833   2.744   2.169   8.715  2.2472  2.5786  0.4701
 9448TIP3   OH249834   3.287   2.850  13.348  0.1669  0.2892 -0.6085
 9448TIP3    H149835   3.275   2.838  13.254  0.6478  1.1511 -0.7898
 9448TIP3    H249836   3.382   2.862  13.359  0.4286 -2.0878  0.2643
 9449TIP3   OH249837   0.344   3.227  18.747 -0.3433 -0.2224 -0.0817
 9449TIP3    H149838   0.415   3.223  18.811 -0.4966 -0.0096  0.1036
 9449TIP3    H249839   0.321   3.135  18.731  0.0699 -0.2980 -0.2547
 9450TIP3   OH249840   2.569   1.381  59.590  0.1968 -0.1004 -0.1193
 9450TIP3    H149841   2.631   1.450  59.566 -2.2413  1.9263 -1.0689
 9450TIP3    H249842   2.559   1.390  59.685 -0.7479  1.5550 -0.3308
 9451TIP3   OH249843   3.316   0.751  10.905 -0.2968  0.3614 -0.5252
 9451TIP3    H149844   3.320   0.707  10.991  1.5735  0.5461 -0.4846
 9451TIP3    H249845   3.223   0.751  10.883 -0.7163 -0.5348  1.0728
 9452TIP3   OH249846   2.265   1.671  55.235  0.0727 -0.6959  0.2401
 9452TIP3    H149847   2.201   1.740  55.217  0.3582 -0.3623  0.4946
 9452TIP3    H249848   2.299   1.691  55.323  2.7120  0.8755 -1.0170
 9453TIP3   OH249849   2.163   2.422  27.592  0.5381  0.0699 -0.3433
 9453TIP3    H149850   2.163   2.326  27.584 -1.8538 -0.0733  0.5344
 9453TIP3    H249851   2.194   2.453  27.507  1.5218 -1.4684 -0.5857
 9454TIP3   OH249852   0.140   3.225   4.941  0.1327  0.4998 -0.2325
 9454TIP3    H149853   0.109   3.234   5.032 -1.6342  0.5743 -0.8002
 9454TIP3    H249854   0.170   3.313   4.917  1.8068  0.2121  0.6475
 9455TIP3   OH249855   2.038   3.427   8.785 -0.3254 -0.3626  0.0490
 9455TIP3    H149856   2.125   3.415   8.747 -1.3074 -0.7286 -2.2403
 9455TIP3    H249857   2.053   3.481   8.863  1.6326  1.9208 -1.7773
 9456TIP3   OH249858   1.872   2.438  56.529 -0.4196  0.2299  0.1131
 9456TIP3    H149859   1.883   2.351  56.492  0.5032  0.0469  0.7860
 9456TIP3    H249860   1.957   2.459  56.568 -0.4353  1.6620 -0.5238
 9457TIP3   OH249861   1.082   2.965  64.754  0.1359 -0.2003 -0.0580
 9457TIP3    H149862   0.989   2.988  64.749  0.1729  0.2146  0.8805
 9457TIP3    H249863   1.115   2.977  64.665 -0.6409 -0.0441 -0.3320
 9458TIP3   OH249864   0.772   3.162   2.799 -0.6410  0.5393 -0.2949
 9458TIP3    H149865   0.685   3.127   2.817 -0.6957  0.5754 -0.4826
 9458TIP3    H249866   0.780   3.239   2.855 -0.4359  0.1016  0.2807
 9459TIP3   OH249867   0.054   2.924   6.886 -0.4442 -0.2600  0.5439
 9459TIP3    H149868   0.123   2.898   6.824 -1.4234 -0.2557 -0.5879
 9459TIP3    H249869   0.051   3.019   6.879 -0.1787 -0.2128  1.0328
 9460TIP3   OH249870   0.465   0.768  59.971 -0.4450  0.0312  0.0461
 9460TIP3    H149871   0.561   0.767  59.974 -0.4233 -0.3828 -0.5718
 9460TIP3    H249872   0.439   0.698  60.032 -0.4134  1.1485  1.3993
 9461TIP3   OH249873   3.157   0.938  52.285  0.4883  0.2501 -0.0345
 9461TIP3    H149874   3.193   1.006  52.227  1.7747 -0.5314 -0.1939
 9461TIP3    H249875   3.090   0.895  52.232 -0.5481  1.5553  0.1648
 9462TIP3   OH249876   1.839   0.636   6.276 -0.8021 -0.1322 -0.0448
 9462TIP3    H149877   1.906   0.601   6.218  1.3799 -0.3357  2.4107
 9462TIP3    H249878   1.829   0.727   6.250 -0.6418 -0.4653 -1.3409
 9463TIP3   OH249879   1.826   2.013  21.964 -0.4666 -0.0700  0.5040
 9463TIP3    H149880   1.867   1.979  22.043  0.6682  2.3198  1.0332
 9463TIP3    H249881   1.889   1.994  21.894  0.5401  1.5398  0.9298
 9464TIP3   OH249882   0.961   0.787   4.734  0.3467 -0.0303 -0.0441
 9464TIP3    H149883   0.888   0.824   4.785  0.3467 -0.5333  0.3236
 9464TIP3    H249884   1.037   0.795   4.792  0.4483 -0.1417 -0.1618
 9465TIP3   OH249885   3.346   2.903  12.031  0.1682  0.1893 -0.3408
 9465TIP3    H149886   3.390   2.837  11.978  1.0464 -0.0941  0.6890
 9465TIP3    H249887   3.413   2.932  12.093 -0.7931  0.5488  0.5658
 9466TIP3   OH249888   3.297   1.688  14.175 -0.1068 -0.1995  0.1551
 9466TIP3    H149889   3.259   1.668  14.089 -0.6381 -1.2832  0.6255
 9466TIP3    H249890   3.391   1.686  14.160 -0.1974  0.8185 -0.6555
 9467TIP3   OH249891   1.078   2.863  49.336  0.2648 -0.4066  0.1700
 9467TIP3    H149892   1.120   2.949  49.335  2.1453 -1.2676 -1.7847
 9467TIP3    H249893   1.093   2.827  49.249  0.8402 -3.3246  1.3560
 9468TIP3   OH249894   0.194   2.547  59.781 -0.7360  0.1827 -0.2875
 9468TIP3    H149895   0.274   2.510  59.745 -1.5640 -0.0046 -2.1025
 9468TIP3    H249896   0.146   2.473  59.817 -0.5165  0.1439 -0.0807
 9469TIP3   OH249897   2.865   2.738  53.640  0.9807  0.2173 -0.5929
 9469TIP3    H149898   2.918   2.690  53.576  1.3229  0.5629 -0.5788
 9469TIP3    H249899   2.899   2.828  53.635  1.1179  0.2117  0.1892
 9470TIP3   OH249900   0.558   1.167  19.967  0.8426 -0.3055 -0.1548
 9470TIP3    H149901   0.559   1.263  19.965  2.6799 -0.2672  0.2231
 9470TIP3    H249902   0.500   1.145  20.040  0.7825  0.5435  0.0659
 9471TIP3   OH249903   0.009   3.029  10.765 -0.3994 -0.0508  0.2978
 9471TIP3    H149904   0.062   3.052  10.842  1.9029 -3.8890  0.1587
 9471TIP3    H249905   0.059   3.063  10.691 -0.0716 -0.3885  0.3547
 9472TIP3   OH249906   0.702   1.168  47.378 -0.7557  0.2863 -0.2174
 9472TIP3    H149907   0.778   1.123  47.340 -0.8418  0.5180 -0.6636
 9472TIP3    H249908   0.628   1.111  47.358 -0.6433 -0.1790  0.6281
 9473TIP3   OH249909   1.971   0.853  56.075  0.0229 -0.1907  0.0777
 9473TIP3    H149910   2.029   0.783  56.046  0.7972 -0.0227  1.1460
 9473TIP3    H249911   2.002   0.932  56.030  0.9271 -0.0160  0.9850
 9474TIP3   OH249912   3.338   2.627  53.056 -0.1003 -0.2915  0.1749
 9474TIP3    H149913   3.248   2.651  53.031  0.5425  1.3148 -0.7176
 9474TIP3    H249914   3.340   2.532  53.049 -2.1838 -0.5316  1.7988
 9475TIP3   OH249915   3.186   2.261  13.479  0.1265  0.3064 -0.2003
 9475TIP3    H149916   3.235   2.320  13.422 -0.7881  0.8994 -0.4037
 9475TIP3    H249917   3.099   2.255  13.438 -0.0147 -0.6287  0.2013
 9476TIP3   OH249918   2.478   2.817  28.297 -0.3280 -0.6193 -0.6547
 9476TIP3    H149919   2.483   2.735  28.247 -0.6184 -0.5350 -0.8232
 9476TIP3    H249920   2.457   2.883  28.231 -2.0259 -0.6991 -0.2325
 9477TIP3   OH249921   0.759   2.280  64.981 -0.2700 -0.2982 -0.2358
 9477TIP3    H149922   0.700   2.277  64.906 -1.4149  2.0696  0.4622
 9477TIP3    H249923   0.721   2.219  65.044 -2.1823  1.2977  0.2647
 9478TIP3   OH249924   0.682   0.727  12.631  0.0301 -0.0788  0.5178
 9478TIP3    H149925   0.701   0.740  12.538  1.3681  0.9476  0.9117
 9478TIP3    H249926   0.747   0.780  12.677  0.9978 -2.4843  2.1126
 9479TIP3   OH249927   1.592   2.789  46.535  0.5295  0.4735  0.0396
 9479TIP3    H149928   1.660   2.805  46.601  0.1094  3.7322 -0.1533
 9479TIP3    H249929   1.629   2.826  46.454 -1.3713  2.3718 -0.0630
 9480TIP3   OH249930   0.207   0.764  21.051  0.0961 -0.4485  0.2761
 9480TIP3    H149931   0.183   0.856  21.059  0.6627 -0.3078  0.3560
 9480TIP3    H249932   0.230   0.752  20.959 -2.1896 -1.0574 -0.2923
 9481TIP3   OH249933   2.317   2.253  52.963 -0.1313 -0.2457 -0.0429
 9481TIP3    H149934   2.341   2.305  53.040 -0.5713 -0.1987  0.0642
 9481TIP3    H249935   2.388   2.270  52.900 -0.0047  0.0762  0.1825
 9482TIP3   OH249936   1.229   0.202  34.941 -0.4173 -0.0441 -0.6395
 9482TIP3    H149937   1.286   0.167  35.010  0.0820  2.2081  0.2083
 9482TIP3    H249938   1.272   0.284  34.915 -1.7305  0.2174 -2.1318
 9483TIP3   OH249939   3.188   0.222  63.155  0.4669  0.0272 -0.7561
 9483TIP3    H149940   3.102   0.180  63.155  0.2698  0.4242 -0.4500
 9483TIP3    H249941   3.219   0.212  63.065 -1.1934  2.4833 -1.7191
 9484TIP3   OH249942   1.710   2.783  13.905  0.6474 -0.0468  0.0028
 9484TIP3    H149943   1.621   2.776  13.938  0.5113  0.7167 -0.1926
 9484TIP3    H249944   1.736   2.692  13.886  0.4281 -0.4132  1.3746
 9485TIP3   OH249945   0.723   2.085  17.806  0.5066  0.0602  0.0352
 9485TIP3    H149946   0.640   2.039  17.820 -0.1391  1.1991  0.1602
 9485TIP3    H249947   0.776   2.063  17.882 -0.3624  0.7065  0.8556
 9486TIP3   OH249948   3.229   1.934  49.306 -0.6253  0.0515  0.6716
 9486TIP3    H149949   3.304   1.889  49.266 -1.6926  0.5866 -2.2380
 9486TIP3    H249950   3.266   1.985  49.378  1.6276 -0.5192 -0.0178
 9487TIP3   OH249951   1.774   1.952  13.992  0.1244  0.3904  0.1982
 9487TIP3    H149952   1.769   2.046  14.008  2.5547  0.3254  1.9743
 9487TIP3    H249953   1.691   1.917  14.024 -0.0659  1.7283  1.2344
 9488TIP3   OH249954   2.214   0.695   0.435 -0.4219  0.2047  0.3977
 9488TIP3    H149955   2.307   0.675   0.449 -0.5673 -0.5813  0.2940
 9488TIP3    H249956   2.213   0.746   0.354 -0.2367 -1.5271 -0.7779
 9489TIP3   OH249957   1.287   0.109  67.120 -0.1725  0.2905  0.0912
 9489TIP3    H149958   1.345   0.041  67.085 -1.0480 -0.0033 -0.8331
 9489TIP3    H249959   1.266   0.164  67.044 -0.0907  1.1493  0.6776
 9490TIP3   OH249960   2.445   2.599  51.625  0.4480 -0.7916 -0.6151
 9490TIP3    H149961   2.402   2.546  51.557  0.0585  1.1560 -1.9507
 9490TIP3    H249962   2.433   2.689  51.597  1.3617  0.0377  1.4472
 9491TIP3   OH249963   0.243   0.693  20.122 -0.1560  0.1392  0.4483
 9491TIP3    H149964   0.311   0.747  20.082 -0.2832  1.1257  1.5169
 9491TIP3    H249965   0.239   0.615  20.067  2.1823 -0.1816  0.6573
 9492TIP3   OH249966   2.908   2.516  14.389  0.1872  0.0453  0.0767
 9492TIP3    H149967   2.968   2.526  14.315  2.0909  0.4308  1.5686
 9492TIP3    H249968   2.933   2.587  14.449 -2.2697  0.6382  0.4955
 9493TIP3   OH249969   2.957   2.758  13.549  0.2530  0.0562 -0.1697
 9493TIP3    H149970   2.930   2.715  13.630  0.9501  0.8814  0.5336
 9493TIP3    H249971   3.023   2.699  13.511 -0.5423 -0.6443 -0.4806
 9494TIP3   OH249972   2.602   3.154  60.403  0.0381  0.0492 -0.1413
 9494TIP3    H149973   2.622   3.228  60.346 -0.8579  1.2363  1.0208
 9494TIP3    H249974   2.649   3.080  60.365  1.5940  1.3880 -0.8970
 9495TIP3   OH249975   2.214   1.683  19.380 -0.0907 -0.5598 -0.0600
 9495TIP3    H149976   2.249   1.769  19.403 -1.5122 -0.4438  1.9334
 9495TIP3    H249977   2.290   1.625  19.378  0.6317  0.3266  0.7327
 9496TIP3   OH249978   0.327   1.743   2.097 -0.1724  0.0363 -0.0752
 9496TIP3    H149979   0.345   1.763   2.189  1.5362  0.2693 -0.4294
 9496TIP3    H249980   0.271   1.815   2.068  2.2140  2.0101 -0.1215
 9497TIP3   OH249981   1.751   1.491   8.349  0.4012 -0.2248  0.0256
 9497TIP3    H149982   1.842   1.520   8.356  0.4472 -0.2359 -0.4907
 9497TIP3    H249983   1.710   1.521   8.430  1.0375 -0.8525  0.5930
 9498TIP3   OH249984   2.299   2.982  42.664 -0.3567  0.0697  0.2416
 9498TIP3    H149985   2.280   3.040  42.737  1.8741  0.4897  0.5625
 9498TIP3    H249986   2.285   3.037  42.586  1.4821  1.0345  0.5352
 9499TIP3   OH249987   3.375   2.150  51.662 -0.3042  0.1823 -0.5435
 9499TIP3    H149988   3.392   2.066  51.620  0.6333  0.3077 -0.4209
 9499TIP3    H249989   3.457   2.174  51.704 -0.2158  1.6791 -1.4865
 9500TIP3   OH249990   0.272   1.920  56.460 -0.6311  0.0326 -0.5960
 9500TIP3    H149991   0.235   1.933  56.547  1.3022 -2.9373  0.8446
 9500TIP3    H249992   0.211   1.859  56.417 -0.8517  0.3778 -0.7706
 9501TIP3   OH249993   2.686   0.162  48.254  0.0978  0.0182  0.2279
 9501TIP3    H149994   2.623   0.161  48.182  0.1397 -1.2884  0.1842
 9501TIP3    H249995   2.747   0.091  48.234  0.0153 -0.4875  1.6267
 9502TIP3   OH249996   0.064   0.607   7.084 -0.1574  0.0446  0.1875
 9502TIP3    H149997   0.036   0.525   7.126 -0.4473 -0.2254 -0.5202
 9502TIP3    H249998   0.063   0.588   6.991  0.5393  0.6273  0.0543
 9503TIP3   OH249999   1.574   2.388  46.088  0.0578 -0.5455 -0.3516
 9503TIP3    H150000   1.511   2.456  46.065  0.3329  0.0183  0.5191
 9503TIP3    H250001   1.523   2.323  46.135  0.2854  0.4630  1.3964
 9504TIP3   OH250002   0.388   3.141  56.090  0.0616  0.5204 -0.6679
 9504TIP3    H150003   0.350   3.130  56.003 -1.0110 -0.7161 -0.0809
 9504TIP3    H250004   0.400   3.052  56.122 -0.2022  0.9634  0.7151
 9505TIP3   OH250005   0.570   0.059  22.127 -0.4748 -0.3317 -0.2736
 9505TIP3    H150006   0.601  -0.028  22.155 -0.2967  0.4780  2.3297
 9505TIP3    H250007   0.559   0.107  22.209 -2.5552  1.4666 -1.5101
 9506TIP3   OH250008   0.130   0.567  59.845  0.4330 -0.4848  0.4392
 9506TIP3    H150009   0.037   0.558  59.824  0.8174 -2.2214 -0.7199
 9506TIP3    H250010   0.160   0.639  59.789 -0.0601 -0.4085  0.2661
 9507TIP3   OH250011   0.116   3.235  52.789  0.1451 -0.7333  0.3986
 9507TIP3    H150012   0.155   3.247  52.876 -3.0888  0.2260  1.8760
 9507TIP3    H250013   0.071   3.150  52.795 -0.1800 -0.6180 -0.3045
 9508TIP3   OH250014   3.115   0.795   4.795 -0.6269 -0.3337  0.4190
 9508TIP3    H150015   3.180   0.727   4.815  0.3818  0.8354  1.2439
 9508TIP3    H250016   3.044   0.779   4.858  0.1846  0.1322  1.4821
 9509TIP3   OH250017   1.756   2.228  17.967  0.1369 -0.1647 -0.2378
 9509TIP3    H150018   1.732   2.150  17.917 -0.3140 -0.4255  0.3841
 9509TIP3    H250019   1.749   2.201  18.058 -0.9959  0.8975  0.0008
 9510TIP3   OH250020   1.958   2.387  13.376 -0.4784 -0.2574 -0.2916
 9510TIP3    H150021   2.023   2.427  13.319  1.3838  0.6967  2.3258
 9510TIP3    H250022   1.876   2.430  13.353 -0.1653 -1.0714 -3.2783
 9511TIP3   OH250023   2.176   2.284  56.829 -0.1875 -0.3580 -0.8196
 9511TIP3    H150024   2.207   2.259  56.915 -2.0466 -0.2466 -0.0649
 9511TIP3    H250025   2.225   2.229  56.768  0.2962 -1.2863  0.3809
 9512TIP3   OH250026   0.024   2.748  46.482  0.2842 -0.4380  0.2234
 9512TIP3    H150027   0.081   2.673  46.469 -0.2018 -0.4771 -2.0925
 9512TIP3    H250028  -0.060   2.710  46.510  0.6210 -0.5855  1.0386
 9513TIP3   OH250029   1.184   2.211  52.882 -0.8161  0.1305 -0.1743
 9513TIP3    H150030   1.277   2.192  52.892 -0.4640  1.5669 -0.5878
 9513TIP3    H250031   1.143   2.170  52.959 -0.2579 -2.8780 -1.3142
 9514TIP3   OH250032   1.451   0.877  14.081 -0.0186  0.0789 -0.2212
 9514TIP3    H150033   1.471   0.965  14.046  0.9806 -1.1241 -2.9902
 9514TIP3    H250034   1.535   0.831  14.079 -0.6687 -1.1832  0.4363
 9515TIP3   OH250035   2.705   0.255   0.715 -0.6701  0.3772  0.0797
 9515TIP3    H150036   2.768   0.297   0.773 -0.2003  0.7556 -0.6859
 9515TIP3    H250037   2.700   0.313   0.639 -0.9689 -0.3122 -0.4347
 9516TIP3   OH250038   2.762   0.396   7.244  0.0784  0.4555 -0.0689
 9516TIP3    H150039   2.692   0.451   7.207 -0.2372  0.7765  0.9883
 9516TIP3    H250040   2.768   0.322   7.184 -2.0691 -0.2469  0.4998
 9517TIP3   OH250041   1.426   0.713  58.192  0.2127 -0.2402  0.4313
 9517TIP3    H150042   1.369   0.770  58.141  0.6776  0.6507  0.8820
 9517TIP3    H250043   1.419   0.628  58.150  0.9105  0.5489 -1.3975
 9518TIP3   OH250044   2.384   3.336  53.620  0.2053  0.0266  0.4002
 9518TIP3    H150045   2.409   3.346  53.712 -2.8826  0.6845  1.2995
 9518TIP3    H250046   2.400   3.244  53.600  1.2693 -0.0411  1.4739
 9519TIP3   OH250047   3.298   1.839  53.128  0.3983  0.0592 -0.1778
 9519TIP3    H150048   3.306   1.744  53.131  1.3171  0.1321 -0.2080
 9519TIP3    H250049   3.227   1.855  53.066  1.2307 -0.5765 -1.3272
 9520TIP3   OH250050   0.408   1.530  57.716  0.6200 -0.0130 -0.4649
 9520TIP3    H150051   0.495   1.569  57.713 -0.1062  1.7357  0.0903
 9520TIP3    H250052   0.361   1.579  57.783 -0.8184 -0.8792 -0.7803
 9521TIP3   OH250053   1.249   0.675  46.523 -0.8224  0.0670  0.5460
 9521TIP3    H150054   1.236   0.606  46.588  0.5075  0.2281  1.0148
 9521TIP3    H250055   1.344   0.690  46.522 -0.9898  1.2343 -0.2179
 9522TIP3   OH250056   2.985   1.016  51.952  0.0778 -0.1997  0.3357
 9522TIP3    H150057   3.071   1.033  51.991 -0.3508  0.4693  1.0335
 9522TIP3    H250058   2.969   1.091  51.895 -0.7318  0.5213  1.4701
 9523TIP3   OH250059   0.440   2.277   1.928  1.0924  0.7039 -0.1276
 9523TIP3    H150060   0.470   2.191   1.899 -0.2408  1.1933 -3.3707
 9523TIP3    H250061   0.362   2.260   1.981  0.6407 -0.0988 -1.0359
 9524TIP3   OH250062   2.359   1.541  49.666 -0.2774 -0.4934 -0.1527
 9524TIP3    H150063   2.302   1.485  49.613 -1.4068  0.9388 -0.5144
 9524TIP3    H250064   2.447   1.520  49.635 -0.9361  1.6236 -4.1227
 9525TIP3   OH250065   3.085   0.026  59.121  0.1374  0.0750 -0.1614
 9525TIP3    H150066   3.032   0.059  59.049 -0.5451  1.0891  0.7927
 9525TIP3    H250067   3.048   0.065  59.200 -0.4926 -2.6742  1.0177
 9526TIP3   OH250068   2.828   1.206  19.895  0.4565  0.4295 -0.1348
 9526TIP3    H150069   2.777   1.273  19.941  1.2974  0.7507  0.3584
 9526TIP3    H250070   2.777   1.126  19.903 -0.2841  0.8889 -0.2212
 9527TIP3   OH250071   1.534   2.411   7.838 -0.4022 -0.4542  0.5481
 9527TIP3    H150072   1.441   2.393   7.827 -0.0715 -2.4515  0.6313
 9527TIP3    H250073   1.570   2.330   7.874  1.6006 -0.2337 -0.7842
 9528TIP3   OH250074   0.575   0.578   7.218 -0.1292  0.0192  0.5024
 9528TIP3    H150075   0.583   0.661   7.172  1.8542 -1.8536 -2.9312
 9528TIP3    H250076   0.513   0.527   7.166 -1.8978 -0.4864  2.9557
 9529TIP3   OH250077   1.643   2.993  20.968 -0.0295 -0.4404 -0.5714
 9529TIP3    H150078   1.622   2.907  21.004  0.7349 -0.8496 -1.0836
 9529TIP3    H250079   1.673   2.975  20.879 -1.6328  0.5252 -1.3612
 9530TIP3   OH250080   1.548   0.954  66.117 -0.0585 -0.7323 -0.9081
 9530TIP3    H150081   1.457   0.970  66.141  0.7721  0.0659  2.1542
 9530TIP3    H250082   1.547   0.869  66.074 -1.8858 -2.4626  2.1985
 9531TIP3   OH250083   3.160   1.573  14.886  0.0280 -0.1075 -0.2961
 9531TIP3    H150084   3.161   1.485  14.847 -1.5868 -1.1387  1.7745
 9531TIP3    H250085   3.221   1.567  14.959  1.0504  1.0070 -1.0133
 9532TIP3   OH250086   1.556   3.017  53.469  1.4452 -0.4549 -0.3763
 9532TIP3    H150087   1.649   3.029  53.451  1.5164 -0.5401 -0.0727
 9532TIP3    H250088   1.533   2.934  53.429  1.2583  0.0529 -1.3451
 9533TIP3   OH250089   0.949   2.183  43.327  0.0591 -0.4938  0.2896
 9533TIP3    H150090   0.960   2.177  43.233 -0.0587  1.5215  0.1136
 9533TIP3    H250091   0.981   2.099  43.360  0.8563 -0.9271 -1.4620
 9534TIP3   OH250092   3.046   0.664  54.661  0.1643 -0.2354 -0.1411
 9534TIP3    H150093   2.999   0.589  54.624  0.3099  0.1663 -1.2008
 9534TIP3    H250094   3.131   0.629  54.688  0.7676 -0.2239 -1.8960
 9535TIP3   OH250095   1.666   2.770  60.061  0.3780  0.2174 -0.1883
 9535TIP3    H150096   1.648   2.849  60.112  1.3448 -0.7364  1.7636
 9535TIP3    H250097   1.738   2.795  60.003 -0.1853  1.1204 -0.5145
 9536TIP3   OH250098   1.839   3.434  64.160 -0.4600  0.1133 -0.1061
 9536TIP3    H150099   1.781   3.496  64.203 -0.0857  0.7005 -0.4336
 9536TIP3    H250100   1.869   3.479  64.081  1.2357  0.2145  0.5629
 9537TIP3   OH250101   1.690   1.527  46.013 -0.0941  0.2945  0.4941
 9537TIP3    H150102   1.766   1.485  46.052 -0.1160  0.3001  0.5456
 9537TIP3    H250103   1.615   1.479  46.048 -0.0851 -0.1474 -0.0854
 9538TIP3   OH250104   0.226   0.693  11.125  0.0869  0.8171 -0.2957
 9538TIP3    H150105   0.181   0.614  11.154  1.9114  0.4290  1.7719
 9538TIP3    H250106   0.179   0.765  11.167 -0.1588  0.6425 -0.2720
 9539TIP3   OH250107   2.488   2.346  60.301  0.2113  0.3472 -0.5199
 9539TIP3    H150108   2.436   2.425  60.285  0.0654  0.5590  0.9046
 9539TIP3    H250109   2.571   2.364  60.257 -0.1022  0.9456 -0.9041
 9540TIP3   OH250110   0.426   0.281   5.492 -0.3430  0.3317  0.0142
 9540TIP3    H150111   0.511   0.285   5.448 -0.3701 -1.5236 -0.2887
 9540TIP3    H250112   0.438   0.332   5.572  0.4059  1.8307 -1.0090
 9541TIP3   OH250113   0.335   0.456  67.040 -0.1039  0.0813  0.0180
 9541TIP3    H150114   0.316   0.388  67.104  0.8034 -0.4943 -0.3087
 9541TIP3    H250115   0.379   0.525  67.091  1.8810 -0.9626 -0.1718
 9542TIP3   OH250116   2.502   0.538   0.828 -0.1045  0.8910 -0.3189
 9542TIP3    H150117   2.500   0.443   0.833 -3.5377  0.9087  1.4668
 9542TIP3    H250118   2.566   0.564   0.895  0.7229 -0.1209 -0.6927
 9543TIP3   OH250119   2.327   0.242  57.814 -0.7265 -0.1896 -0.8418
 9543TIP3    H150120   2.316   0.180  57.742  1.1467  1.1932 -2.4654
 9543TIP3    H250121   2.360   0.322  57.771  0.0073  0.8490  1.4934
 9544TIP3   OH250122   0.494   0.156  30.494  0.6377  0.6546 -0.2312
 9544TIP3    H150123   0.448   0.239  30.482  1.1981  1.0067  0.0342
 9544TIP3    H250124   0.440   0.092  30.448 -0.9680  0.7687  1.3659
 9545TIP3   OH250125   1.262   2.137  18.412 -0.0131  0.1128  0.3581
 9545TIP3    H150126   1.224   2.057  18.375 -0.5329 -0.0384  1.1899
 9545TIP3    H250127   1.294   2.186  18.336 -1.4285  0.0055 -0.3391
 9546TIP3   OH250128   1.045   2.740   6.922  0.4429 -0.2619 -0.6271
 9546TIP3    H150129   0.995   2.713   6.845 -1.6155  0.7304  0.2936
 9546TIP3    H250130   1.072   2.830   6.902  1.6573 -0.6866 -0.9890
 9547TIP3   OH250131   3.116   1.107  21.382 -0.5130 -0.7099 -0.3998
 9547TIP3    H150132   3.141   1.199  21.383 -1.0777 -0.5595 -0.3827
 9547TIP3    H250133   3.194   1.061  21.415 -0.5353 -0.1703  0.4177
 9548TIP3   OH250134   2.716   2.421   6.652  0.1908 -0.2973  0.1129
 9548TIP3    H150135   2.771   2.498   6.637  0.3973 -0.6065 -0.7728
 9548TIP3    H250136   2.713   2.377   6.567 -0.1796 -1.1062  0.5352
 9549TIP3   OH250137   1.446   2.961  18.510  0.5021 -0.4503  0.4809
 9549TIP3    H150138   1.360   2.987  18.543  0.1233 -0.6487 -0.3063
 9549TIP3    H250139   1.429   2.882  18.458  1.2170 -0.7039  0.6179
 9550TIP3   OH250140   2.537   2.416  65.994  0.0139 -0.1005  0.3217
 9550TIP3    H150141   2.449   2.380  65.985 -0.3891  0.9101  0.1609
 9550TIP3    H250142   2.579   2.360  66.060 -1.2196  0.2773  1.4707
 9551TIP3   OH250143   2.338   2.768  46.084 -0.4027  0.5003  0.2148
 9551TIP3    H150144   2.412   2.774  46.023 -0.9642  0.2029 -0.5113
 9551TIP3    H250145   2.377   2.739  46.166  0.3267  0.6127 -0.0870
 9552TIP3   OH250146   2.766   2.751  56.930 -0.0098 -0.2386  0.3047
 9552TIP3    H150147   2.828   2.816  56.895 -0.2674  1.0476  2.0842
 9552TIP3    H250148   2.821   2.679  56.961  0.6003  0.6627  1.3989
 9553TIP3   OH250149   0.582   0.881  46.803  0.4078 -0.2402 -0.1765
 9553TIP3    H150150   0.588   0.912  46.713  0.2854 -0.6306 -0.3170
 9553TIP3    H250151   0.502   0.830  46.806  0.9212 -1.0514 -0.0966
 9554TIP3   OH250152   1.217   1.271   7.512 -0.1539 -0.2088  0.5597
 9554TIP3    H150153   1.166   1.258   7.591 -1.0117 -0.1043  0.0358
 9554TIP3    H250154   1.159   1.320   7.453  1.1458  1.4779  0.5849
 9555TIP3   OH250155   2.012   3.114  21.783 -0.3881 -0.5889 -0.0438
 9555TIP3    H150156   1.945   3.096  21.717  0.6843 -1.2261 -1.0230
 9555TIP3    H250157   1.965   3.150  21.858 -1.6275  0.4346 -1.2654
 9556TIP3   OH250158   2.855   1.442   6.388  0.5509 -0.0516 -0.7030
 9556TIP3    H150159   2.778   1.397   6.354  1.4564 -1.7582 -0.6325
 9556TIP3    H250160   2.860   1.523   6.337 -1.5594  0.3623 -0.3298
 9557TIP3   OH250161   1.238   0.244  57.319 -0.1323 -0.4650 -0.6823
 9557TIP3    H150162   1.159   0.289  57.350 -1.1504 -1.7994 -1.2016
 9557TIP3    H250163   1.307   0.310  57.324 -1.0831  0.4902  0.6469
 9558TIP3   OH250164   0.084   3.433  18.773 -0.1274 -0.1171 -0.9057
 9558TIP3    H150165   0.094   3.358  18.715 -2.0649 -1.9892  0.9879
 9558TIP3    H250166   0.092   3.396  18.861 -1.7858  1.7437  0.1109
 9559TIP3   OH250167   3.127   1.492  46.097  0.5543 -0.3749  0.1063
 9559TIP3    H150168   3.161   1.420  46.043 -1.2094 -1.4114  0.2943
 9559TIP3    H250169   3.116   1.453  46.184  1.1480  0.6184  0.6449
 9560TIP3   OH250170   0.430   1.407  10.487 -0.3677 -0.3315  0.6348
 9560TIP3    H150171   0.451   1.314  10.486 -0.5026 -0.4135  2.5644
 9560TIP3    H250172   0.338   1.410  10.514 -0.2135  0.3819  1.0902
 9561TIP3   OH250173   2.099   0.149  10.331 -0.4317  0.0972 -0.2285
 9561TIP3    H150174   2.154   0.104  10.267  0.3577 -1.5768  1.5185
 9561TIP3    H250175   2.143   0.233  10.345  0.2968 -0.1960 -0.6821
 9562TIP3   OH250176   2.234   1.849  13.592  0.0419  0.3876 -0.3524
 9562TIP3    H150177   2.276   1.818  13.512  0.8766 -0.1694  0.2779
 9562TIP3    H250178   2.182   1.775  13.623  1.9706 -0.4519  1.1065
 9563TIP3   OH250179   0.091   3.402   1.494  0.3492 -0.4324 -0.5221
 9563TIP3    H150180   0.031   3.468   1.528  0.2855 -0.2268 -1.0241
 9563TIP3    H250181   0.033   3.333   1.459  0.3775  0.0372 -1.5480
 9564TIP3   OH250182   3.436   1.883   2.167  0.5430 -0.0240 -0.1077
 9564TIP3    H150183   3.411   1.936   2.243  0.8962 -1.1344  0.8161
 9564TIP3    H250184   3.514   1.927   2.132 -0.4738  1.3373 -0.7563
 9565TIP3   OH250185   1.781   3.109   8.173  0.5432  0.0303 -0.6113
 9565TIP3    H150186   1.724   3.032   8.180  0.0258  0.2869 -1.7593
 9565TIP3    H250187   1.843   3.086   8.103  0.8333  0.3916 -0.4747
 9566TIP3   OH250188   3.080   3.177  62.915  0.0278  0.5807  0.2923
 9566TIP3    H150189   2.995   3.144  62.945 -0.2275  1.2363  0.3080
 9566TIP3    H250190   3.070   3.184  62.820  0.2263  0.2032  0.2415
 9567TIP3   OH250191   2.910   2.825  55.639 -0.3193  0.1900  0.0423
 9567TIP3    H150192   2.829   2.824  55.589 -0.0728 -1.3849 -0.3691
 9567TIP3    H250193   2.927   2.918  55.656 -2.9761  0.5070  1.4678
 9568TIP3   OH250194   0.216   3.318   2.293 -0.4404  0.0495 -0.9413
 9568TIP3    H150195   0.171   3.310   2.376 -0.8876 -1.8485 -1.3326
 9568TIP3    H250196   0.298   3.270   2.305  1.1558  2.6070 -0.5651
 9569TIP3   OH250197   1.495   1.045  47.152 -0.2941  0.0341  0.3135
 9569TIP3    H150198   1.556   1.010  47.088 -0.5539  0.5977 -0.2501
 9569TIP3    H250199   1.410   1.042  47.109 -1.0453 -2.5340  1.7620
 9570TIP3   OH250200   2.983   2.694   7.728 -0.6354  0.3588 -0.6063
 9570TIP3    H150201   2.957   2.652   7.646 -0.7543 -1.6299  0.3886
 9570TIP3    H250202   3.055   2.640   7.761 -2.0708 -0.2827  1.6956
 9571TIP3   OH250203   0.323   2.189  57.888  0.4605 -0.5180 -0.1994
 9571TIP3    H150204   0.355   2.115  57.939  1.7556  0.8527  1.1036
 9571TIP3    H250205   0.324   2.262  57.950  3.0226  1.4752 -2.3328
 9572TIP3   OH250206   2.927   3.016  18.258 -0.0546 -0.2107 -0.0612
 9572TIP3    H150207   3.017   2.992  18.281  0.1657  1.5023  1.0393
 9572TIP3    H250208   2.873   2.950  18.302  0.6418 -0.8963 -0.2168
 9573TIP3   OH250209   2.299   2.990   8.090 -0.4344 -0.2634  0.2910
 9573TIP3    H150210   2.353   2.912   8.103  1.1345  0.4401 -1.4846
 9573TIP3    H250211   2.332   3.028   8.008 -2.0063  1.5678  0.4466
 9574TIP3   OH250212   1.713   0.188   9.902  0.8355 -0.1789 -0.1248
 9574TIP3    H150213   1.698   0.189   9.808  0.8016 -0.9935 -0.1300
 9574TIP3    H250214   1.630   0.159   9.940  0.3477  1.6036  0.2661
 9575TIP3   OH250215   2.632   2.653   7.699  0.0859 -0.6889  0.0597
 9575TIP3    H150216   2.613   2.561   7.717  2.4867 -1.1160  0.8490
 9575TIP3    H250217   2.552   2.687   7.659 -0.2535 -3.5798 -2.0282
 9576TIP3   OH250218   1.098   0.082  12.767 -0.3963  0.1141 -0.0206
 9576TIP3    H150219   1.049   0.008  12.731  1.0601 -0.9862  0.1524
 9576TIP3    H250220   1.056   0.100  12.851 -2.0658  0.8776 -0.9673
 9577TIP3   OH250221   1.499   0.157  48.319 -0.3068 -0.3590  0.2101
 9577TIP3    H150222   1.525   0.072  48.354 -1.4433 -1.0635 -0.5781
 9577TIP3    H250223   1.485   0.212  48.396  1.1774 -0.6324  0.7119
 9578TIP3   OH250224   0.317   1.660  18.830  0.3729  0.6085  0.0659
 9578TIP3    H150225   0.252   1.612  18.778  1.0584  0.0640 -0.3086
 9578TIP3    H250226   0.356   1.593  18.886  1.2952  0.7306 -0.4158
 9579TIP3   OH250227   2.893   0.149  12.727 -0.2468 -0.2151 -0.1460
 9579TIP3    H150228   2.806   0.139  12.767 -1.1198 -2.1974 -2.3062
 9579TIP3    H250229   2.879   0.129  12.634  2.4441 -0.1111 -0.6530
 9580TIP3   OH250230   3.309   0.211  14.493 -0.6988  0.1666  0.0687
 9580TIP3    H150231   3.240   0.182  14.553 -0.8671  0.5649  0.0709
 9580TIP3    H250232   3.360   0.274  14.545 -0.7111  0.3437 -0.1336
 9581TIP3   OH250233   0.041   1.137   5.858 -0.2096 -0.1648 -0.4610
 9581TIP3    H150234   0.102   1.063   5.850 -0.7366 -0.4670 -1.9683
 9581TIP3    H250235  -0.043   1.102   5.831 -0.8881  0.5032  0.7043
 9582TIP3   OH250236   1.449   1.898  36.963 -0.0465 -0.4495  0.7386
 9582TIP3    H150237   1.452   1.993  36.952 -0.0965 -0.6037 -0.8887
 9582TIP3    H250238   1.517   1.878  37.027  1.4058  0.5018 -0.4467
 9583TIP3   OH250239   2.862   0.985  22.050 -0.5330  0.1668  0.2556
 9583TIP3    H150240   2.779   0.945  22.077  0.1660 -0.8300  0.9921
 9583TIP3    H250241   2.854   0.995  21.955  0.0163 -3.6673 -0.3321
 9584TIP3   OH250242   1.297   1.257   4.611 -0.2184 -0.8214  0.4796
 9584TIP3    H150243   1.241   1.333   4.625 -0.3163 -0.6578 -0.7253
 9584TIP3    H250244   1.325   1.264   4.520  1.3911 -1.1542  0.9088
 9585TIP3   OH250245   0.795   0.383  19.718 -0.5725 -0.0563 -0.5890
 9585TIP3    H150246   0.830   0.304  19.676 -1.8818 -0.9123 -0.1367
 9585TIP3    H250247   0.741   0.424  19.652  1.7993  1.7366 -1.5796
 9586TIP3   OH250248   0.906   2.930  10.527 -0.6682  0.3516  0.1799
 9586TIP3    H150249   0.970   2.977  10.581 -0.9503  0.9335  0.0239
 9586TIP3    H250250   0.826   2.982  10.534 -1.0103 -0.1497  0.0516
 9587TIP3   OH250251   3.032   0.852   3.245 -0.4822  0.1094 -0.0212
 9587TIP3    H150252   3.103   0.842   3.308 -2.8872 -1.3604  2.6970
 9587TIP3    H250253   3.056   0.795   3.171  1.0406 -0.4985  0.9117
 9588TIP3   OH250254   1.068   3.391  51.608  0.1040  1.0560 -0.0422
 9588TIP3    H150255   1.060   3.483  51.585 -0.0309  0.4861 -2.4653
 9588TIP3    H250256   1.161   3.379  51.627  0.6052  1.2184 -2.1591
 9589TIP3   OH250257   3.188   0.097  64.739 -0.2643 -0.3245 -0.9790
 9589TIP3    H150258   3.259   0.159  64.748 -0.9179  0.1052  2.4776
 9589TIP3    H250259   3.231   0.012  64.729  0.7664 -0.0302  0.7103
 9590TIP3   OH250260   1.941   1.501  47.974 -0.4217  0.2488 -0.3064
 9590TIP3    H150261   1.921   1.543  47.891 -2.8376 -0.7824 -0.3278
 9590TIP3    H250262   1.933   1.407  47.957  0.2920 -0.0387  0.8088
 9591TIP3   OH250263   1.744   1.535  57.738 -0.0873  0.4525  0.2449
 9591TIP3    H150264   1.802   1.460  57.747 -1.9449 -1.1787 -0.7983
 9591TIP3    H250265   1.784   1.589  57.670  1.5187  0.7365  1.3392
 9592TIP3   OH250266   3.203   3.074  20.829 -0.0472  0.7197 -0.3006
 9592TIP3    H150267   3.241   2.994  20.865 -3.0953 -0.6251  0.2877
 9592TIP3    H250268   3.222   3.141  20.895 -2.7677 -1.0126  2.5527
 9593TIP3   OH250269   1.750   1.118   8.696 -0.4446 -0.6188  0.2490
 9593TIP3    H150270   1.808   1.169   8.640  0.5382 -1.7145  0.2179
 9593TIP3    H250271   1.692   1.071   8.636  1.2760 -2.5911  0.0047
 9594TIP3   OH250272   2.446   1.384   3.372 -0.3568  0.3369 -0.2398
 9594TIP3    H150273   2.526   1.434   3.358 -0.3099  0.7542  1.2784
 9594TIP3    H250274   2.470   1.293   3.355 -0.4837  0.7809 -3.1878
 9595TIP3   OH250275   3.353   0.867  14.210  0.2824  0.3229  0.1771
 9595TIP3    H150276   3.278   0.808  14.199  1.3634 -1.2102  0.6443
 9595TIP3    H250277   3.429   0.811  14.201  1.4090  1.8881 -0.4872
 9596TIP3   OH250278   0.165   2.048   8.056 -0.0535  0.3934  0.0572
 9596TIP3    H150279   0.172   2.134   8.014  0.1557  1.1786  1.6130
 9596TIP3    H250280   0.073   2.041   8.080 -0.6540 -1.0057 -2.3607
 9597TIP3   OH250281   2.409   2.218  53.773  0.0576  0.2288  0.0034
 9597TIP3    H150282   2.372   2.135  53.744 -1.2715  0.4691  0.9351
 9597TIP3    H250283   2.445   2.200  53.860  0.5775  0.4238 -0.1644
 9598TIP3   OH250284   1.778   0.604  14.358  0.6361 -0.0725  0.1750
 9598TIP3    H150285   1.696   0.565  14.387  1.4408 -2.6965 -0.7917
 9598TIP3    H250286   1.753   0.692  14.328 -1.5896 -0.3806  0.9387
 9599TIP3   OH250287   2.103   0.009   1.897 -0.4561  0.7325  0.4397
 9599TIP3    H150288   2.191   0.031   1.864 -0.3006  1.0845  1.0763
 9599TIP3    H250289   2.062  -0.038   1.825  0.5106 -0.0721  0.3910
 9600TIP3   OH250290   2.902   2.416  65.409  0.3266 -0.1176  0.3457
 9600TIP3    H150291   2.958   2.401  65.332 -0.7509 -0.2375 -0.4346
 9600TIP3    H250292   2.935   2.497  65.446  1.9143 -0.8963  0.7175
 9601TIP3   OH250293   1.387   3.239  50.106  0.3711  0.1017 -0.7862
 9601TIP3    H150294   1.345   3.182  50.170  0.6161  1.7408  0.8879
 9601TIP3    H250295   1.474   3.200  50.095  0.3081 -0.2339 -0.1725
 9602TIP3   OH250296   2.195   2.576  42.963 -0.2144 -0.3548 -0.0023
 9602TIP3    H150297   2.219   2.484  42.968 -1.2477 -0.5786  1.4862
 9602TIP3    H250298   2.269   2.623  43.002 -0.1144 -0.6380  0.1499
 9603TIP3   OH250299   0.467   1.402  29.993 -0.1799 -0.4916 -0.2003
 9603TIP3    H150300   0.447   1.339  29.924 -2.1695 -1.6348  1.3224
 9603TIP3    H250301   0.511   1.351  30.061 -1.5050 -0.2238  0.9079
 9604TIP3   OH250302   2.203   1.628  51.810 -0.1563 -0.0361  0.0831
 9604TIP3    H150303   2.250   1.600  51.888 -0.2991  0.4199  0.3315
 9604TIP3    H250304   2.257   1.698  51.773  0.0414 -0.4183 -0.3685
 9605TIP3   OH250305   0.395   1.877  66.923 -0.0355 -0.1139 -0.0546
 9605TIP3    H150306   0.373   1.800  66.871  0.4541  0.1154 -0.6146
 9605TIP3    H250307   0.482   1.903  66.892  0.3981 -0.1279  1.0668
 9606TIP3   OH250308   2.959   0.242  42.809 -0.6093  0.8771  0.3690
 9606TIP3    H150309   2.927   0.225  42.898  2.1825 -2.3905  0.9780
 9606TIP3    H250310   2.902   0.189  42.753 -0.3071  0.2614  0.6374
 9607TIP3   OH250311   0.508   2.523  19.946 -0.3858 -0.5791  0.3085
 9607TIP3    H150312   0.589   2.573  19.933 -1.7514  1.6437 -0.1846
 9607TIP3    H250313   0.492   2.528  20.040  0.7914 -2.3345  0.6425
 9608TIP3   OH250314   3.070   2.764   2.592  0.2575  0.2109  0.1002
 9608TIP3    H150315   2.992   2.719   2.624 -0.7350  2.0173  0.3547
 9608TIP3    H250316   3.069   2.751   2.497  0.1362 -0.5167  0.2013
 9609TIP3   OH250317   0.834   0.582  16.192 -0.4710  0.0952  0.7124
 9609TIP3    H150318   0.884   0.537  16.261  2.3567  0.8424 -0.6830
 9609TIP3    H250319   0.847   0.527  16.115 -1.8053  0.3752  0.2684
 9610TIP3   OH250320   2.466   2.775  64.546  0.1636  0.4127 -0.8483
 9610TIP3    H150321   2.450   2.815  64.631 -0.7016  1.4053 -1.4522
 9610TIP3    H250322   2.493   2.686  64.566  1.8196  1.1794  0.5272
 9611TIP3   OH250323   1.122   1.049  62.256 -0.5545  0.6615  0.2336
 9611TIP3    H150324   1.183   1.023  62.325 -0.4593  1.4457  0.4668
 9611TIP3    H250325   1.069   1.118  62.296 -0.0623  1.5998 -0.6696
 9612TIP3   OH250326   2.856   0.439   1.282 -0.1578 -0.2891 -0.6380
 9612TIP3    H150327   2.819   0.363   1.238 -0.3631  0.0500 -1.0670
 9612TIP3    H250328   2.885   0.407   1.367 -1.3112 -0.6038 -0.3412
 9613TIP3   OH250329   3.236   2.970  61.090 -0.1990 -0.3516 -0.6293
 9613TIP3    H150330   3.182   3.012  61.157  0.8760  0.8078 -0.4665
 9613TIP3    H250331   3.219   2.876  61.102 -0.6541 -0.1236  0.7286
 9614TIP3   OH250332   1.942   0.224   3.051  0.2581  0.0866  0.3173
 9614TIP3    H150333   1.951   0.260   3.139 -0.4246 -0.2907  0.5491
 9614TIP3    H250334   1.847   0.219   3.037  0.3617 -0.0491 -0.3572
 9615TIP3   OH250335   1.314   0.862  46.270  0.1733  0.1358 -0.4872
 9615TIP3    H150336   1.281   0.933  46.326  0.6123  1.3390 -1.6908
 9615TIP3    H250337   1.238   0.834  46.219  0.3034  0.7497 -1.0320
 9616TIP3   OH250338   2.131   0.909   5.224  0.0967 -0.3399  0.1554
 9616TIP3    H150339   2.196   0.888   5.157 -1.1783 -0.3664 -1.1106
 9616TIP3    H250340   2.170   0.982   5.272  1.3213 -0.7452 -0.1745
 9617TIP3   OH250341   0.983   1.097  54.391 -0.3347  0.8381  0.1708
 9617TIP3    H150342   1.049   1.138  54.446  0.1082 -1.1014  1.1767
 9617TIP3    H250343   0.901   1.109  54.439  0.1068 -1.1817  1.5260
 9618TIP3   OH250344   0.500   1.183  62.113 -0.2410  0.5067  0.3282
 9618TIP3    H150345   0.520   1.089  62.112 -1.7364  0.1437 -1.7593
 9618TIP3    H250346   0.413   1.190  62.152 -0.1761  1.0093  0.3978
 9619TIP3   OH250347   0.120   1.485  46.250 -0.6355  0.4120 -0.1107
 9619TIP3    H150348   0.067   1.544  46.303 -0.5450 -0.4961  1.0309
 9619TIP3    H250349   0.096   1.506  46.160 -2.3126  0.6134  0.3391
 9620TIP3   OH250350   0.741   0.617  34.456 -0.5119  0.5596 -0.4105
 9620TIP3    H150351   0.751   0.591  34.548 -1.7132 -1.5198 -0.8121
 9620TIP3    H250352   0.830   0.638  34.428 -0.1068  1.0886  1.1865
 9621TIP3   OH250353   2.574   2.218  48.440  0.3665 -0.2115 -0.1978
 9621TIP3    H150354   2.640   2.178  48.382  0.0294 -0.5205 -0.3751
 9621TIP3    H250355   2.594   2.311  48.437  0.2221 -0.1948 -0.9954
 9622TIP3   OH250356   0.072   2.275  13.388 -0.3940 -0.4639  0.2980
 9622TIP3    H150357   0.159   2.241  13.411 -1.0307 -1.7524  0.8701
 9622TIP3    H250358   0.040   2.316  13.468 -0.4292 -0.2257  0.1629
 9623TIP3   OH250359   3.329   0.589  51.274  0.3749  0.6037 -0.5165
 9623TIP3    H150360   3.363   0.535  51.203  0.4327 -2.0846  1.3675
 9623TIP3    H250361   3.234   0.583  51.265  0.3772 -0.1328 -0.1353
 9624TIP3   OH250362   2.969   1.572   1.189 -0.3709 -0.0627 -0.1776
 9624TIP3    H150363   2.884   1.555   1.148  0.1641  2.2642 -2.5052
 9624TIP3    H250364   3.022   1.612   1.120  1.8176  0.8142  1.8692
 9625TIP3   OH250365   2.051   0.055   4.625 -0.4427  0.1123 -0.0009
 9625TIP3    H150366   2.050   0.084   4.716 -0.4747 -0.7413  0.2807
 9625TIP3    H250367   1.964   0.018   4.610 -0.5132  0.4511 -0.4459
 9626TIP3   OH250368   2.860   2.180  12.249  0.6349  0.3322  0.4178
 9626TIP3    H150369   2.793   2.248  12.240  0.9815  0.5653 -0.5318
 9626TIP3    H250370   2.925   2.219  12.308  0.1165  0.2428  1.0597
 9627TIP3   OH250371   2.832   2.831  49.177 -0.1552  0.1709 -0.1358
 9627TIP3    H150372   2.790   2.822  49.263  0.9733  0.3669  0.4633
 9627TIP3    H250373   2.867   2.744  49.158 -0.8811 -0.0083 -0.6625
 9628TIP3   OH250374   2.110   2.030  61.515 -0.2089  0.2846  0.1534
 9628TIP3    H150375   2.146   2.118  61.524  1.3846 -0.4331  1.1982
 9628TIP3    H250376   2.148   1.996  61.434 -1.9871  1.0446 -1.0514
 9629TIP3   OH250377   2.087   2.459  11.494  0.4226  0.0759 -0.2264
 9629TIP3    H150378   2.121   2.390  11.552 -2.4342 -1.0404  0.3176
 9629TIP3    H250379   2.062   2.529  11.553 -0.9375 -0.3757 -0.2251
 9630TIP3   OH250380   1.718   0.195  67.312  0.0816  0.0691 -0.1842
 9630TIP3    H150381   1.711   0.175  67.219  2.2547 -2.2558  0.0269
 9630TIP3    H250382   1.750   0.285  67.315 -0.2940  0.2767 -1.6738
 9631TIP3   OH250383   1.696   1.045  63.082 -0.2258 -0.2286 -0.3289
 9631TIP3    H150384   1.663   0.968  63.128  1.8391 -1.2566 -0.4500
 9631TIP3    H250385   1.621   1.104  63.076 -1.4336 -1.5251  1.2553
 9632TIP3   OH250386   2.448   0.888  58.072 -0.2170  0.7903 -0.0576
 9632TIP3    H150387   2.469   0.930  57.988  1.1535 -1.1110 -0.7221
 9632TIP3    H250388   2.354   0.901  58.082 -0.0308  3.1877 -0.6450
 9633TIP3   OH250389   0.229   3.199  54.941  0.2212 -0.0706  0.1027
 9633TIP3    H150390   0.264   3.124  54.987  1.3885  0.3332 -0.0960
 9633TIP3    H250391   0.221   3.267  55.008  1.6342  0.4224 -0.1964
 9634TIP3   OH250392   0.273   2.921  51.098 -0.4468 -0.3628 -0.0295
 9634TIP3    H150393   0.288   3.015  51.108 -1.9759 -0.0987  0.0120
 9634TIP3    H250394   0.225   2.896  51.177  1.4907 -1.5713  0.8301
 9635TIP3   OH250395   1.248   0.618  63.221  0.0390 -0.3067 -0.2416
 9635TIP3    H150396   1.275   0.642  63.132  0.8915  0.8856  0.3162
 9635TIP3    H250397   1.164   0.663  63.233  0.5243  0.5681 -0.0221
 9636TIP3   OH250398   2.544   0.208   9.319 -0.4817  0.4575  0.1590
 9636TIP3    H150399   2.639   0.217   9.321 -0.4262  0.6495 -1.6135
 9636TIP3    H250400   2.517   0.208   9.411  1.3543 -1.0172  0.7345
 9637TIP3   OH250401   1.797   1.953  45.264 -0.6926  0.3687  0.0646
 9637TIP3    H150402   1.819   1.964  45.356 -2.1974  0.8289  0.3891
 9637TIP3    H250403   1.821   1.862  45.244  2.7740  1.1449 -0.0358
 9638TIP3   OH250404   2.664   0.460  50.664 -0.2784  0.6423  0.4695
 9638TIP3    H150405   2.676   0.369  50.638 -0.6260  0.5459  0.6422
 9638TIP3    H250406   2.628   0.456  50.753 -1.4959  0.9107  0.0146
 9639TIP3   OH250407   0.402   1.164  65.430  0.2701 -0.1447  0.1128
 9639TIP3    H150408   0.397   1.116  65.347 -4.1302  1.5325 -0.8903
 9639TIP3    H250409   0.349   1.112  65.491  1.2437 -0.0109  1.0956
 9640TIP3   OH250410   1.449   2.674  13.750  0.0292  0.0018  0.4461
 9640TIP3    H150411   1.423   2.652  13.840 -0.5297  1.0434  0.5595
 9640TIP3    H250412   1.421   2.765  13.739 -0.5490 -0.3225 -1.0249
 9641TIP3   OH250413   2.225   0.509  42.618  0.2151  0.1667 -0.2446
 9641TIP3    H150414   2.164   0.460  42.672 -2.1697  1.2042 -1.8358
 9641TIP3    H250415   2.271   0.566  42.679  1.0816 -2.0088  1.2516
 9642TIP3   OH250416   1.356   2.271  10.769 -0.2383  0.2005 -0.1900
 9642TIP3    H150417   1.350   2.177  10.789  0.7138 -0.1936 -1.5756
 9642TIP3    H250418   1.344   2.314  10.854 -0.9322 -1.1609  0.4382
 9643TIP3   OH250419   0.397   2.407  54.246  0.2751  0.1695  0.0739
 9643TIP3    H150420   0.467   2.345  54.226  0.1296  0.3929 -1.2067
 9643TIP3    H250421   0.430   2.491  54.215 -0.9387  0.1072 -1.5330
 9644TIP3   OH250422   0.007   1.057   0.223 -0.3687 -0.5628  0.5937
 9644TIP3    H150423   0.008   1.152   0.208  0.9188 -0.7066 -0.3468
 9644TIP3    H250424  -0.075   1.028   0.185  0.1860 -0.0943 -1.0158
 9645TIP3   OH250425   0.509   3.314  64.749  0.1669 -0.0577  0.0148
 9645TIP3    H150426   0.423   3.337  64.714 -0.4065  0.8075  1.8299
 9645TIP3    H250427   0.509   3.218  64.752 -0.0910 -0.1186 -1.4607
 9646TIP3   OH250428   0.865   2.060  22.109 -0.3716  0.2824  0.3943
 9646TIP3    H150429   0.795   2.087  22.049  1.0349  1.1323 -0.9648
 9646TIP3    H250430   0.820   2.032  22.188 -2.2574  0.3200 -0.6111
 9647TIP3   OH250431   1.279   0.495  12.483  0.6405  0.1777 -0.5871
 9647TIP3    H150432   1.273   0.418  12.539  0.1350 -1.1650 -2.3829
 9647TIP3    H250433   1.231   0.471  12.404  0.7269  2.2437 -1.3335
 9648TIP3   OH250434   0.805   2.735   9.109  0.0783 -0.3612  0.3439
 9648TIP3    H150435   0.842   2.666   9.054  0.6474 -1.2867  1.8284
 9648TIP3    H250436   0.835   2.817   9.068 -2.1456 -0.8169 -2.5437
 9649TIP3   OH250437   0.044   0.668   6.356 -0.1757 -0.0311  0.2950
 9649TIP3    H150438   0.129   0.648   6.395 -0.3954 -2.6164 -0.3745
 9649TIP3    H250439   0.065   0.701   6.268  0.1746  2.1290  1.1352
 9650TIP3   OH250440   3.202   0.557  61.107 -0.0863 -0.3325  0.3990
 9650TIP3    H150441   3.291   0.525  61.089 -0.4698 -0.5629 -1.2645
 9650TIP3    H250442   3.206   0.592  61.196  1.0162 -2.6803  1.3482
 9651TIP3   OH250443   2.918   0.872  56.158  0.2397  0.5290  0.3219
 9651TIP3    H150444   2.883   0.855  56.071  0.0566  0.6514  0.3702
 9651TIP3    H250445   2.936   0.966  56.159  1.1376  0.3695  0.0934
 9652TIP3   OH250446   1.984   2.605  11.689 -0.2615  0.4407  0.1147
 9652TIP3    H150447   2.034   2.680  11.723 -0.5823  0.6038  0.2343
 9652TIP3    H250448   1.995   2.537  11.756 -0.0280  0.4049  0.0406
 9653TIP3   OH250449   1.851   3.316  49.813  0.1320  0.1197  0.1067
 9653TIP3    H150450   1.906   3.268  49.750 -0.9211  0.5315 -1.1707
 9653TIP3    H250451   1.866   3.272  49.896  0.8550 -1.0450 -0.6130
 9654TIP3   OH250452   3.331   2.782  13.608  0.3437 -0.0634  0.0642
 9654TIP3    H150453   3.273   2.712  13.639  1.6964 -0.3121  2.2677
 9654TIP3    H250454   3.284   2.822  13.535 -1.1240 -2.3078 -0.3243
 9655TIP3   OH250455   0.603   1.620  67.038 -0.1676 -0.0196  0.3613
 9655TIP3    H150456   0.609   1.715  67.033  1.5587 -0.1493 -0.5709
 9655TIP3    H250457   0.534   1.597  66.975 -0.5296  0.5912  0.5253
 9656TIP3   OH250458   3.060   1.670  43.449  0.3338  0.2452 -0.2085
 9656TIP3    H150459   3.096   1.691  43.535 -1.7366  1.9082  0.3245
 9656TIP3    H250460   3.014   1.587  43.462 -0.5047  0.8084  0.4653
 9657TIP3   OH250461   2.199   2.677   6.015 -0.5386 -0.6650 -0.0542
 9657TIP3    H150462   2.146   2.681   6.094  1.0655 -1.3669  1.0909
 9657TIP3    H250463   2.168   2.599   5.969 -1.2052 -0.4702  0.0492
 9658TIP3   OH250464   3.175   1.547  28.790 -0.2862 -0.4764  0.4379
 9658TIP3    H150465   3.193   1.471  28.735 -1.7394 -1.0642  0.7235
 9658TIP3    H250466   3.111   1.597  28.741  0.3787  0.3863  0.4265
 9659TIP3   OH250467   2.628   1.140  10.956 -0.0640 -0.0989 -0.4578
 9659TIP3    H150468   2.669   1.099  11.032 -1.1911  0.5376  0.5338
 9659TIP3    H250469   2.666   1.095  10.881  2.7853  0.7469  0.3239
 9660TIP3   OH250470   1.963   2.947  47.971 -0.2211 -0.3854 -0.3188
 9660TIP3    H150471   1.968   3.032  47.927  1.4146 -0.8050 -1.0211
 9660TIP3    H250472   1.984   2.966  48.062 -0.8959  0.0901 -0.2507
 9661TIP3   OH250473   3.420   1.885  44.533  0.4065 -0.4455 -0.1796
 9661TIP3    H150474   3.367   1.915  44.607  1.0509 -1.6563  0.8024
 9661TIP3    H250475   3.356   1.859  44.467 -0.1934 -0.1928  0.2912
 9662TIP3   OH250476   1.394   1.081  15.482 -0.0692  0.2458  0.2450
 9662TIP3    H150477   1.301   1.065  15.502 -0.1783 -0.2291 -0.5988
 9662TIP3    H250478   1.442   1.032  15.548 -0.4131  0.9313  1.0228
 9663TIP3   OH250479   0.666   2.387   8.827 -0.0423 -0.3341 -0.1474
 9663TIP3    H150480   0.717   2.462   8.857 -2.4632  0.9794  0.9609
 9663TIP3    H250481   0.693   2.315   8.884  0.6605  0.2925  0.3291
 9664TIP3   OH250482   3.203   1.272  48.088  0.1931  0.0065  0.2305
 9664TIP3    H150483   3.172   1.339  48.149  1.8700  0.1414  0.9969
 9664TIP3    H250484   3.206   1.318  48.003  0.0485  0.5015  0.4871
 9665TIP3   OH250485   1.721   2.634  47.414 -0.3563 -0.4191  0.3257
 9665TIP3    H150486   1.720   2.544  47.380 -0.0431 -0.5485  0.6480
 9665TIP3    H250487   1.787   2.632  47.483 -0.1454  0.1372  0.1364
 9666TIP3   OH250488   0.942   2.734   4.775  0.2338 -0.3646 -0.5080
 9666TIP3    H150489   0.944   2.802   4.708 -0.0484 -0.8416 -1.0122
 9666TIP3    H250490   1.018   2.751   4.830  0.0717  0.4533 -0.5279
 9667TIP3   OH250491   3.440   1.831  49.141 -0.3097 -0.1696  0.1891
 9667TIP3    H150492   3.509   1.764  49.135 -0.5606 -0.3289 -1.4274
 9667TIP3    H250493   3.368   1.795  49.089 -0.9456  0.7888  0.3924
 9668TIP3   OH250494   2.687   2.072  27.762  0.0143 -0.7572  0.0047
 9668TIP3    H150495   2.598   2.088  27.794 -0.3161 -3.5215  0.7075
 9668TIP3    H250496   2.743   2.087  27.838 -0.0896 -1.1790  0.1643
 9669TIP3   OH250497   3.107   1.313  42.641 -0.0019 -0.0608  0.6778
 9669TIP3    H150498   3.202   1.314  42.651  0.0181  2.1387  0.8266
 9669TIP3    H250499   3.074   1.288  42.727  0.4282 -1.4004  0.4734
 9670TIP3   OH250500   1.973   1.733  46.885  0.5309 -0.2714  0.0466
 9670TIP3    H150501   1.928   1.794  46.827 -0.5353 -0.7266  0.3823
 9670TIP3    H250502   1.979   1.652  46.834 -0.1973 -0.6007  0.4852
 9671TIP3   OH250503   2.103   3.435  12.948 -0.0815  0.6316  0.0572
 9671TIP3    H150504   2.052   3.413  12.870  1.8135 -0.7037 -0.9136
 9671TIP3    H250505   2.057   3.392  13.020 -0.1240 -0.9091 -0.8457
 9672TIP3   OH250506   3.373   1.143  55.933  0.3936  0.9376 -0.3351
 9672TIP3    H150507   3.338   1.231  55.921 -2.3171  0.0459  0.1674
 9672TIP3    H250508   3.368   1.128  56.027  1.6906  0.5400 -0.3154
 9673TIP3   OH250509   0.088   2.651  47.725  0.0256 -1.1217  0.2935
 9673TIP3    H150510   0.040   2.733  47.731 -1.0427 -1.6183 -0.9268
 9673TIP3    H250511   0.179   2.677  47.711  0.0404 -0.1722  1.9013
 9674TIP3   OH250512   1.619   1.185   9.238  0.1162  0.2386  0.7064
 9674TIP3    H150513   1.591   1.111   9.184  0.8818 -0.8524  1.7616
 9674TIP3    H250514   1.626   1.258   9.177  0.9380 -0.9558 -0.6857
 9675TIP3   OH250515   2.838   2.669   0.895 -0.0674 -0.2643  0.8040
 9675TIP3    H150516   2.827   2.664   0.990  0.8128  0.5094  0.9596
 9675TIP3    H250517   2.823   2.580   0.864  0.1296 -0.6279  1.7303
 9676TIP3   OH250518   2.251   3.146  58.458  0.4082 -0.1270 -0.5989
 9676TIP3    H150519   2.289   3.232  58.443 -0.3185  0.2640 -0.2467
 9676TIP3    H250520   2.325   3.085  58.450  0.6971  0.3924 -2.1417
 9677TIP3   OH250521   0.940   3.263  43.912  1.0852  0.8872 -0.0482
 9677TIP3    H150522   0.908   3.184  43.867 -1.2084  0.8548  1.4721
 9677TIP3    H250523   0.951   3.327  43.842 -2.2093  0.7964 -0.8322
 9678TIP3   OH250524   2.780   0.939  67.200  0.0235  0.1672  0.0843
 9678TIP3    H150525   2.861   0.893  67.220  1.5422  1.8084 -1.7485
 9678TIP3    H250526   2.801   1.032  67.212 -0.2793  0.9537 -3.9613
 9679TIP3   OH250527   0.916   3.267  53.899 -0.1845  0.0044 -0.1662
 9679TIP3    H150528   0.949   3.356  53.913 -0.9691  0.3047 -0.1712
 9679TIP3    H250529   0.857   3.275  53.824  0.7771 -0.7916 -1.0504
 9680TIP3   OH250530   0.110   1.841  61.675  0.0641  0.3945 -0.9808
 9680TIP3    H150531   0.028   1.802  61.703 -0.6052  1.0391 -2.0065
 9680TIP3    H250532   0.176   1.774  61.695 -0.4242  0.5256  1.4716
 9681TIP3   OH250533   1.816   0.384  58.309 -0.1096  0.0212  0.1071
 9681TIP3    H150534   1.785   0.404  58.221 -1.3428 -2.8715 -0.2266
 9681TIP3    H250535   1.751   0.423  58.367 -0.8430 -0.4117 -0.4024
 9682TIP3   OH250536   2.407   3.385  47.320  0.4706 -0.0175 -0.1441
 9682TIP3    H150537   2.416   3.449  47.249  1.0562 -0.3027 -0.3331
 9682TIP3    H250538   2.484   3.329  47.311  0.7334  0.1625  0.9361
 9683TIP3   OH250539   1.371   0.765  14.933 -0.0692 -0.0658 -0.1392
 9683TIP3    H150540   1.302   0.820  14.896 -0.0981  0.4075  0.6112
 9683TIP3    H250541   1.386   0.698  14.866 -0.6940  0.2945 -0.6523
 9684TIP3   OH250542   1.534   1.336  50.726  0.4456  0.4635 -0.2560
 9684TIP3    H150543   1.545   1.306  50.817 -1.0750  1.9560  0.4649
 9684TIP3    H250544   1.440   1.326  50.709  0.2569  2.6479 -0.7294
 9685TIP3   OH250545   3.094   1.547  65.156 -0.1760 -0.2103  0.2220
 9685TIP3    H150546   3.047   1.599  65.221 -2.2682 -3.9597  2.0432
 9685TIP3    H250547   3.029   1.531  65.087  0.7942  0.4447 -0.8790
 9686TIP3   OH250548   1.589   0.066   8.368  0.1034  0.1131  0.0592
 9686TIP3    H150549   1.656   0.052   8.301 -0.5343  0.6550 -0.7079
 9686TIP3    H250550   1.629   0.129   8.428  0.0853  0.8761 -0.7078
 9687TIP3   OH250551   1.923   0.894   8.723 -0.0694 -0.5115 -0.0570
 9687TIP3    H150552   1.886   0.983   8.723 -1.5556 -1.0762  1.4819
 9687TIP3    H250553   1.867   0.845   8.663  0.2261 -0.6000 -0.2594
 9688TIP3   OH250554   3.246   1.747  15.487  0.9880 -0.9420  0.3048
 9688TIP3    H150555   3.170   1.798  15.459  0.3457 -0.6062  2.4432
 9688TIP3    H250556   3.294   1.728  15.406  0.0170  1.0449 -0.8145
 9689TIP3   OH250557   1.386   0.097  48.585  0.3324 -0.5783  0.4143
 9689TIP3    H150558   1.464   0.142  48.616  0.0272  0.9854 -0.9441
 9689TIP3    H250559   1.333   0.081  48.663  0.8064  0.7459  1.0213
 9690TIP3   OH250560   1.096   0.711   5.179  0.8698 -0.0849 -0.3597
 9690TIP3    H150561   1.164   0.774   5.203 -0.4375  0.6893  1.4846
 9690TIP3    H250562   1.081   0.728   5.086  1.9894  0.8896 -0.3935
 9691TIP3   OH250563   2.186   1.799   6.981 -0.2204  0.6682  0.0133
 9691TIP3    H150564   2.280   1.790   6.993 -0.1677  0.6071 -0.4626
 9691TIP3    H250565   2.159   1.718   6.940 -0.0207  1.8396 -2.6045
 9692TIP3   OH250566   0.152   2.486  61.187  0.0593 -0.0341  0.0898
 9692TIP3    H150567   0.146   2.483  61.282 -1.0321  1.3912  0.0959
 9692TIP3    H250568   0.124   2.574  61.164 -1.5202 -0.9135 -1.6671
 9693TIP3   OH250569   2.901   1.874  67.121 -0.3025 -0.1597  0.2742
 9693TIP3    H150570   2.916   1.895  67.214  2.0698 -0.7097  0.0738
 9693TIP3    H250571   2.920   1.956  67.076  2.1357 -0.7488  0.0576
 9694TIP3   OH250572   0.850   0.190  44.640  0.6781 -0.0111  0.5724
 9694TIP3    H150573   0.777   0.130  44.627  0.8442 -0.7831  2.7911
 9694TIP3    H250574   0.835   0.228  44.727  1.1632  2.3849 -0.3058
 9695TIP3   OH250575   3.103   0.190   7.114 -0.4594 -0.1393 -0.3320
 9695TIP3    H150576   3.153   0.189   7.196  0.6358  2.6144 -0.8414
 9695TIP3    H250577   3.152   0.133   7.056  0.6238  0.4077  0.0062
 9696TIP3   OH250578   2.638   3.212  10.453  0.0893 -0.0991 -0.1597
 9696TIP3    H150579   2.566   3.179  10.507  0.1086  1.0288  0.5770
 9696TIP3    H250580   2.716   3.194  10.505  0.3865 -1.4409 -1.0141
 9697TIP3   OH250581   3.246   1.492  64.856  0.5043 -0.5437 -0.0270
 9697TIP3    H150582   3.305   1.473  64.783 -0.5550 -0.5305 -0.9160
 9697TIP3    H250583   3.172   1.537  64.815 -0.4014 -1.0967  0.9708
 9698TIP3   OH250584   2.722   3.064  64.304  0.2916 -0.0068  0.4053
 9698TIP3    H150585   2.734   3.140  64.246 -1.1695  0.3141  0.4676
 9698TIP3    H250586   2.668   3.004  64.253 -0.0930 -0.1969  1.0343
 9699TIP3   OH250587   0.469   1.132  51.246 -0.5683  0.2137 -1.0010
 9699TIP3    H150588   0.470   1.220  51.209  2.0761  0.6965  0.0505
 9699TIP3    H250589   0.560   1.113  51.267 -1.0463 -2.8012 -1.1612
 9700TIP3   OH250590   1.184   1.894   7.253 -0.5651  0.4982  0.6134
 9700TIP3    H150591   1.201   1.824   7.315 -0.1439 -0.0276 -0.0797
 9700TIP3    H250592   1.089   1.904   7.252 -0.5479  0.9903  1.8423
 9701TIP3   OH250593   2.177   1.111  60.521 -0.0551 -0.1818  0.1842
 9701TIP3    H150594   2.130   1.132  60.602  0.6442  0.2532  0.4795
 9701TIP3    H250595   2.257   1.067  60.549  0.9055  1.2549 -0.1578
 9702TIP3   OH250596   2.408   3.022  15.189 -0.1993 -0.5106  0.6113
 9702TIP3    H150597   2.354   3.089  15.147  2.5016  0.6787 -1.2420
 9702TIP3    H250598   2.393   2.943  15.137  0.5060  0.0543 -0.4811
 9703TIP3   OH250599   2.292   1.963   5.243  0.4159 -0.0653 -0.0951
 9703TIP3    H150600   2.281   1.941   5.335 -0.6780 -0.3637 -0.2798
 9703TIP3    H250601   2.283   1.879   5.197  0.6609  0.1237 -0.4924
 9704TIP3   OH250602   2.852   0.675   5.445 -0.2752 -0.0741 -0.2324
 9704TIP3    H150603   2.839   0.682   5.540  1.5091  0.2422  0.0093
 9704TIP3    H250604   2.899   0.754   5.421  0.5859 -0.8383 -1.1349
 9705TIP3   OH250605   1.866   3.327   7.782 -0.0842 -0.1698  0.0885
 9705TIP3    H150606   1.782   3.317   7.737 -0.0664 -0.2793  0.0805
 9705TIP3    H250607   1.844   3.318   7.875 -0.0351 -0.5110  0.0699
 9706TIP3   OH250608   1.979   1.243  57.964  0.1878 -0.2031 -0.2592
 9706TIP3    H150609   2.066   1.210  57.983  0.6092  0.5971 -0.7608
 9706TIP3    H250610   1.988   1.289  57.881 -0.8803 -0.7471 -0.6961
 9707TIP3   OH250611   1.637   0.729  55.638  0.0681  0.1587  0.5968
 9707TIP3    H150612   1.623   0.819  55.606 -0.3207  0.0092  0.3468
 9707TIP3    H250613   1.629   0.674  55.561  2.2584  0.0639  0.3608
 9708TIP3   OH250614   1.933   1.891  45.909  0.0410 -0.1297 -0.1379
 9708TIP3    H150615   2.012   1.887  45.855 -0.5541  0.2486 -1.0672
 9708TIP3    H250616   1.923   1.984  45.930 -0.2861 -0.1439 -0.2246
 9709TIP3   OH250617   3.311   1.804  12.572 -0.3519  0.0238 -0.3476
 9709TIP3    H150618   3.257   1.815  12.494  0.8846 -0.7301 -1.3459
 9709TIP3    H250619   3.338   1.712  12.570 -1.0829 -0.2749  1.5119
 9710TIP3   OH250620   0.148   0.754   2.388  0.2738  0.3848 -0.0929
 9710TIP3    H150621   0.171   0.742   2.296  0.4244  1.8687 -0.2736
 9710TIP3    H250622   0.063   0.711   2.398 -0.7878  2.0633 -1.4682
 9711TIP3   OH250623   1.340   1.121  13.677  0.6657  0.4694  0.1051
 9711TIP3    H150624   1.413   1.171  13.640  0.1544  0.9566 -0.2694
 9711TIP3    H250625   1.381   1.048  13.722  1.3695  0.4697 -0.5120
 9712TIP3   OH250626   3.331   2.052  54.127  0.0615  0.0083 -0.1238
 9712TIP3    H150627   3.353   1.959  54.142 -0.4494 -0.5727 -2.5228
 9712TIP3    H250628   3.257   2.069  54.185 -0.7796 -1.5466 -0.6834
 9713TIP3   OH250629   1.633   2.677  17.837 -0.0539 -0.6950  0.3672
 9713TIP3    H150630   1.599   2.593  17.868 -1.6460 -0.6464 -1.1084
 9713TIP3    H250631   1.706   2.654  17.779  0.3221 -0.9824  0.9476
 9714TIP3   OH250632   1.043   2.396   4.126 -0.7155  0.2743  0.3759
 9714TIP3    H150633   1.065   2.318   4.178  0.2253  0.2833  0.0137
 9714TIP3    H250634   0.996   2.453   4.186 -1.3303 -0.5300  0.6778
 9715TIP3   OH250635   2.948   0.042  44.598  0.0430  0.0077  0.0251
 9715TIP3    H150636   2.911   0.086  44.675  0.3108  1.8224 -0.8240
 9715TIP3    H250637   2.882  -0.023  44.574 -1.3364  1.2854  0.1996
 9716TIP3   OH250638   2.033   0.264  58.748 -0.7239 -0.3630 -0.2804
 9716TIP3    H150639   1.975   0.244  58.675  0.3864 -1.2849 -0.9477
 9716TIP3    H250640   2.013   0.197  58.813 -0.0476 -1.0311 -0.7405
 9717TIP3   OH250641   2.268   1.728   5.115  0.0229 -0.1639 -0.3406
 9717TIP3    H150642   2.315   1.675   5.049 -2.3432 -1.4568 -1.1186
 9717TIP3    H250643   2.208   1.666   5.156 -1.4642  1.5207  0.1283
 9718TIP3   OH250644   2.592   1.446  47.955 -0.3387 -0.0567 -0.2984
 9718TIP3    H150645   2.643   1.365  47.954 -0.7329 -0.3286  0.6762
 9718TIP3    H250646   2.591   1.474  47.864 -0.0755 -1.0765 -0.6318
 9719TIP3   OH250647   2.440   0.133  60.093 -0.4352  0.1601 -0.3034
 9719TIP3    H150648   2.489   0.184  60.158 -1.1599  1.0484 -0.4278
 9719TIP3    H250649   2.496   0.131  60.016 -0.4769  0.9695 -0.3667
 9720TIP3   OH250650   2.844   1.998  45.712  0.0344 -0.0028 -0.0450
 9720TIP3    H150651   2.899   1.928  45.747  0.6007  0.4521 -0.0198
 9720TIP3    H250652   2.768   1.952  45.676 -0.1975 -0.5526  1.0699
 9721TIP3   OH250653   0.222   1.185  54.318 -0.1354  0.5186 -0.1076
 9721TIP3    H150654   0.202   1.131  54.241  0.6730  2.3457 -1.6934
 9721TIP3    H250655   0.310   1.219  54.301  1.0195 -0.7392  2.7211
 9722TIP3   OH250656   2.444   1.886   8.124 -0.3240 -0.2586  0.0161
 9722TIP3    H150657   2.434   1.870   8.218  0.4432 -1.0035 -0.0193
 9722TIP3    H250658   2.508   1.821   8.095 -1.4126 -0.8229 -1.2429
 9723TIP3   OH250659   1.463   1.916  53.592 -0.4588  0.0491  0.3200
 9723TIP3    H150660   1.415   1.979  53.644  0.8119  0.2756  1.2649
 9723TIP3    H250661   1.413   1.835  53.600 -1.9378  0.8218 -0.6542
 9724TIP3   OH250662   2.929   0.152  13.408 -0.2736  0.3838  0.0256
 9724TIP3    H150663   2.855   0.124  13.463 -1.2261 -0.7964 -1.7539
 9724TIP3    H250664   2.960   0.071  13.367  1.8096  0.9168  0.4397
 9725TIP3   OH250665   0.014   3.090   5.478 -0.1718  0.1931  0.4510
 9725TIP3    H150666   0.037   3.182   5.489  1.1870 -0.1730  0.7606
 9725TIP3    H250667  -0.056   3.076   5.542  0.5608  0.6700  1.3776
 9726TIP3   OH250668   0.700   2.187  22.593 -0.2350 -0.0216  0.1141
 9726TIP3    H150669   0.676   2.108  22.642  0.1020  0.4982  1.1676
 9726TIP3    H250670   0.793   2.178  22.576 -0.1873  0.1511  0.2698
 9727TIP3   OH250671   2.860   1.922  52.281  0.6914  0.3067  0.5715
 9727TIP3    H150672   2.910   1.863  52.338 -0.0206  1.7719  2.8375
 9727TIP3    H250673   2.913   2.001  52.275  1.6186 -0.4012 -2.4168
 9728TIP3   OH250674   2.397   1.092  16.796  0.3480  0.3525  0.3712
 9728TIP3    H150675   2.343   1.014  16.807 -1.2210  1.5606  1.4900
 9728TIP3    H250676   2.375   1.124  16.708  1.5065 -0.7813 -0.3796
 9729TIP3   OH250677   2.151   1.059  59.987  0.0667 -0.4834  0.6393
 9729TIP3    H150678   2.136   1.075  60.080  0.2126 -2.3835  1.0299
 9729TIP3    H250679   2.063   1.054  59.950 -0.0262  3.4474 -0.0072
 9730TIP3   OH250680   2.481   3.389  60.497  0.4366 -0.2346 -0.3615
 9730TIP3    H150681   2.500   3.297  60.479  2.1360  0.5288 -3.1770
 9730TIP3    H250682   2.557   3.421  60.545 -1.0581 -0.6561  2.4920
 9731TIP3   OH250683   0.802   1.888   0.574 -0.4099  0.2815 -0.2423
 9731TIP3    H150684   0.846   1.970   0.595 -0.4936  0.2641  0.0113
 9731TIP3    H250685   0.768   1.857   0.658  1.3361 -1.0209  0.0318
 9732TIP3   OH250686   2.390   2.334  10.967  0.0882  0.1991  0.4113
 9732TIP3    H150687   2.435   2.261  10.924 -0.1821  1.4056 -2.1234
 9732TIP3    H250688   2.302   2.300  10.987  0.4823 -0.6361  0.7538
 9733TIP3   OH250689   1.045   0.106  54.494 -0.3530  0.2228 -0.2778
 9733TIP3    H150690   1.007   0.183  54.535 -0.1352  0.7170 -0.9772
 9733TIP3    H250691   0.987   0.087  54.420  0.3528  0.5642 -0.9362
 9734TIP3   OH250692   2.399   1.243   8.283  0.4586  0.0725 -0.4074
 9734TIP3    H150693   2.484   1.274   8.254  1.9259 -3.0120  0.1965
 9734TIP3    H250694   2.336   1.303   8.243  2.8245  1.5265 -2.1671
 9735TIP3   OH250695   3.136   1.595  58.087 -0.1252 -0.3510  0.2066
 9735TIP3    H150696   3.145   1.588  58.182 -0.5006 -0.2199  0.2530
 9735TIP3    H250697   3.191   1.669  58.062 -1.2076  0.5755  0.5081
 9736TIP3   OH250698   0.780   2.915  21.766 -0.5284  0.7463  0.4628
 9736TIP3    H150699   0.782   2.994  21.818  2.0410  0.1526  1.3998
 9736TIP3    H250700   0.866   2.911  21.724  0.0714 -2.2951  1.7171
 9737TIP3   OH250701   2.384   0.926  64.245  0.3790  0.5337 -0.2467
 9737TIP3    H150702   2.334   0.987  64.300  0.7067  0.3068  0.3180
 9737TIP3    H250703   2.447   0.982  64.199  1.4076  0.5219  1.0820
 9738TIP3   OH250704   0.017   2.703  17.781  0.0294 -0.2099 -0.4057
 9738TIP3    H150705  -0.041   2.767  17.823  0.3952  0.0759 -0.3301
 9738TIP3    H250706   0.097   2.753  17.761  0.4149 -0.7121 -0.1166
 9739TIP3   OH250707   2.562   2.667   4.538 -0.1491 -0.1302  0.9823
 9739TIP3    H150708   2.613   2.690   4.616  0.4490 -1.0356  0.8706
 9739TIP3    H250709   2.627   2.653   4.470 -0.7217  2.0719 -0.1155
 9740TIP3   OH250710   1.717   0.196  13.383  0.3675 -0.2939  0.6658
 9740TIP3    H150711   1.719   0.161  13.473 -0.2707 -1.8187  0.1290
 9740TIP3    H250712   1.648   0.262  13.385  0.5516 -0.1143  1.3719
 9741TIP3   OH250713   0.853   0.489  67.068  0.2418  0.5728 -0.2527
 9741TIP3    H150714   0.794   0.436  67.015  1.6685  0.5235 -1.8666
 9741TIP3    H250715   0.809   0.497  67.153 -1.7167 -0.0409 -1.1728
 9742TIP3   OH250716   3.111   0.466  17.167 -0.0612 -0.6460  0.0432
 9742TIP3    H150717   3.161   0.514  17.234 -0.7721  1.1914 -0.6796
 9742TIP3    H250718   3.176   0.409  17.126  0.9534  0.0641  0.5963
 9743TIP3   OH250719   2.074   2.906   3.798  0.2963  0.3928 -0.3659
 9743TIP3    H150720   2.037   2.990   3.827  0.3414  0.0613  0.6927
 9743TIP3    H250721   2.006   2.869   3.741 -0.8877 -0.0154  1.2274
 9744TIP3   OH250722   2.795   0.666  28.316  0.4295  0.0006 -0.7955
 9744TIP3    H150723   2.787   0.722  28.239  0.9288  1.2073  0.0006
 9744TIP3    H250724   2.773   0.578  28.285  0.0755  0.5613 -2.1755
 9745TIP3   OH250725   0.856   2.655  61.159 -0.6137  0.3447  0.0339
 9745TIP3    H150726   0.934   2.659  61.214 -1.6414  2.7131  1.4493
 9745TIP3    H250727   0.783   2.663  61.219 -1.8983  0.3121 -1.4534
 9746TIP3   OH250728   0.571   2.371  55.790 -0.1444 -0.0697  0.3499
 9746TIP3    H150729   0.492   2.325  55.762  0.0775  0.1882 -0.7186
 9746TIP3    H250730   0.609   2.406  55.710  0.9339  0.0159  0.8798
 9747TIP3   OH250731   1.581   3.290   1.323 -0.6116 -0.6987  0.1517
 9747TIP3    H150732   1.605   3.239   1.246 -0.2430 -0.2397 -0.0449
 9747TIP3    H250733   1.537   3.367   1.288  1.9086  0.8804  0.1728
 9748TIP3   OH250734   0.545   0.872  49.861 -0.1125 -0.0102 -0.4186
 9748TIP3    H150735   0.637   0.896  49.871  0.6363 -1.9407 -2.0064
 9748TIP3    H250736   0.535   0.794  49.915 -0.7779  0.0827 -0.3977
 9749TIP3   OH250737   2.126   2.449  12.731 -0.0367 -0.1793 -0.0519
 9749TIP3    H150738   2.059   2.508  12.766  1.6837  0.8243  1.8041
 9749TIP3    H250739   2.152   2.488  12.648 -1.0083 -0.0216 -0.2970
 9750TIP3   OH250740   0.331   0.187  56.195  0.0743 -0.0014  0.0267
 9750TIP3    H150741   0.236   0.177  56.204  0.0758  0.3991  0.5254
 9750TIP3    H250742   0.364   0.097  56.190 -0.2215 -0.1758  1.0567
 9751TIP3   OH250743   2.908   1.558  61.957 -0.0500 -0.4191  0.3767
 9751TIP3    H150744   2.939   1.473  61.989  0.2794 -0.7524 -0.7910
 9751TIP3    H250745   2.834   1.579  62.014  1.2706 -0.3766  2.1798
 9752TIP3   OH250746   0.485   1.057  15.243 -0.5128 -0.4353  0.1151
 9752TIP3    H150747   0.508   1.027  15.331 -1.4016  0.6336  0.7319
 9752TIP3    H250748   0.419   0.995  15.213 -1.3512  0.1053  0.8356
 9753TIP3   OH250749   2.467   0.802  56.684 -0.0426  0.7618 -0.5784
 9753TIP3    H150750   2.553   0.833  56.654 -0.1749  0.9108 -0.8036
 9753TIP3    H250751   2.485   0.759  56.767  0.4273 -0.1792 -1.1450
 9754TIP3   OH250752   2.146   0.996  47.603 -0.7388 -0.0946 -0.2878
 9754TIP3    H150753   2.060   0.959  47.623 -0.3920 -0.5697  0.3273
 9754TIP3    H250754   2.189   1.005  47.687 -0.5281  1.0333 -0.4981
 9755TIP3   OH250755   1.641   2.629  15.517  0.4059  0.0012 -0.5212
 9755TIP3    H150756   1.576   2.677  15.568  0.4668  1.4093 -1.6840
 9755TIP3    H250757   1.705   2.598  15.581 -0.4500  0.1745  0.4303
 9756TIP3   OH250758   1.768   0.219  45.458  0.2091  0.1250  0.6748
 9756TIP3    H150759   1.728   0.249  45.377  1.2494 -0.9048 -0.2529
 9756TIP3    H250760   1.807   0.298  45.497 -0.8818  0.7427  0.5388
 9757TIP3   OH250761   3.264   2.091  53.228 -0.3053 -0.0145  0.3814
 9757TIP3    H150762   3.267   1.997  53.210 -0.9853  0.1294 -0.5332
 9757TIP3    H250763   3.232   2.098  53.318  1.7316 -0.7071  1.2229
 9758TIP3   OH250764   1.735   2.211  52.275 -0.2399 -0.1251  0.0712
 9758TIP3    H150765   1.685   2.142  52.232 -0.3051 -0.3553  0.5005
 9758TIP3    H250766   1.670   2.277  52.298 -0.0826  0.3943 -0.9269
 9759TIP3   OH250767   3.154   3.346   5.606  0.6025 -0.6029 -0.3864
 9759TIP3    H150768   3.072   3.389   5.632  1.2976  1.2643 -1.0784
 9759TIP3    H250769   3.131   3.292   5.531  0.1249  0.6468 -1.1790
 9760TIP3   OH250770   1.246   0.573  34.688  0.1658 -0.6771 -0.3015
 9760TIP3    H150771   1.175   0.538  34.635 -0.2565  2.4195 -2.0041
 9760TIP3    H250772   1.315   0.596  34.625  1.5222 -0.9638  1.0067
 9761TIP3   OH250773   1.726   1.249  63.767 -0.0637 -0.1553 -0.8329
 9761TIP3    H150774   1.795   1.314  63.749  1.7625 -0.8754  2.5707
 9761TIP3    H250775   1.766   1.190  63.831 -3.2494 -1.8446 -0.2263
 9762TIP3   OH250776   1.009   2.561  38.150  0.5835  0.3997  0.1233
 9762TIP3    H150777   1.060   2.616  38.090  2.0657  0.0921  1.0366
 9762TIP3    H250778   1.041   2.586  38.237  0.4638 -1.0925  0.6216
 9763TIP3   OH250779   1.174   0.313  18.942 -0.4555  0.1056 -0.1569
 9763TIP3    H150780   1.204   0.379  19.005  1.2135 -0.4114 -0.3443
 9763TIP3    H250781   1.252   0.260  18.925 -1.5703 -1.4444 -0.6039
 9764TIP3   OH250782   2.192   1.339  49.624 -0.1096 -0.4649  0.0724
 9764TIP3    H150783   2.106   1.355  49.584 -0.0573 -1.4794 -0.4783
 9764TIP3    H250784   2.174   1.291  49.704 -0.1416  0.6704  0.7687
 9765TIP3   OH250785   2.364   1.220  15.738 -0.1116 -0.4868 -0.4932
 9765TIP3    H150786   2.397   1.152  15.679  2.2944  0.0285  0.1884
 9765TIP3    H250787   2.430   1.289  15.736 -3.3559  2.9390 -2.7536
 9766TIP3   OH250788   3.189   1.761  50.218 -0.2800 -0.5642  0.1781
 9766TIP3    H150789   3.137   1.817  50.160  0.5412  0.1132  0.0569
 9766TIP3    H250790   3.279   1.770  50.184 -0.1004 -1.7896  0.2972
 9767TIP3   OH250791   0.722   1.896  17.501 -0.4646 -0.5401  0.0349
 9767TIP3    H150792   0.731   1.979  17.454 -0.6106 -0.9118 -0.6593
 9767TIP3    H250793   0.629   1.875  17.496 -0.1938 -1.5833 -1.2807
 9768TIP3   OH250794   3.048   1.484  14.355  0.6870  0.2356  0.1227
 9768TIP3    H150795   3.109   1.410  14.352 -0.7241 -0.9682  0.0950
 9768TIP3    H250796   3.053   1.516  14.445 -0.8637 -1.8316  1.0074
 9769TIP3   OH250797   2.390   2.219  19.653  0.3789 -0.0650 -0.5754
 9769TIP3    H150798   2.296   2.219  19.634 -0.2117  4.6547  1.0024
 9769TIP3    H250799   2.395   2.212  19.748  1.5816  0.2553 -0.5973
 9770TIP3   OH250800   3.424   2.968  55.416  0.2627 -0.0443  0.4422
 9770TIP3    H150801   3.330   2.985  55.408 -0.1966 -1.7021  1.7587
 9770TIP3    H250802   3.456   2.971  55.326 -0.9344  1.0243  0.0097
 9771TIP3   OH250803   2.906   2.987  48.969 -0.3382 -0.4258  0.2964
 9771TIP3    H150804   2.987   2.955  48.928 -0.0651  0.6895 -0.0639
 9771TIP3    H250805   2.877   2.914  49.024  1.4403 -0.5075  1.1850
 9772TIP3   OH250806   2.332   3.407   6.145  0.3022 -0.0456  0.2720
 9772TIP3    H150807   2.318   3.500   6.125  0.4824  0.0297  0.5002
 9772TIP3    H250808   2.320   3.401   6.239  1.6313 -0.0171  0.4546
 9773TIP3   OH250809   0.720   0.137  63.726  0.0281 -0.3448 -0.1593
 9773TIP3    H150810   0.715   0.180  63.811 -0.1516  0.4361 -0.5518
 9773TIP3    H250811   0.734   0.045  63.746 -2.8209 -0.6915  0.8217
 9774TIP3   OH250812   0.138   1.074  58.977 -0.3885 -0.4153 -0.3168
 9774TIP3    H150813   0.144   1.167  58.998 -0.2267 -0.5879  0.4163
 9774TIP3    H250814   0.066   1.069  58.914 -0.6044  0.1735 -0.1279
 9775TIP3   OH250815   1.361   0.059   1.937  0.0717  0.4539  0.2482
 9775TIP3    H150816   1.395  -0.016   1.985  0.6296  0.3868 -0.2485
 9775TIP3    H250817   1.280   0.081   1.983  0.3930  0.1503  0.9861
 9776TIP3   OH250818   2.714   2.968  25.917  0.2180  0.2835 -0.0418
 9776TIP3    H150819   2.724   3.060  25.891 -0.4454  0.5836  0.7297
 9776TIP3    H250820   2.674   2.972  26.004  2.0700 -0.7097  0.9096
 9777TIP3   OH250821   3.165   1.885  66.412  0.5973  0.3910  0.5035
 9777TIP3    H150822   3.145   1.947  66.342 -2.3371 -0.4678  0.4464
 9777TIP3    H250823   3.157   1.936  66.493 -1.6945  0.2158  0.4514
 9778TIP3   OH250824   3.413   3.068   3.093 -0.0481  0.3691 -0.0189
 9778TIP3    H150825   3.414   3.163   3.103  2.0925  0.5384 -1.3028
 9778TIP3    H250826   3.339   3.050   3.035 -2.3451  0.8802  2.5397
 9779TIP3   OH250827   0.638   3.314  44.030  0.6199 -0.2444  0.0716
 9779TIP3    H150828   0.586   3.257  44.088 -1.7780  1.0145 -0.7130
 9779TIP3    H250829   0.723   3.271  44.025  0.0092 -1.9161  2.2275
 9780TIP3   OH250830   1.369   1.257  62.596 -0.1716 -0.1132 -0.2520
 9780TIP3    H150831   1.419   1.188  62.552 -0.0584 -0.1954  0.0089
 9780TIP3    H250832   1.369   1.330  62.533 -1.8707 -0.9784 -1.3219
 9781TIP3   OH250833   2.327   0.290  14.030  0.0289 -0.3633 -0.1116
 9781TIP3    H150834   2.401   0.273  14.088 -0.2573  0.8702  0.6593
 9781TIP3    H250835   2.352   0.251  13.946  1.7397  0.3891  0.0073
 9782TIP3   OH250836   1.919   1.851  12.199 -0.1395 -0.1922  1.0542
 9782TIP3    H150837   1.835   1.811  12.177  0.0446  0.1536 -0.3807
 9782TIP3    H250838   1.900   1.945  12.204  0.6005  0.1830 -1.8263
 9783TIP3   OH250839   0.267   0.084   3.947 -0.2867  0.4127 -0.7766
 9783TIP3    H150840   0.251   0.136   4.025 -1.6458  0.3567 -0.9900
 9783TIP3    H250841   0.304   0.002   3.979  0.3410  0.8737 -0.3086
 9784TIP3   OH250842   1.689   2.056  60.236 -0.3528  0.3861 -0.6554
 9784TIP3    H150843   1.629   1.989  60.269  1.5178 -0.1688  1.9973
 9784TIP3    H250844   1.683   2.127  60.299  0.6155  0.9959 -1.2194
 9785TIP3   OH250845   3.228   2.013  63.442  0.4992 -0.4091 -0.4306
 9785TIP3    H150846   3.247   1.988  63.533 -0.2214  1.3721  0.2664
 9785TIP3    H250847   3.287   1.960  63.389  1.6688 -0.7553  1.1497
 9786TIP3   OH250848   0.715   1.341  54.505  0.1401  0.1170  0.0268
 9786TIP3    H150849   0.715   1.422  54.455  0.9473 -0.1580 -0.4524
 9786TIP3    H250850   0.782   1.354  54.572 -0.1174  0.0507  0.2987
 9787TIP3   OH250851   0.659   2.296   1.642  0.3835 -0.0079  0.3341
 9787TIP3    H150852   0.710   2.376   1.630  1.3803 -0.9414 -2.6453
 9787TIP3    H250853   0.568   2.325   1.644  0.7708  1.2768  0.1872
 9788TIP3   OH250854   2.270   2.699  52.961  0.2284  0.1468  0.1796
 9788TIP3    H150855   2.331   2.684  52.888 -0.4032 -0.0225 -0.3199
 9788TIP3    H250856   2.326   2.728  53.033  0.9774 -0.6089 -0.0799
 9789TIP3   OH250857   3.224   1.008  11.220  0.6588 -0.4329 -0.3680
 9789TIP3    H150858   3.160   1.068  11.181  0.3753 -0.1410  0.5390
 9789TIP3    H250859   3.264   1.058  11.290  1.6069 -0.7535 -0.6745
 9790TIP3   OH250860   3.285   0.047  16.452  0.3469  0.1422  0.2037
 9790TIP3    H150861   3.345  -0.027  16.459 -0.7356 -0.8418 -0.4850
 9790TIP3    H250862   3.211   0.024  16.509  0.1737  0.8636  0.2753
 9791TIP3   OH250863   2.427   2.667  43.119 -0.2327 -0.0884 -0.3918
 9791TIP3    H150864   2.485   2.591  43.124  0.6234  0.5438 -0.6569
 9791TIP3    H250865   2.398   2.681  43.209  0.4730 -0.0589 -0.1699
 9792TIP3   OH250866   0.801   2.109  49.903 -0.3148 -0.3922  0.0763
 9792TIP3    H150867   0.873   2.132  49.844  0.4373 -2.9178 -0.0871
 9792TIP3    H250868   0.722   2.136  49.856  0.4052  0.3655 -0.7397
 9793TIP3   OH250869   2.956   1.425  27.732  0.2070  0.1861 -0.0552
 9793TIP3    H150870   3.043   1.411  27.769  0.2485 -1.3120 -0.6698
 9793TIP3    H250871   2.919   1.337  27.723 -1.5999  0.8074  0.6942
 9794TIP3   OH250872   2.467   1.679  18.655  0.4935  0.2013 -0.0506
 9794TIP3    H150873   2.442   1.771  18.655 -0.5547 -0.0668  0.2211
 9794TIP3    H250874   2.384   1.631  18.657  1.0149 -0.7508 -0.2472
 9795TIP3   OH250875   1.809   2.869  53.701 -0.2705 -0.2008 -0.1372
 9795TIP3    H150876   1.810   2.953  53.655 -2.3343 -0.8086 -1.4407
 9795TIP3    H250877   1.796   2.804  53.632 -2.7386 -1.2152  1.1575
 9796TIP3   OH250878   0.122   3.210   0.420 -0.1354  0.1351  0.3233
 9796TIP3    H150879   0.149   3.213   0.328  0.4470  0.0081  0.4878
 9796TIP3    H250880   0.201   3.231   0.469 -0.7493  1.4481  0.7657
 9797TIP3   OH250881   2.313   1.566   6.539  0.2903  0.4177  0.5087
 9797TIP3    H150882   2.400   1.555   6.576  1.7655  0.7423 -2.5519
 9797TIP3    H250883   2.295   1.483   6.495 -0.6095  0.6209  0.4795
 9798TIP3   OH250884   3.145   0.369  11.908 -0.7437  0.0964 -0.4048
 9798TIP3    H150885   3.200   0.315  11.965 -0.2478  0.3339 -0.6480
 9798TIP3    H250886   3.154   0.458  11.944 -0.2042  0.2965 -1.0127
 9799TIP3   OH250887   1.944   1.098  59.558 -0.0843 -0.3521 -0.2520
 9799TIP3    H150888   2.006   1.137  59.497 -1.5026  1.5131 -0.5667
 9799TIP3    H250889   1.890   1.171  59.588 -0.4369 -1.4699  2.0619
 9800TIP3   OH250890   3.037   1.158   2.455  0.3462 -0.1125 -0.1399
 9800TIP3    H150891   2.992   1.183   2.374 -0.2537 -0.1801  0.1684
 9800TIP3    H250892   3.117   1.210   2.454  0.8811 -0.9117 -1.3105
 9801TIP3   OH250893   1.600   0.267   5.950  0.5162  0.0312  0.1182
 9801TIP3    H150894   1.650   0.348   5.963  1.6808 -0.5536 -0.5635
 9801TIP3    H250895   1.594   0.229   6.038  2.7356 -0.7011  0.0005
 9802TIP3   OH250896   0.980   2.951  64.171  0.2873 -0.0926  0.5001
 9802TIP3    H150897   1.074   2.948  64.192  0.4579 -0.6047 -0.2741
 9802TIP3    H250898   0.971   2.891  64.096 -0.5035  0.6673 -0.0251
 9803TIP3   OH250899   2.584   0.186  60.893  0.3356  0.7069 -0.0813
 9803TIP3    H150900   2.499   0.142  60.884  0.8497 -1.0926  2.5361
 9803TIP3    H250901   2.563   0.270  60.933 -0.3700  1.3940 -1.8038
 9804TIP3   OH250902   0.198   1.718  14.803  0.1620  0.2567  0.2420
 9804TIP3    H150903   0.124   1.776  14.818  1.6056  2.1571  0.4051
 9804TIP3    H250904   0.243   1.756  14.727  0.3867 -1.4855 -0.5409
 9805TIP3   OH250905   2.473   0.573  21.504 -0.5105  0.3686  0.3983
 9805TIP3    H150906   2.436   0.593  21.418  1.4919  0.5064 -0.4887
 9805TIP3    H250907   2.437   0.641  21.561 -0.5870  1.2863 -0.6892
 9806TIP3   OH250908   2.744   0.261  20.407  0.1697 -0.1182  0.4972
 9806TIP3    H150909   2.658   0.276  20.369  0.0552 -1.9102 -0.0396
 9806TIP3    H250910   2.749   0.166  20.418  1.9063 -0.0099  0.9096
 9807TIP3   OH250911   3.082   0.880  56.373 -0.6722  0.7238 -0.4735
 9807TIP3    H150912   3.024   0.834  56.312  0.5022 -1.1233 -0.2525
 9807TIP3    H250913   3.161   0.898  56.322 -0.6158  1.3663 -0.1736
 9808TIP3   OH250914   2.042   0.442  48.171 -0.0886  0.1591  0.2266
 9808TIP3    H150915   2.102   0.369  48.154  0.3302  0.8272 -1.2675
 9808TIP3    H250916   2.098   0.518  48.181 -0.6103  0.5424  0.2996
 9809TIP3   OH250917   1.675   1.788  47.496 -0.4439 -0.0061 -0.5027
 9809TIP3    H150918   1.751   1.734  47.477 -0.1849  0.2924 -0.3346
 9809TIP3    H250919   1.660   1.776  47.590  1.4724  2.5164  0.2394
 9810TIP3   OH250920   1.021   0.708  60.465  0.6922  0.3960 -0.5176
 9810TIP3    H150921   1.021   0.802  60.447  1.1536  0.5661  0.3174
 9810TIP3    H250922   0.929   0.686  60.479  0.7011  0.9740  0.5069
 9811TIP3   OH250923   0.322   0.026   4.293  0.4754  0.5911  0.0809
 9811TIP3    H150924   0.416   0.038   4.277  0.5005  0.9255  0.4455
 9811TIP3    H250925   0.318  -0.022   4.376  0.3208  1.5176  0.6293
 9812TIP3   OH250926   2.619   2.557  15.070 -0.9070  0.9162  0.0648
 9812TIP3    H150927   2.667   2.565  15.153 -0.2816 -0.9295 -0.0735
 9812TIP3    H250928   2.597   2.464  15.064 -0.3179  0.8657 -2.1586
 9813TIP3   OH250929   2.186   2.341  57.998 -0.3058 -0.3045  0.2777
 9813TIP3    H150930   2.161   2.361  58.088 -0.7583 -1.1803  0.3590
 9813TIP3    H250931   2.273   2.379  57.988  0.1353 -0.9606  1.3707
 9814TIP3   OH250932   3.226   0.302  16.579  0.0408 -0.2275 -0.0631
 9814TIP3    H150933   3.238   0.286  16.485  0.8364 -0.5835  0.0901
 9814TIP3    H250934   3.288   0.242  16.621  2.0626  2.1395  0.6009
 9815TIP3   OH250935   0.433   2.237  63.920 -0.1111 -0.5308  0.2358
 9815TIP3    H150936   0.528   2.223  63.928 -0.1010 -0.8436 -0.3593
 9815TIP3    H250937   0.424   2.330  63.902  0.0946 -0.5210  0.1737
 9816TIP3   OH250938   2.448   0.833  61.885  0.3298  0.2102 -0.0838
 9816TIP3    H150939   2.405   0.765  61.833 -1.2659  0.8471  0.3560
 9816TIP3    H250940   2.526   0.790  61.921  1.1326 -0.4302 -2.4205
 9817TIP3   OH250941   0.740   2.308  20.573  0.6609 -0.7788  0.1666
 9817TIP3    H150942   0.673   2.255  20.617 -0.4967  0.9579  0.5751
 9817TIP3    H250943   0.784   2.246  20.515  1.1993 -2.8355  2.5638
 9818TIP3   OH250944   1.751   1.235  16.185  0.2870 -0.0876 -0.1646
 9818TIP3    H150945   1.711   1.160  16.139 -0.1959 -0.3261  0.6213
 9818TIP3    H250946   1.844   1.227  16.167  0.0798 -0.0233 -1.3216
 9819TIP3   OH250947   2.897   0.295  55.918  0.1641  0.1493 -0.0662
 9819TIP3    H150948   2.851   0.369  55.879  1.8719  1.2070 -0.1535
 9819TIP3    H250949   2.990   0.312  55.902  0.6159 -2.1256 -0.2893
 9820TIP3   OH250950   1.386   2.233  46.301 -0.2578  0.0099  0.1341
 9820TIP3    H150951   1.412   2.147  46.270  1.7115  0.5208  0.2183
 9820TIP3    H250952   1.463   2.266  46.347  0.1729  2.9882 -2.3923
 9821TIP3   OH250953   3.432   0.340   2.017  0.6331  0.7816  0.2779
 9821TIP3    H150954   3.411   0.322   2.109  1.9537  1.5364  0.7512
 9821TIP3    H250955   3.354   0.383   1.983  0.1865  0.6484  1.0940
 9822TIP3   OH250956   1.557   1.095  14.705  0.0855 -0.2308  0.5755
 9822TIP3    H150957   1.636   1.140  14.736  0.3426 -0.9377  0.9830
 9822TIP3    H250958   1.488   1.122  14.765  0.5725 -1.5607  1.7970
 9823TIP3   OH250959   2.449   1.822  66.331 -0.0469  0.0917  0.0541
 9823TIP3    H150960   2.464   1.895  66.272  1.4052  0.7219  1.1285
 9823TIP3    H250961   2.357   1.799  66.319  0.4602 -0.6421 -3.3188
 9824TIP3   OH250962   2.180   0.717   5.556  0.2592  0.8149  0.7191
 9824TIP3    H150963   2.177   0.640   5.613  1.0226  0.5598  0.4366
 9824TIP3    H250964   2.112   0.775   5.590 -1.6962 -0.7867 -0.2489
 9825TIP3   OH250965   2.410   1.971   4.195 -0.0537 -0.4978 -0.7581
 9825TIP3    H150966   2.340   2.027   4.162 -0.0909 -1.2999 -2.1182
 9825TIP3    H250967   2.388   1.883   4.164 -0.2545 -1.4114  1.7344
 9826TIP3   OH250968   3.286   0.650  56.285 -0.4826  0.5202  0.2467
 9826TIP3    H150969   3.300   0.715  56.216  0.1485  1.4961  1.2731
 9826TIP3    H250970   3.343   0.677  56.357  0.7454 -1.8710  0.2668
 9827TIP3   OH250971   1.010   0.458  48.953  0.1980 -0.1635 -0.2977
 9827TIP3    H150972   1.032   0.365  48.945  1.4786  0.1281 -0.2479
 9827TIP3    H250973   0.928   0.459  49.003  1.1506 -1.1819  1.3667
 9828TIP3   OH250974   0.602   2.806  59.884 -0.3960  0.2734 -0.2209
 9828TIP3    H150975   0.576   2.721  59.918  0.9071 -0.5417 -1.1904
 9828TIP3    H250976   0.520   2.845  59.853 -0.8128 -1.2822 -1.1590
 9829TIP3   OH250977   3.217   1.918   3.501 -0.6457  0.1842  0.3409
 9829TIP3    H150978   3.281   1.862   3.457 -2.2948 -0.4157 -1.4242
 9829TIP3    H250979   3.177   1.861   3.567 -0.2676  0.1946  0.5856
 9830TIP3   OH250980   0.096   1.487  46.813  0.0618 -0.0921 -0.2819
 9830TIP3    H150981   0.004   1.502  46.790  0.1171  0.5045 -0.1535
 9830TIP3    H250982   0.143   1.500  46.731 -0.0084 -0.8275 -0.4389
 9831TIP3   OH250983   1.081   0.725  48.814  0.5438 -0.5054 -0.4442
 9831TIP3    H150984   1.080   0.814  48.848 -0.6369 -0.5387 -0.3587
 9831TIP3    H250985   1.052   0.671  48.888  1.2712 -0.9689 -0.4856
 9832TIP3   OH250986   2.124   3.021  52.299 -0.0044  0.1491  0.0866
 9832TIP3    H150987   2.162   3.092  52.246 -1.2470 -0.2082 -1.3425
 9832TIP3    H250988   2.075   3.067  52.368 -0.3258  0.6867 -0.4820
 9833TIP3   OH250989   2.938   2.667  64.847  0.5350  0.0408 -0.3798
 9833TIP3    H150990   3.032   2.655  64.834  0.3980 -0.9487 -0.4792
 9833TIP3    H250991   2.932   2.705  64.935  0.9684 -0.9212  0.0766
 9834TIP3   OH250992   1.343   2.500  51.118  0.0619  0.2684 -0.0816
 9834TIP3    H150993   1.421   2.447  51.133  0.6748  0.3773 -2.5532
 9834TIP3    H250994   1.366   2.586  51.152  1.3702  0.5180 -1.5071
 9835TIP3   OH250995   1.884   2.823   5.380 -0.1622  0.1462  0.0957
 9835TIP3    H150996   1.894   2.748   5.320 -1.0918  0.5884 -0.6266
 9835TIP3    H250997   1.859   2.783   5.464 -0.9962 -0.3411 -0.3743
 9836TIP3   OH250998   2.816   1.309   0.389  0.7100  0.6000  0.4461
 9836TIP3    H150999   2.721   1.302   0.395  0.7024  0.4784  0.2339
 9836TIP3    H251000   2.836   1.277   0.300  0.7000  3.1277 -0.5476
 9837TIP3   OH251001   0.104   0.765   6.121  0.4309  0.0526  0.2261
 9837TIP3    H151002   0.143   0.841   6.076 -1.4907  0.5677 -0.6581
 9837TIP3    H251003   0.035   0.735   6.062 -0.5949 -0.7568  1.7756
 9838TIP3   OH251004   2.750   0.050  29.141  0.3987 -0.7830 -0.1581
 9838TIP3    H151005   2.757   0.110  29.215 -0.9818 -0.0685 -0.5680
 9838TIP3    H251006   2.830   0.063  29.091  1.2591 -1.1350  1.0827
 9839TIP3   OH251007   2.484   2.808  44.914  0.0226 -0.5445 -0.2416
 9839TIP3    H151008   2.441   2.754  44.981  1.3973 -0.7022  0.5579
 9839TIP3    H251009   2.578   2.795  44.930  0.4087  1.9524 -0.1190
 9840TIP3   OH251010   2.398   2.095   6.334 -0.5703 -0.4685  0.0838
 9840TIP3    H151011   2.331   2.102   6.266 -0.4814 -0.0464  0.0327
 9840TIP3    H251012   2.479   2.123   6.290 -0.6141  0.3645  0.5086
 9841TIP3   OH251013   2.882   1.108  65.097  0.0594  0.2043 -0.1956
 9841TIP3    H151014   2.825   1.082  65.025 -0.7412  1.0445  0.1023
 9841TIP3    H251015   2.822   1.146  65.162  0.7733 -0.4240  0.8478
 9842TIP3   OH251016   2.432   1.920  49.152  0.3652 -0.2330 -0.4258
 9842TIP3    H151017   2.413   1.833  49.186 -0.5002 -0.2121 -0.8334
 9842TIP3    H251018   2.346   1.957  49.130  0.4600  1.6660  1.9835
 9843TIP3   OH251019   2.807   1.512   5.704 -0.0141  0.1957  0.3258
 9843TIP3    H151020   2.789   1.581   5.640 -0.3657  0.6682  0.9227
 9843TIP3    H251021   2.732   1.452   5.696 -0.6883  0.9015  1.1362
 9844TIP3   OH251022   3.227   1.269  14.958  0.0707 -0.0516  0.1024
 9844TIP3    H151023   3.197   1.180  14.938  0.3802  0.0150 -0.7031
 9844TIP3    H251024   3.169   1.298  15.029  1.1019 -1.5277  1.6212
 9845TIP3   OH251025   1.941   1.208  64.469  0.0198  0.2504  0.0919
 9845TIP3    H151026   1.909   1.235  64.555 -1.9276 -0.6874 -0.2846
 9845TIP3    H251027   1.864   1.209  64.413  0.9863 -0.4821 -1.3198
 9846TIP3   OH251028   2.075   0.384  45.229  0.6952  0.1881 -0.1496
 9846TIP3    H151029   2.141   0.421  45.287  0.4311 -2.3173  1.9388
 9846TIP3    H251030   1.998   0.440  45.242  1.5437  1.4864 -0.5010
 9847TIP3   OH251031   1.642   1.490  11.365  0.5096  0.2782  0.3303
 9847TIP3    H151032   1.658   1.464  11.455  1.0229 -0.6031 -0.0045
 9847TIP3    H251033   1.701   1.564  11.350 -1.1256  1.8913  1.3581
 9848TIP3   OH251034   0.844   1.782   3.773  0.1346 -0.2134  0.3647
 9848TIP3    H151035   0.913   1.760   3.709 -0.6877 -0.7225 -0.3635
 9848TIP3    H251036   0.817   1.698   3.809 -1.1713 -0.1771 -0.4888
 9849TIP3   OH251037   0.801   2.397   9.821  0.0239 -0.0202 -0.1581
 9849TIP3    H151038   0.831   2.390   9.731  0.2458  0.7148 -0.1497
 9849TIP3    H251039   0.705   2.403   9.815  0.1305  2.3703 -0.5408
 9850TIP3   OH251040   1.214   1.664  37.000 -0.5561 -0.1037  0.4557
 9850TIP3    H151041   1.301   1.643  37.034 -0.9070  0.9092  2.0535
 9850TIP3    H251042   1.214   1.759  36.991 -1.1523 -0.1825 -0.5585
 9851TIP3   OH251043   0.939   0.627  49.292  0.8889  0.1605  0.2075
 9851TIP3    H151044   0.894   0.568  49.352 -0.0925  1.0686  0.3807
 9851TIP3    H251045   0.963   0.702  49.346  1.0998  0.4409 -0.2698
 9852TIP3   OH251046   1.549   0.269   4.188 -0.4761 -0.1164 -0.4649
 9852TIP3    H151047   1.551   0.231   4.276 -2.1750  1.3141  0.2492
 9852TIP3    H251048   1.547   0.363   4.203 -1.9860  0.1268 -1.9867
 9853TIP3   OH251049   1.467   2.441  39.615  0.0110 -0.0301  0.2957
 9853TIP3    H151050   1.518   2.513  39.653 -0.3659  0.3840  0.0292
 9853TIP3    H251051   1.380   2.451  39.652  0.1656 -0.8624  0.9073
 9854TIP3   OH251052   2.941   1.257  46.281  0.0624 -0.0248  0.4782
 9854TIP3    H151053   3.026   1.216  46.267 -0.4453 -1.7420  1.9378
 9854TIP3    H251054   2.878   1.192  46.250 -0.7407  1.2016 -0.5354
 9855TIP3   OH251055   1.203   2.296   6.785  0.2914 -0.0790 -0.1050
 9855TIP3    H151056   1.288   2.338   6.769  0.9145 -1.0846  0.4187
 9855TIP3    H251057   1.158   2.355   6.844  0.0467  1.1487 -1.4692
 9856TIP3   OH251058   0.648   3.191  14.578 -0.0523 -0.6312 -0.0665
 9856TIP3    H151059   0.614   3.123  14.636  1.0360 -2.3391 -1.3295
 9856TIP3    H251060   0.742   3.175  14.574 -0.1573 -1.0953 -2.8170
 9857TIP3   OH251061   1.968   2.590  63.493 -0.0302  0.8250 -0.1924
 9857TIP3    H151062   1.935   2.645  63.564 -0.5108 -0.8763  0.9676
 9857TIP3    H251063   1.931   2.628  63.414 -0.1868  2.2595  0.5384
 9858TIP3   OH251064   2.338   2.718  52.489  0.4210 -0.1562 -0.6641
 9858TIP3    H151065   2.384   2.668  52.556  0.0661  1.9971  1.3093
 9858TIP3    H251066   2.246   2.715  52.516  0.2411  0.5748 -1.1580
 9859TIP3   OH251067   2.528   3.379  55.840 -0.1562 -0.0447  0.1154
 9859TIP3    H151068   2.536   3.286  55.861 -0.2895 -0.2012 -0.5251
 9859TIP3    H251069   2.574   3.389  55.757  0.0134  0.4994  0.2727
 9860TIP3   OH251070   1.944   0.491   9.642  0.4842  0.2326 -0.0537
 9860TIP3    H151071   1.894   0.563   9.681 -0.8878  0.2944 -1.7782
 9860TIP3    H251072   1.895   0.412   9.665  1.6459 -0.1070  1.3160
 9861TIP3   OH251073   1.337   0.971  16.245 -0.0563  0.1872 -0.2533
 9861TIP3    H151074   1.275   1.037  16.213  0.0930  0.3101 -0.2858
 9861TIP3    H251075   1.328   0.898  16.184 -0.1246  0.2295 -0.2943
 9862TIP3   OH251076   1.562   1.742  46.285 -0.8233  0.2639 -0.4885
 9862TIP3    H151077   1.542   1.812  46.222 -0.8771 -0.3879 -1.2190
 9862TIP3    H251078   1.655   1.724  46.273 -0.2861  1.6297  1.2036
 9863TIP3   OH251079   3.104   3.142  19.423  0.2258  0.4233  0.7227
 9863TIP3    H151080   3.060   3.099  19.350 -0.0527 -2.0952  2.2357
 9863TIP3    H251081   3.037   3.146  19.492  1.6367 -1.3376  2.2849
 9864TIP3   OH251082   1.805   3.062  15.478 -0.4373  0.0330  0.7665
 9864TIP3    H151083   1.881   3.029  15.429 -0.9229 -1.9140  1.2332
 9864TIP3    H251084   1.799   3.004  15.554 -2.2790  0.2663  0.8386
 9865TIP3   OH251085   1.126   2.243   6.477 -0.0770 -0.3479 -0.2906
 9865TIP3    H151086   1.133   2.272   6.569  1.0556  0.2227 -0.5426
 9865TIP3    H251087   1.151   2.151   6.479 -0.1293 -0.3580 -0.0145
 9866TIP3   OH251088   0.223   1.386  30.232  0.1700  0.7401 -0.1753
 9866TIP3    H151089   0.181   1.314  30.185  0.9240  0.2540 -0.1239
 9866TIP3    H251090   0.275   1.430  30.165  0.2186  0.8473 -0.0677
 9867TIP3   OH251091   2.667   0.374  15.584  0.4245 -0.3338 -1.1834
 9867TIP3    H151092   2.614   0.339  15.513  1.0321 -1.2310 -1.2088
 9867TIP3    H251093   2.746   0.319  15.586  0.3496 -0.4480  0.2867
 9868TIP3   OH251094   0.829   2.893  53.293 -0.0126  0.4344  0.0370
 9868TIP3    H151095   0.778   2.813  53.304  0.6216  0.1290  0.8621
 9868TIP3    H251096   0.825   2.911  53.199  0.6570 -1.1353 -0.3335
 9869TIP3   OH251097   0.611   2.820  34.709 -0.1217 -0.6183  0.4816
 9869TIP3    H151098   0.660   2.875  34.770 -1.1696 -1.0192  1.7466
 9869TIP3    H251099   0.576   2.749  34.764 -2.7947  0.0838 -0.1796
 9870TIP3   OH251100   0.582   2.039  14.186 -0.1998 -0.0952 -0.5261
 9870TIP3    H151101   0.666   2.084  14.184 -0.7398  1.0245  0.1307
 9870TIP3    H251102   0.572   2.001  14.099  0.7264  0.2477 -0.7926
 9871TIP3   OH251103   0.677   1.483   5.245  0.1109 -0.3839 -0.2887
 9871TIP3    H151104   0.720   1.568   5.238  1.3641 -0.9847 -0.1104
 9871TIP3    H251105   0.637   1.469   5.159  1.0080 -0.1962 -0.7399
 9872TIP3   OH251106   1.931   3.169  63.860 -0.1212  0.1415 -0.4240
 9872TIP3    H151107   1.943   3.250  63.810  1.4431 -0.3763 -0.9564
 9872TIP3    H251108   1.836   3.159  63.868 -0.3700  1.0955 -1.8608
 9873TIP3   OH251109   1.744   1.272  14.792  0.3244 -0.2751 -0.6383
 9873TIP3    H151110   1.751   1.251  14.885  3.0049 -0.8702 -0.8845
 9873TIP3    H251111   1.699   1.356  14.789  3.2220  1.5192  1.5147
 9874TIP3   OH251112   2.873   1.196   1.597  0.4411 -0.2118  0.6624
 9874TIP3    H151113   2.864   1.260   1.667  0.6746  0.2115  0.3129
 9874TIP3    H251114   2.861   1.247   1.516 -1.0591 -0.8920  0.4075
 9875TIP3   OH251115   2.717   1.422  22.389  0.1779 -0.1176  0.6347
 9875TIP3    H151116   2.748   1.339  22.354 -0.0274 -0.3261  0.9390
 9875TIP3    H251117   2.652   1.398  22.455 -0.9739  0.3246 -0.3167
 9876TIP3   OH251118   1.923   1.263   8.541 -0.2535  0.5157 -0.4435
 9876TIP3    H151119   1.912   1.342   8.489 -2.5021  0.7751  0.3002
 9876TIP3    H251120   1.985   1.287   8.610  3.1196  0.0283 -3.0749
 9877TIP3   OH251121   1.483   3.342   2.149 -0.4014  0.1624 -0.1272
 9877TIP3    H151122   1.553   3.345   2.214 -1.8597  2.6934  1.5166
 9877TIP3    H251123   1.431   3.265   2.174  0.8141 -0.7482 -0.3289
 9878TIP3   OH251124   3.192   1.350  47.065  0.4271  0.1853 -0.1539
 9878TIP3    H151125   3.268   1.295  47.046  1.1515  1.1369 -0.1187
 9878TIP3    H251126   3.121   1.311  47.015  0.8442 -0.9480  0.1072
 9879TIP3   OH251127   0.921   0.994   8.743  0.2240  0.4625 -0.1065
 9879TIP3    H151128   0.965   1.069   8.781  0.2009 -0.8496  2.7679
 9879TIP3    H251129   0.833   0.995   8.782 -0.4413 -0.0316 -1.5000
 9880TIP3   OH251130   0.978   0.145  10.260  0.6484  0.1617  0.2735
 9880TIP3    H151131   0.933   0.166  10.178 -0.6457  0.5594  1.0542
 9880TIP3    H251132   1.070   0.164  10.242  0.2066  1.6526 -0.6588
 9881TIP3   OH251133   2.924   2.394  27.230 -0.2199 -0.7107  0.2946
 9881TIP3    H151134   2.989   2.460  27.204  0.0576 -0.6674  1.0654
 9881TIP3    H251135   2.851   2.445  27.264 -1.9511 -0.6080 -3.1859
 9882TIP3   OH251136   3.128   3.039  58.807 -0.2979 -0.0108 -0.1213
 9882TIP3    H151137   3.145   2.951  58.774  1.1317  0.7144 -1.4838
 9882TIP3    H251138   3.062   3.075  58.748  0.3244  0.3769 -0.5988
 9883TIP3   OH251139   2.091   2.595  49.591 -0.1534 -0.8129  0.3196
 9883TIP3    H151140   2.099   2.680  49.548  1.6714 -1.7309 -1.3282
 9883TIP3    H251141   2.170   2.588  49.645 -0.0334 -1.6584  0.0479
 9884TIP3   OH251142   2.013   2.866  56.076 -0.2812  0.1035  0.0712
 9884TIP3    H151143   2.106   2.848  56.075 -0.0971  0.7655  1.8022
 9884TIP3    H251144   2.006   2.960  56.061 -0.5562  0.3038  1.3194
 9885TIP3   OH251145   2.919   1.466  54.263  0.0981 -0.1513 -0.5242
 9885TIP3    H151146   2.885   1.445  54.176 -1.0187 -1.2181  0.1340
 9885TIP3    H251147   3.010   1.492  54.248  0.1537 -1.0459 -1.9270
 9886TIP3   OH251148   1.808   3.201  17.810 -0.3902 -0.2053 -0.1809
 9886TIP3    H151149   1.784   3.215  17.902 -1.1452 -0.4604 -0.3297
 9886TIP3    H251150   1.785   3.110  17.793  1.4194 -0.7131 -0.1406
 9887TIP3   OH251151   2.278   2.719  12.672 -0.3084  0.5366  0.3105
 9887TIP3    H151152   2.272   2.811  12.698  1.4708  1.5331 -2.3702
 9887TIP3    H251153   2.212   2.709  12.604 -0.7709 -0.2978  0.8788
 9888TIP3   OH251154   3.046   0.146  51.991  0.0675 -0.1639 -0.1618
 9888TIP3    H151155   2.954   0.169  51.974  0.2313 -0.2537 -1.2380
 9888TIP3    H251156   3.096   0.212  51.943  0.5547 -1.6331 -1.7728
 9889TIP3   OH251157   0.783   1.863  16.264 -0.2338 -0.2966  0.3278
 9889TIP3    H151158   0.707   1.920  16.275 -1.4183 -2.1628  2.9969
 9889TIP3    H251159   0.840   1.885  16.339 -0.8447 -2.6572  1.5843
 9890TIP3   OH251160   2.052   2.421  59.873  0.1589 -0.0825 -0.1433
 9890TIP3    H151161   2.073   2.486  59.806 -0.7051 -0.3664 -0.7201
 9890TIP3    H251162   1.969   2.451  59.911  0.8613  0.3146  1.1352
 9891TIP3   OH251163   2.381   0.629  10.047 -0.5420  0.4555 -0.2883
 9891TIP3    H151164   2.381   0.724  10.035 -1.0180  0.4340 -0.4822
 9891TIP3    H251165   2.294   0.601  10.017 -0.2232 -0.1034 -0.7124
 9892TIP3   OH251166   2.858   1.643  11.483 -0.4666 -0.4951  0.0123
 9892TIP3    H151167   2.871   1.734  11.456 -0.6178 -1.0737 -2.2220
 9892TIP3    H251168   2.893   1.640  11.572 -0.3121  1.7012  0.0995
 9893TIP3   OH251169   1.225   2.527   0.947  0.1615 -0.2203  0.0643
 9893TIP3    H151170   1.142   2.549   0.906  0.1940  0.5919  0.4204
 9893TIP3    H251171   1.233   2.432   0.937 -0.0216 -0.0932 -1.4228
 9894TIP3   OH251172   3.314   1.594  47.900  0.0404 -0.3888 -0.0300
 9894TIP3    H151173   3.339   1.552  47.818  1.2954 -0.1860  0.2254
 9894TIP3    H251174   3.375   1.667  47.909 -0.6430  0.1180  0.6626
 9895TIP3   OH251175   0.169   2.595  50.786 -0.0329  0.0386  0.2110
 9895TIP3    H151176   0.110   2.636  50.723  0.2933 -1.1109 -0.8622
 9895TIP3    H251177   0.208   2.669  50.833 -1.1274  0.8696 -0.1438
 9896TIP3   OH251178   3.052   2.295  21.258 -0.0499 -0.0842  0.3359
 9896TIP3    H151179   2.962   2.319  21.279 -0.1808 -0.3931  0.1308
 9896TIP3    H251180   3.057   2.303  21.163  0.2948  0.4622  0.3955
 9897TIP3   OH251181   2.536   0.286  16.088 -0.0768  0.0980  0.0659
 9897TIP3    H151182   2.473   0.348  16.051  0.1511  0.7059  0.6792
 9897TIP3    H251183   2.515   0.203  16.045 -0.1909  0.6546 -0.9929
 9898TIP3   OH251184   2.586   1.413   3.830 -0.3591 -0.1562 -0.4112
 9898TIP3    H151185   2.679   1.434   3.832 -0.5668  0.7853 -0.2010
 9898TIP3    H251186   2.582   1.321   3.805  0.5777  0.0796 -1.4425
 9899TIP3   OH251187   0.864   2.132  65.928 -0.7743  0.4571 -0.8699
 9899TIP3    H151188   0.839   2.222  65.950 -2.8870 -0.2861  0.0950
 9899TIP3    H251189   0.808   2.109  65.854 -0.8137 -0.3012 -0.6149
 9900TIP3   OH251190   2.660   2.649  57.891  0.1527  0.5541 -0.1872
 9900TIP3    H151191   2.750   2.653  57.859 -0.1431 -0.3149 -1.1534
 9900TIP3    H251192   2.667   2.673  57.984  1.6342 -1.2418  0.2197
 9901TIP3   OH251193   2.023   3.380  62.027  0.3720 -0.2367  0.1970
 9901TIP3    H151194   2.083   3.433  61.975 -1.5487  1.1949 -0.6902
 9901TIP3    H251195   1.995   3.311  61.968 -0.0214  0.0067  0.0979
 9902TIP3   OH251196   0.598   2.176  15.365  0.0765 -0.0326  0.2118
 9902TIP3    H151197   0.547   2.101  15.337  0.8751 -1.2369  1.7935
 9902TIP3    H251198   0.556   2.205  15.446 -0.5349  1.5897 -0.6427
 9903TIP3   OH251199   0.875   2.374  21.371  0.2020  0.5235  0.3019
 9903TIP3    H151200   0.856   2.287  21.406 -1.8615  1.5652  1.9820
 9903TIP3    H251201   0.852   2.368  21.278 -0.8125 -0.4729  0.6018
 9904TIP3   OH251202   2.386   2.075   5.035  0.3304  0.4186 -0.0156
 9904TIP3    H151203   2.422   2.005   4.980  1.3321  0.6637  0.2892
 9904TIP3    H251204   2.367   2.033   5.119 -2.6791 -0.3085 -0.9607
 9905TIP3   OH251205   2.996   3.372  29.723 -0.0401  0.2352  0.2166
 9905TIP3    H151206   2.969   3.421  29.801  0.8776  0.5474  0.3410
 9905TIP3    H251207   2.918   3.321  29.700 -0.2904  0.0377  1.4126
 9906TIP3   OH251208   0.593   1.489  55.836  0.3673  0.0324  0.1310
 9906TIP3    H151209   0.500   1.516  55.836 -0.0630 -1.3935 -0.1970
 9906TIP3    H251210   0.626   1.521  55.752 -0.3427 -1.0686 -0.5947
 9907TIP3   OH251211   2.679   3.406  60.730  0.7633 -0.4486 -0.0716
 9907TIP3    H151212   2.775   3.406  60.721  0.9257  3.3645 -0.0282
 9907TIP3    H251213   2.659   3.491  60.770 -2.7129 -0.7076 -0.9676
 9908TIP3   OH251214   1.039   3.283   9.565  0.1670  0.2023  0.1381
 9908TIP3    H151215   1.107   3.266   9.630 -0.1191  0.1552  0.4290
 9908TIP3    H251216   1.083   3.334   9.497  0.6450 -0.3473  0.0243
 9909TIP3   OH251217   0.047   2.321   2.335  0.2799 -0.4247  0.4014
 9909TIP3    H151218   0.117   2.259   2.315 -0.3140 -1.3491  1.0946
 9909TIP3    H251219   0.059   2.341   2.428  0.0380 -0.0527  0.3522
 9910TIP3   OH251220   0.428   1.928   7.645 -0.5038 -0.2553 -0.5779
 9910TIP3    H151221   0.385   1.998   7.693 -0.5305 -2.1074  2.3574
 9910TIP3    H251222   0.355   1.877   7.608 -0.6732 -0.6763  0.3003
 9911TIP3   OH251223   1.478   3.238  60.733  0.2771 -0.2206  0.4693
 9911TIP3    H151224   1.453   3.164  60.676  1.8201  0.1771 -0.7968
 9911TIP3    H251225   1.463   3.206  60.822 -3.7247 -0.3546 -0.0402
 9912TIP3   OH251226   0.725   2.231  66.829  0.1929  0.1797 -0.0252
 9912TIP3    H151227   0.745   2.219  66.922 -0.5333  0.1406  0.1361
 9912TIP3    H251228   0.808   2.255  66.789  0.4239  0.6600  0.7175
 9913TIP3   OH251229   2.090   2.682   5.075 -0.8011  0.2334  0.1482
 9913TIP3    H151230   2.133   2.767   5.083  0.5026 -0.2685 -1.1297
 9913TIP3    H251231   2.147   2.622   5.123 -1.1925 -0.0992  0.2028
 9914TIP3   OH251232   2.952   0.595  65.873 -0.7988  0.7224  0.2958
 9914TIP3    H151233   2.970   0.688  65.865 -0.9240  0.6465 -1.1203
 9914TIP3    H251234   3.033   0.552  65.845 -0.8077  0.4116  0.7470
 9915TIP3   OH251235   2.432   2.247  63.586  0.1554 -0.0902  0.0316
 9915TIP3    H151236   2.411   2.301  63.663  0.0997 -0.2005  0.0926
 9915TIP3    H251237   2.393   2.294  63.512 -1.2150 -0.8021  0.2558
 9916TIP3   OH251238   0.595   0.893  44.998 -0.0546  0.1228  0.0755
 9916TIP3    H151239   0.563   0.944  44.924  0.5125 -1.1990 -1.1080
 9916TIP3    H251240   0.516   0.858  45.039 -0.5406  2.5203  1.4327
 9917TIP3   OH251241   1.119   2.307  63.929  0.0462 -0.3570 -0.7526
 9917TIP3    H151242   1.162   2.227  63.899  0.3479 -0.1228 -0.9576
 9917TIP3    H251243   1.035   2.278  63.964  0.1491 -0.7611 -0.8359
 9918TIP3   OH251244   1.033   3.165  47.038 -0.8886  0.4058  0.1175
 9918TIP3    H151245   1.062   3.170  46.947 -2.0752  1.1641 -0.2478
 9918TIP3    H251246   1.045   3.073  47.063  0.4412  0.4158 -0.4487
 9919TIP3   OH251247   1.465   2.992  12.733 -0.7631  0.4573 -0.1301
 9919TIP3    H151248   1.425   3.039  12.806 -0.4232 -0.4598  0.6660
 9919TIP3    H251249   1.559   3.007  12.743 -0.6328 -0.5022  0.2420
 9920TIP3   OH251250   2.036   2.276  57.778  0.0456 -0.0036 -0.3913
 9920TIP3    H151251   2.098   2.248  57.711  0.8687  1.9207 -0.4918
 9920TIP3    H251252   2.089   2.283  57.858 -0.5130 -0.3774  0.0209
 9921TIP3   OH251253   0.639   1.513  43.100 -0.2425  0.3290 -1.2335
 9921TIP3    H151254   0.664   1.486  43.188 -0.6171  1.1677 -0.8542
 9921TIP3    H251255   0.583   1.442  43.067 -0.0661 -0.0043 -0.8153
 9922TIP3   OH251256   1.768   0.736  48.219 -0.2216 -0.1213  0.0762
 9922TIP3    H151257   1.859   0.761  48.230 -0.4554  1.7669 -1.7181
 9922TIP3    H251258   1.766   0.689  48.135 -1.0168  0.5773 -0.3048
 9923TIP3   OH251259   2.995   1.032  62.183 -0.1776  0.0385 -0.1685
 9923TIP3    H151260   3.081   1.042  62.144  0.8222 -1.4525  1.5272
 9923TIP3    H251261   2.990   1.101  62.250  0.0205 -0.3545  0.2548
 9924TIP3   OH251262   0.934   1.755  10.471 -0.0104  0.1073  0.3575
 9924TIP3    H151263   0.997   1.806  10.523  0.6854  1.2512 -1.5063
 9924TIP3    H251264   0.859   1.814  10.459 -0.5226 -0.4527  0.7351
 9925TIP3   OH251265   2.852   0.413  48.248 -0.5160  0.0026 -0.5719
 9925TIP3    H151266   2.821   0.324  48.231  0.1510 -0.5614  0.9399
 9925TIP3    H251267   2.806   0.468  48.184 -0.7028 -1.4598 -1.7352
 9926TIP3   OH251268   0.652   2.165  52.304  0.5391  0.4006  1.0469
 9926TIP3    H151269   0.591   2.191  52.372  1.7919  1.9542  1.6126
 9926TIP3    H251270   0.690   2.083  52.335 -0.8239 -0.3025  0.9311
 9927TIP3   OH251271   0.080   3.444  30.551  0.1248 -0.0451  0.4785
 9927TIP3    H151272   0.002   3.454  30.605 -0.3897  0.4865 -0.3518
 9927TIP3    H251273   0.055   3.478  30.465  1.0808 -0.4271  0.0326
 9928TIP3   OH251274   0.000   0.355  61.670 -0.1325  0.0464  0.9681
 9928TIP3    H151275   0.096   0.351  61.667  0.0600  0.6263  3.5953
 9928TIP3    H251276  -0.027   0.264  61.679  0.0881 -0.1785 -0.3837
 9929TIP3   OH251277   2.112   1.865  43.172 -0.3809  0.1271 -0.3012
 9929TIP3    H151278   2.162   1.890  43.095 -0.2991  2.4748  0.4467
 9929TIP3    H251279   2.034   1.920  43.169 -0.9471 -0.5791  0.6877
 9930TIP3   OH251280   1.386   1.443   0.705 -0.3642  0.1159  0.0390
 9930TIP3    H151281   1.308   1.439   0.760  0.2919 -1.4393  0.9133
 9930TIP3    H251282   1.357   1.412   0.619 -0.6660 -0.7409  0.4387
 9931TIP3   OH251283   3.426   3.093  44.291  0.1756 -0.6113  0.2757
 9931TIP3    H151284   3.490   3.117  44.224 -0.3345  1.9737  0.6255
 9931TIP3    H251285   3.470   3.026  44.344  1.7021 -0.5228 -0.8321
 9932TIP3   OH251286   1.426   1.508  51.384 -0.2535 -0.4436 -0.5795
 9932TIP3    H151287   1.437   1.503  51.479  0.5950  0.3357 -0.6242
 9932TIP3    H251288   1.365   1.581  51.370  0.7739  0.4270 -0.6777
 9933TIP3   OH251289   0.061   0.422  62.842  0.2259  0.0779 -0.0553
 9933TIP3    H151290   0.026   0.466  62.919 -0.2342  1.3191 -0.9278
 9933TIP3    H251291   0.137   0.475  62.816  0.3181 -0.2639 -0.5068
 9934TIP3   OH251292   1.095   2.539  39.112 -0.5191  0.2911 -0.4888
 9934TIP3    H151293   1.112   2.633  39.123  0.1660  0.1002  0.1932
 9934TIP3    H251294   1.048   2.533  39.028 -0.2096  1.2014 -0.7453
 9935TIP3   OH251295   2.835   1.783   7.491  0.2224  0.1206 -0.2918
 9935TIP3    H151296   2.842   1.878   7.498  2.4768 -0.1165  2.4314
 9935TIP3    H251297   2.816   1.754   7.580  1.0126 -2.0672 -0.7794
 9936TIP3   OH251298   0.517   3.323   8.297 -0.0549  0.4445 -0.0782
 9936TIP3    H151299   0.499   3.293   8.386  1.2205  0.7264  0.2917
 9936TIP3    H251300   0.604   3.290   8.277  1.0302  2.9999 -0.0072
 9937TIP3   OH251301   0.568   0.960  57.385 -0.1567  0.1488 -0.2289
 9937TIP3    H151302   0.623   1.038  57.397  0.4072 -0.4931  1.7586
 9937TIP3    H251303   0.479   0.992  57.398  0.2033  0.1034  3.4077
 9938TIP3   OH251304   2.181   2.001   1.442  0.3803 -0.4508  0.1361
 9938TIP3    H151305   2.090   1.981   1.420  0.6481  0.9320 -2.7373
 9938TIP3    H251306   2.225   2.003   1.357  2.7331  0.6206  1.3208
 9939TIP3   OH251307   3.360   0.985  21.520 -0.1946 -0.4371  0.4787
 9939TIP3    H151308   3.298   0.924  21.561 -0.4449  0.1402  0.9623
 9939TIP3    H251309   3.418   1.013  21.591  0.5496 -0.8645  0.0609
 9940TIP3   OH251310   1.261   1.886  54.112 -0.3083 -0.0152  0.1922
 9940TIP3    H151311   1.256   1.848  54.024 -1.1029  1.9526 -0.6797
 9940TIP3    H251312   1.354   1.910  54.122 -0.0315 -1.0957  0.2883
 9941TIP3   OH251313   2.531   1.565  55.287 -0.1375 -0.0464  0.4206
 9941TIP3    H151314   2.463   1.600  55.230  0.6337 -0.4297 -0.7605
 9941TIP3    H251315   2.542   1.474  55.258  0.3857 -0.2019  1.0790
 9942TIP3   OH251316   2.186   0.926  59.540  0.1859 -0.3571 -0.1964
 9942TIP3    H151317   2.266   0.877  59.561  0.2597 -0.1634 -0.0261
 9942TIP3    H251318   2.186   1.000  59.601  0.2548  0.0510 -0.6876
 9943TIP3   OH251319   0.973   0.597   5.408  0.4770  0.5368 -0.0792
 9943TIP3    H151320   1.005   0.603   5.318  0.7054  0.0483 -0.0382
 9943TIP3    H251321   0.955   0.687   5.434 -1.4721  0.5293 -1.2764
 9944TIP3   OH251322   3.170   2.380   3.618 -0.8105  0.6719  0.1860
 9944TIP3    H151323   3.116   2.302   3.614 -0.5997  0.4911  0.7333
 9944TIP3    H251324   3.248   2.352   3.666  0.3483  0.5843 -1.6298
 9945TIP3   OH251325   0.841   2.041   8.123  0.3704 -0.4585 -0.3598
 9945TIP3    H151326   0.876   2.088   8.199  1.0698  0.8489 -1.4405
 9945TIP3    H251327   0.919   2.008   8.077 -0.1153 -3.6034  0.8633
 9946TIP3   OH251328   1.475   1.499  44.168 -0.6548  0.3496  0.4973
 9946TIP3    H151329   1.442   1.503  44.257  2.3840  0.8862  1.6962
 9946TIP3    H251330   1.548   1.437  44.172 -0.2785  0.5753 -1.5734
 9947TIP3   OH251331   2.808   2.513  21.565 -0.0974 -0.0139  0.2175
 9947TIP3    H151332   2.830   2.588  21.620 -0.5880  0.2549  0.0611
 9947TIP3    H251333   2.826   2.437  21.619 -2.5674  0.2501  1.5862
 9948TIP3   OH251334   0.779   0.438  49.108 -0.1399  0.5338  0.0752
 9948TIP3    H151335   0.840   0.417  49.179  1.7426  0.7188 -1.3989
 9948TIP3    H251336   0.735   0.518  49.137  0.8486  0.8083  0.8748
 9949TIP3   OH251337   2.174   1.420  50.129 -0.3030  0.2037  0.4163
 9949TIP3    H151338   2.241   1.473  50.171 -0.5552  0.6981  0.2062
 9949TIP3    H251339   2.214   1.334  50.118  0.3267  0.5146  0.2298
 9950TIP3   OH251340   1.583   0.597  54.503  0.7427 -0.2545  0.1487
 9950TIP3    H151341   1.534   0.519  54.529 -1.6635  1.0172 -0.3344
 9950TIP3    H251342   1.632   0.569  54.425  1.0618 -1.6400  0.8153
 9951TIP3   OH251343   3.090   0.574  48.784 -0.0715 -0.2926  0.1584
 9951TIP3    H151344   3.122   0.607  48.867  0.2604 -1.1412  0.3754
 9951TIP3    H251345   3.025   0.639  48.756  0.8336  0.7374  0.3720
 9952TIP3   OH251346   2.335   2.750  47.218  0.1491 -0.2617  0.6348
 9952TIP3    H151347   2.399   2.679  47.225  1.7078  1.1786  2.0540
 9952TIP3    H251348   2.289   2.749  47.302 -0.5306 -0.1910  0.2741
 9953TIP3   OH251349   2.600   2.036  62.693  0.2464  0.3422 -0.0208
 9953TIP3    H151350   2.683   2.014  62.651 -1.6725 -1.6502 -3.1874
 9953TIP3    H251351   2.590   2.130  62.681  1.6146  0.4654 -0.3451
 9954TIP3   OH251352   2.434   1.183  52.231  0.3272  0.1709 -0.5947
 9954TIP3    H151353   2.379   1.249  52.188  0.4592  0.5935 -0.1169
 9954TIP3    H251354   2.522   1.218  52.227  0.1516  0.9138  1.3102
 9955TIP3   OH251355   0.710   1.805   5.451  0.3188  0.4339  0.1419
 9955TIP3    H151356   0.753   1.811   5.366  1.9378 -2.1604  0.6356
 9955TIP3    H251357   0.616   1.807   5.432  0.6331  2.1983 -1.4192
 9956TIP3   OH251358   1.112   1.982  59.729  0.6452  0.3772  0.2705
 9956TIP3    H151359   1.089   2.061  59.779  1.9777  0.0739  1.4314
 9956TIP3    H251360   1.040   1.971  59.668  0.4198  2.4965  0.0749
 9957TIP3   OH251361   0.796   2.622  13.171  0.1491 -0.6420  0.4699
 9957TIP3    H151362   0.765   2.581  13.090 -3.6943  0.7234  1.0624
 9957TIP3    H251363   0.827   2.548  13.225 -2.0596 -2.2510 -0.3227
 9958TIP3   OH251364   1.871   1.638   1.051 -0.0429 -0.0918  0.7640
 9958TIP3    H151365   1.847   1.546   1.056  2.0867 -0.8731 -1.7417
 9958TIP3    H251366   1.828   1.677   1.128 -0.9642 -3.1188  1.9510
 9959TIP3   OH251367   1.106   2.139  59.186 -0.0142 -0.1212 -0.3738
 9959TIP3    H151368   1.018   2.107  59.167 -0.9714  0.7052  2.1570
 9959TIP3    H251369   1.112   2.221  59.137 -0.6624 -0.1748 -0.5569
 9960TIP3   OH251370   1.755   0.235  15.188  0.0490 -0.0056 -0.1032
 9960TIP3    H151371   1.777   0.323  15.220 -0.1076 -0.5172  1.4779
 9960TIP3    H251372   1.821   0.217  15.121  1.9662  0.1322  1.6615
 9961TIP3   OH251373   2.963   2.725  59.437  0.2977 -0.2151 -0.2440
 9961TIP3    H151374   3.033   2.790  59.440 -0.7887  0.9484  0.4825
 9961TIP3    H251375   2.940   2.719  59.344 -1.3887  2.4792 -0.0995
 9962TIP3   OH251376   3.193   1.904  22.145  0.0202  0.2712 -0.8146
 9962TIP3    H151377   3.106   1.871  22.168  1.1454 -1.2734  1.8121
 9962TIP3    H251378   3.248   1.826  22.144  2.1427  1.5143  2.0297
 9963TIP3   OH251379   3.432   3.387   3.783  0.2745  0.7770  0.0749
 9963TIP3    H151380   3.474   3.424   3.861  0.1026 -0.2344  0.6615
 9963TIP3    H251381   3.348   3.432   3.778 -0.5904 -0.5467  1.6714
 9964TIP3   OH251382   1.062   0.103   7.775  0.0957  0.3773  0.0137
 9964TIP3    H151383   1.016   0.172   7.727 -0.6364 -0.4935 -0.5832
 9964TIP3    H251384   1.154   0.114   7.750 -0.0522  0.9414 -0.3058
 9965TIP3   OH251385   2.327   1.202  11.668  0.6529  0.5433 -0.1687
 9965TIP3    H151386   2.351   1.295  11.672 -0.6973  0.8720  1.2711
 9965TIP3    H251387   2.390   1.159  11.726 -0.1727  0.9504  1.0891
 9966TIP3   OH251388   2.559   2.300  62.604 -0.3099 -0.0844  0.0246
 9966TIP3    H151389   2.651   2.310  62.578 -0.3544 -0.9576 -0.5091
 9966TIP3    H251390   2.511   2.296  62.521 -0.7041 -0.7229  0.2747
 9967TIP3   OH251391   0.035   3.163  48.252 -0.2489  0.0512 -0.3389
 9967TIP3    H151392   0.046   3.214  48.333  1.2175 -0.1842 -0.3575
 9967TIP3    H251393   0.052   3.226  48.182  0.6543 -0.2236 -0.3863
 9968TIP3   OH251394   1.101   1.909  12.421  0.5929  0.2661  0.5558
 9968TIP3    H151395   1.144   1.852  12.485 -0.6618 -1.8564 -0.3698
 9968TIP3    H251396   1.011   1.917  12.453 -1.2202 -3.8900 -2.4798
 9969TIP3   OH251397   0.517   2.745  19.068  0.0445  0.1009 -0.3711
 9969TIP3    H151398   0.425   2.722  19.053 -0.0649  1.0373 -1.2464
 9969TIP3    H251399   0.549   2.678  19.129 -1.6641  0.6711  1.2477
 9970TIP3   OH251400   0.570   1.984  18.934 -0.3394  0.0648 -0.1061
 9970TIP3    H151401   0.637   1.920  18.911  0.3688  0.8089 -0.1906
 9970TIP3    H251402   0.504   1.976  18.864 -0.9893 -1.5301  0.6356
 9971TIP3   OH251403   0.043   0.603  65.425  0.1434 -0.8964  0.0686
 9971TIP3    H151404   0.055   0.508  65.417  0.2848 -0.8938  0.2317
 9971TIP3    H251405   0.057   0.637  65.337  0.9046 -0.9461  0.1582
 9972TIP3   OH251406   2.382   1.029  56.568 -0.2929 -0.3330  0.1249
 9972TIP3    H151407   2.383   1.002  56.477 -1.5507 -1.6648  0.4642
 9972TIP3    H251408   2.417   0.954  56.616  1.3238  0.7247  0.6931
 9973TIP3   OH251409   1.544   2.323  23.207 -0.1770 -0.1984  0.2164
 9973TIP3    H151410   1.544   2.323  23.111  1.0886  1.7320  0.1532
 9973TIP3    H251411   1.513   2.410  23.230 -0.0996 -0.5101  1.5651
 9974TIP3   OH251412   1.074   3.261  61.001 -0.3123 -0.5323  0.4608
 9974TIP3    H151413   1.140   3.205  61.041  0.1468 -0.3979 -0.0920
 9974TIP3    H251414   1.085   3.248  60.907 -0.5456  0.0863  0.3439
 9975TIP3   OH251415   1.998   2.585   7.787 -0.3052  0.4810  0.7727
 9975TIP3    H151416   1.933   2.633   7.838 -0.0537  2.1795 -0.4163
 9975TIP3    H251417   1.974   2.602   7.696  0.4497 -0.7911  0.3117
 9976TIP3   OH251418   2.179   1.196  60.817  0.2419 -0.0465  0.5819
 9976TIP3    H151419   2.272   1.208  60.798 -0.0769  4.6166  0.7534
 9976TIP3    H251420   2.169   1.221  60.909 -1.0637 -1.8521  0.9893
 9977TIP3   OH251421   2.762   1.980  62.473  0.3050 -0.2950 -0.2975
 9977TIP3    H151422   2.821   2.053  62.454 -1.5460  1.0717 -1.0265
 9977TIP3    H251423   2.771   1.922  62.398 -0.1063  0.4760 -0.9559
 9978TIP3   OH251424   0.893   0.286  18.024 -0.1317  0.0036  0.4092
 9978TIP3    H151425   0.863   0.339  17.950 -0.2290  0.8426  1.0302
 9978TIP3    H251426   0.977   0.325  18.049  1.5487 -2.2842 -1.2781
 9979TIP3   OH251427   3.420   0.021  59.913 -0.0880 -0.4922 -0.2108
 9979TIP3    H151428   3.344   0.036  59.857  0.4854  1.4690 -0.5436
 9979TIP3    H251429   3.456   0.109  59.929  2.1672 -1.3625 -0.1514
 9980TIP3   OH251430   2.630   0.722  43.346 -0.2938  0.4676  0.1064
 9980TIP3    H151431   2.707   0.696  43.397  0.1232  0.0834 -0.7143
 9980TIP3    H251432   2.665   0.778  43.277 -0.8256  0.7393  0.0525
 9981TIP3   OH251433   2.250   0.395  12.086  0.0492  0.0900 -0.0212
 9981TIP3    H151434   2.286   0.483  12.078  0.1761 -0.0284 -0.7536
 9981TIP3    H251435   2.325   0.336  12.077  0.0502 -0.0880  1.0174
 9982TIP3   OH251436   2.049   1.620  51.507  0.2897 -0.6802  0.3354
 9982TIP3    H151437   1.957   1.628  51.480  0.1811 -0.9596  0.6084
 9982TIP3    H251438   2.046   1.563  51.584  0.8656 -2.1356 -0.6737
 9983TIP3   OH251439   2.225   0.329   6.965  0.2529 -0.3978 -0.3720
 9983TIP3    H151440   2.158   0.279   6.918 -0.2377  0.8843 -1.0778
 9983TIP3    H251441   2.256   0.269   7.033 -1.3090 -1.1797 -0.2979
 9984TIP3   OH251442   0.820   2.842  42.646  0.3891  0.2677  0.3259
 9984TIP3    H151443   0.848   2.928  42.615  0.2251 -0.1355 -0.9869
 9984TIP3    H251444   0.770   2.861  42.725  0.3203  1.3808  0.0373
 9985TIP3   OH251445   3.374   1.067  44.544 -0.5881 -0.4605  0.0351
 9985TIP3    H151446   3.433   1.115  44.603 -0.8350 -0.7372  0.5096
 9985TIP3    H251447   3.331   1.002  44.600 -1.1564 -0.4323 -0.3572
 9986TIP3   OH251448   1.473   3.309  14.070  0.3301  0.8968  0.0847
 9986TIP3    H151449   1.489   3.325  14.163 -1.1557  2.2994  0.1478
 9986TIP3    H251450   1.538   3.243  14.046 -1.5639 -2.4144  3.0131
 9987TIP3   OH251451   3.342   3.009  14.912 -0.1680 -0.2178 -0.2379
 9987TIP3    H151452   3.409   2.985  14.976 -1.6307 -0.8945  1.1058
 9987TIP3    H251453   3.293   2.928  14.897 -0.3379  0.1210 -1.6415
 9988TIP3   OH251454   2.137   1.754  44.734  0.3835 -0.1145  0.4891
 9988TIP3    H151455   2.189   1.746  44.653  1.5949  1.6956  1.0205
 9988TIP3    H251456   2.048   1.767  44.703  0.4685 -1.5521 -0.4960
 9989TIP3   OH251457   0.399   2.816  17.013 -0.0640  0.1976 -0.0070
 9989TIP3    H151458   0.382   2.724  16.996  0.0490 -0.1236  1.4403
 9989TIP3    H251459   0.485   2.833  16.974 -0.1711 -0.2587 -0.4422
 9990TIP3   OH251460   2.941   1.540  21.197 -0.1145 -0.2018 -0.0847
 9990TIP3    H151461   2.896   1.560  21.115 -0.9792  0.0927  0.4492
 9990TIP3    H251462   2.920   1.448  21.214 -1.2911  0.1610  0.6049
 9991TIP3   OH251463   2.857   3.122  15.449  0.3120  0.3751  0.4085
 9991TIP3    H151464   2.834   3.034  15.480  0.2991  1.2294  3.0131
 9991TIP3    H251465   2.945   3.112  15.411  0.8760 -0.5268  1.8828
 9992TIP3   OH251466   0.711   0.560  53.314 -0.3541  0.0453  0.1571
 9992TIP3    H151467   0.786   0.556  53.372 -0.2371  0.5711  0.0477
 9992TIP3    H251468   0.687   0.468  53.299 -1.4837 -0.0841  2.4195
 9993TIP3   OH251469   1.525   0.665   6.478  0.3939 -0.1624  0.3575
 9993TIP3    H151470   1.573   0.650   6.559  0.8681 -1.0519 -0.0812
 9993TIP3    H251471   1.437   0.690   6.506  0.5660 -0.4328  1.1443
 9994TIP3   OH251472   0.022   3.436  17.877 -0.1508  0.5005 -0.6284
 9994TIP3    H151473  -0.009   3.486  17.953  1.7618  0.6889  0.0768
 9994TIP3    H251474   0.074   3.499  17.827  0.5645 -0.2472 -0.8362
 9995TIP3   OH251475   2.155   1.487  14.144  0.0003  0.0181 -0.0843
 9995TIP3    H151476   2.179   1.469  14.234 -1.0625  1.6788  0.5838
 9995TIP3    H251477   2.078   1.433  14.128 -0.9320  1.0780  0.6603
 9996TIP3   OH251478   2.978   0.711  14.820 -0.2060 -0.3194 -0.0259
 9996TIP3    H151479   2.922   0.679  14.749 -2.1031  0.2184  1.1590
 9996TIP3    H251480   2.996   0.634  14.874  3.1083 -1.2327 -2.1459
 9997TIP3   OH251481   1.279   2.521  45.259  0.0657 -0.0839 -0.3252
 9997TIP3    H151482   1.214   2.535  45.327 -1.7597 -2.2289 -1.5227
 9997TIP3    H251483   1.298   2.609  45.226  1.3538  1.1106  3.0858
 9998TIP3   OH251484   1.308   0.942  13.236 -0.4107 -0.0902 -0.2096
 9998TIP3    H151485   1.301   0.864  13.291  1.1317 -0.5482 -0.6107
 9998TIP3    H251486   1.226   0.944  13.186 -0.7634 -1.0685  0.3064
 9999TIP3   OH251487   1.990   2.915  46.637 -0.0132  0.3199  0.0524
 9999TIP3    H151488   2.031   2.982  46.692  1.0847 -1.2553  1.2776
 9999TIP3    H251489   2.044   2.912  46.558  1.0212 -0.2639  0.7446
10000TIP3   OH251490   3.169   0.212  50.568  0.2226 -0.1237  0.1769
10000TIP3    H151491   3.124   0.127  50.576 -0.2511 -0.0226 -1.1392
10000TIP3    H251492   3.261   0.192  50.582  0.2628 -1.0828 -1.2525
10001TIP3   OH251493   0.323   2.999   7.473 -0.3056 -0.0779 -0.2712
10001TIP3    H151494   0.297   3.080   7.516 -3.0305 -0.1007 -1.5913
10001TIP3    H251495   0.378   3.027   7.399  0.1701  0.3940  0.2586
10002TIP3   OH251496   2.420   2.728   0.390  0.0413  0.1703  0.1068
10002TIP3    H151497   2.458   2.774   0.315  0.2268 -0.4424 -0.1804
10002TIP3    H251498   2.483   2.742   0.461  1.0686 -1.2393 -0.4932
10003TIP3   OH251499   0.425   1.485  59.507 -0.5698  0.4483 -0.5507
10003TIP3    H151500   0.440   1.447  59.594 -1.3141  0.8628 -0.2252
10003TIP3    H251501   0.392   1.412  59.455  0.1288  0.1349 -0.5668
10004TIP3   OH251502   1.298   0.124  54.653 -0.5558  0.0933 -0.2071
10004TIP3    H151503   1.282   0.185  54.725 -3.2665  0.5091 -1.0411
10004TIP3    H251504   1.210   0.098  54.625  0.3644  0.4624 -3.8075
10005TIP3   OH251505   2.742   1.856  27.604 -0.0774  0.2439 -0.0011
10005TIP3    H151506   2.742   1.933  27.661 -0.7552  1.5539 -1.7030
10005TIP3    H251507   2.830   1.853  27.567  0.1796 -0.2689  0.6161
10006TIP3   OH251508   0.050   3.392  66.845  0.7597  0.1402  0.0036
10006TIP3    H151509   0.043   3.442  66.764 -1.4203  1.0593  0.6937
10006TIP3    H251510  -0.027   3.335  66.845  1.1918 -0.4724  1.0274
10007TIP3   OH251511   0.073   2.206   5.018  0.1893 -0.5924 -0.1989
10007TIP3    H151512   0.155   2.252   5.036  0.5229 -0.1433 -2.5711
10007TIP3    H251513   0.020   2.269   4.968 -1.6467 -0.8650  1.3043
10008TIP3   OH251514   2.064   3.126  55.853  0.2664  0.0247  0.2474
10008TIP3    H151515   2.158   3.145  55.851 -0.0313  1.5439 -0.4966
10008TIP3    H251516   2.034   3.143  55.764 -0.8536  0.3331  0.6714
10009TIP3   OH251517   2.618   0.332  10.353 -0.4250  0.2475  0.0741
10009TIP3    H151518   2.564   0.291  10.286 -1.3110 -1.3327  1.6825
10009TIP3    H251519   2.621   0.424  10.328 -0.9254 -0.2422 -1.9716
10010TIP3   OH251520   3.368   1.810  60.096  0.1284  0.5067 -0.0595
10010TIP3    H151521   3.338   1.773  60.013  0.6866  1.2603 -0.6128
10010TIP3    H251522   3.462   1.791  60.099 -0.2118 -1.2875  1.3653
10011TIP3   OH251523   0.640   0.241   8.437  0.2664 -0.5004 -0.1201
10011TIP3    H151524   0.570   0.209   8.494  0.1425 -0.7144 -0.3879
10011TIP3    H251525   0.597   0.256   8.353 -0.1103  2.2587  0.4856
10012TIP3   OH251526   1.739   2.365  42.379 -0.2592  0.4822  0.1035
10012TIP3    H151527   1.736   2.446  42.429 -0.8385 -1.1211  2.9089
10012TIP3    H251528   1.672   2.309  42.420  0.7540 -1.7187 -1.0675
10013TIP3   OH251529   0.033   2.155  23.022 -0.0321  0.0925 -0.3634
10013TIP3    H151530   0.038   2.196  22.935 -1.5347 -0.2960 -0.6516
10013TIP3    H251531   0.114   2.105  23.029 -0.2633 -0.5581 -1.9137
10014TIP3   OH251532   1.457   1.796   0.765  0.1121  0.1881  0.2234
10014TIP3    H151533   1.448   1.750   0.682 -0.8164  0.3183  0.2358
10014TIP3    H251534   1.490   1.730   0.826 -0.6854 -0.3275  0.1123
10015TIP3   OH251535   1.296   0.867  67.485  0.1260 -0.5823 -0.1829
10015TIP3    H151536   1.358   0.880  67.556  0.5287 -0.1627 -0.6028
10015TIP3    H251537   1.227   0.813  67.523  0.7162 -1.0052  0.3113
10016TIP3   OH251538   3.440   2.013  12.136  0.0535 -0.3623  0.1684
10016TIP3    H151539   3.432   2.070  12.213 -2.8104 -0.0741 -0.2219
10016TIP3    H251540   3.533   2.014  12.115  0.5031  1.9094  1.8697
10017TIP3   OH251541   1.714   2.452  50.323 -0.7271  0.7278  0.3611
10017TIP3    H151542   1.774   2.467  50.396 -1.7947  1.2652  1.1601
10017TIP3    H251543   1.648   2.393  50.358 -0.2324 -0.5769 -0.7758
10018TIP3   OH251544   0.266   3.004  22.058 -0.3832 -0.1068  0.2022
10018TIP3    H151545   0.283   2.976  21.968  0.6906  0.3923  0.2349
10018TIP3    H251546   0.287   3.097  22.059  1.0964 -0.4106  1.3080
10019TIP3   OH251547   2.526   2.764  13.349  0.0506  0.3899 -0.1267
10019TIP3    H151548   2.455   2.750  13.412  0.2388 -1.2339 -0.2370
10019TIP3    H251549   2.483   2.803  13.272 -0.6526 -0.1893 -0.0322
10020TIP3   OH251550   1.221   1.026  35.959 -0.6044 -0.3515  1.0204
10020TIP3    H151551   1.232   0.952  35.899  0.0538 -0.2681  1.0354
10020TIP3    H251552   1.198   1.100  35.902  1.9336  0.2102  0.5833
10021TIP3   OH251553   0.798   3.329  58.387 -0.2327 -0.1409  0.0355
10021TIP3    H151554   0.836   3.273  58.320 -0.7428 -0.1140 -0.2826
10021TIP3    H251555   0.786   3.272  58.463  1.1435  0.0303  0.4050
10022TIP3   OH251556   2.941   2.541  60.847 -0.2361 -0.1531  0.1848
10022TIP3    H151557   2.954   2.455  60.887 -0.5117  0.3021  1.3096
10022TIP3    H251558   2.938   2.601  60.922 -0.9062  0.7219 -0.5290
10023TIP3   OH251559   0.347   1.919  19.804 -0.1530 -0.1188 -0.4446
10023TIP3    H151560   0.275   1.873  19.763  0.9902 -1.1504 -1.3849
10023TIP3    H251561   0.368   1.867  19.882  0.0805 -0.2822 -0.6134
10024TIP3   OH251562   2.247   1.668   5.614  0.0978 -0.1230 -0.4808
10024TIP3    H151563   2.176   1.616   5.577  0.8749 -3.1376  1.8295
10024TIP3    H251564   2.277   1.616   5.689  3.7058  1.7794 -0.4272
10025TIP3   OH251565   2.282   1.284  47.777 -0.4657 -0.3679  0.5090
10025TIP3    H151566   2.282   1.290  47.872  1.6390  1.7662  0.4493
10025TIP3    H251567   2.256   1.371  47.747 -0.3386 -0.7787 -0.8721
10026TIP3   OH251568   0.149   1.054  20.044  0.1591  0.0786  0.0222
10026TIP3    H151569   0.137   1.143  20.010  0.4755 -0.4411 -1.5129
10026TIP3    H251570   0.102   0.998  19.982  0.1483 -0.8560  0.8500
10027TIP3   OH251571   2.433   1.891  20.489  0.0828  0.2645  0.0069
10027TIP3    H151572   2.522   1.924  20.504  0.6321 -1.7724  1.8651
10027TIP3    H251573   2.384   1.921  20.565 -0.2415 -0.3707  0.0525
10028TIP3   OH251574   2.956   2.711  53.206  0.1739 -0.5725  0.2561
10028TIP3    H151575   3.004   2.790  53.183  0.8127 -1.2218 -0.7049
10028TIP3    H251576   2.868   2.725  53.171  0.1121 -0.0365  0.6257
10029TIP3   OH251577   2.330   0.700  47.459 -0.0557 -0.0831 -0.0606
10029TIP3    H151578   2.332   0.710  47.363 -0.6430 -1.0380 -0.1818
10029TIP3    H251579   2.413   0.738  47.488  0.3780 -0.2705 -0.9957
10030TIP3   OH251580   1.297   2.688  48.071 -0.2377 -0.5923  0.0112
10030TIP3    H151581   1.305   2.779  48.040  0.8105 -0.0516  1.7420
10030TIP3    H251582   1.384   2.666  48.104 -1.0251 -1.4487  1.6193
10031TIP3   OH251583   2.907   1.351  58.544  0.3446 -0.2038 -0.8551
10031TIP3    H151584   2.919   1.397  58.461  1.2155  2.5487  0.6707
10031TIP3    H251585   2.814   1.360  58.563  0.3206  0.0461 -1.0813
10032TIP3   OH251586   3.131   3.359  63.401  0.4701 -0.1371  0.1967
10032TIP3    H151587   3.137   3.332  63.310  0.8018 -1.5742  0.6260
10032TIP3    H251588   3.163   3.450  63.401  0.3716 -0.0815 -1.1132
10033TIP3   OH251589   0.422   0.769  64.457  0.5935 -0.5191 -0.1907
10033TIP3    H151590   0.356   0.778  64.388  1.3134 -1.9247 -1.0908
10033TIP3    H251591   0.462   0.856  64.463 -1.0385  0.2469  0.0906
10034TIP3   OH251592   1.330   0.085  60.365  0.1055 -0.5344 -0.1567
10034TIP3    H151593   1.339   0.178  60.385 -1.5217 -0.5862  0.9712
10034TIP3    H251594   1.353   0.041  60.446  0.9709 -1.1479 -0.7151
10035TIP3   OH251595   1.096   2.863  21.312 -0.3837 -0.4573 -0.2877
10035TIP3    H151596   1.163   2.848  21.379 -0.4244  0.1887 -0.0933
10035TIP3    H251597   1.095   2.783  21.260  0.7371 -0.3716 -0.4694
10036TIP3   OH251598   2.672   1.807   0.054 -0.0812  0.0263  0.5401
10036TIP3    H151599   2.626   1.733   0.014  0.7621  0.4266 -1.2528
10036TIP3    H251600   2.656   1.797   0.148  0.8918 -3.0606  0.4819
10037TIP3   OH251601   2.000   2.575  44.183 -0.2763  0.4465  0.5557
10037TIP3    H151602   2.060   2.646  44.204 -0.3909  0.9017 -0.6132
10037TIP3    H251603   1.976   2.588  44.091 -0.0572 -1.2825  0.2071
10038TIP3   OH251604   1.187   2.288  35.265 -0.8370 -0.0551  0.2935
10038TIP3    H151605   1.205   2.250  35.352 -1.2441 -0.9684 -0.0029
10038TIP3    H251606   1.271   2.287  35.220 -0.1969  2.2161  1.3160
10039TIP3   OH251607   0.016   2.355   6.760  0.4895  0.3438 -0.2018
10039TIP3    H151608   0.005   2.318   6.848  3.0877 -1.8154 -0.6639
10039TIP3    H251609  -0.050   2.311   6.706  1.3318 -1.1746 -0.0425
10040TIP3   OH251610   1.483   3.291  51.086 -0.5932 -0.0624  0.6489
10040TIP3    H151611   1.577   3.307  51.079 -0.7443  1.0506  0.9614
10040TIP3    H251612   1.444   3.378  51.076 -1.6703 -0.6988 -0.8723
10041TIP3   OH251613   3.001   0.989  66.592 -0.5622 -0.4015 -0.3277
10041TIP3    H151614   2.925   0.959  66.541  1.0393 -1.3690 -2.2979
10041TIP3    H251615   3.030   1.068  66.546  1.1451 -1.5066 -1.2224
10042TIP3   OH251616   1.928   1.172  46.222  0.3337 -0.3305  0.1366
10042TIP3    H151617   1.905   1.118  46.147 -1.6319  0.0424  0.4381
10042TIP3    H251618   2.013   1.210  46.198  0.9980 -2.2228 -0.7561
10043TIP3   OH251619   0.130   1.164  50.045 -0.5890  0.1368 -0.2248
10043TIP3    H151620   0.146   1.256  50.021  1.6171 -0.4060 -1.0817
10043TIP3    H251621   0.212   1.119  50.023 -1.9159 -2.2246 -0.6762
10044TIP3   OH251622   0.045   0.138  20.043  0.5219  0.6925  0.7332
10044TIP3    H151623   0.017   0.209  20.100  1.8111  0.3511  1.8438
10044TIP3    H251624   0.075   0.069  20.103  2.2201  0.4397 -0.3192
10045TIP3   OH251625   1.336   1.153  42.948 -0.1472  0.0820  0.0058
10045TIP3    H151626   1.421   1.190  42.924 -1.4605  2.9276 -0.6649
10045TIP3    H251627   1.326   1.174  43.041 -0.2092 -0.0762  0.0342
10046TIP3   OH251628   1.290   2.679  66.018 -0.3978  0.0161  0.2424
10046TIP3    H151629   1.337   2.596  66.021 -0.8269 -0.2319  0.2272
10046TIP3    H251630   1.333   2.729  65.949  2.0679  1.1597  2.4343
10047TIP3   OH251631   0.366   0.409  65.879 -0.2914  0.1701  0.3667
10047TIP3    H151632   0.438   0.429  65.820 -0.4103  0.4814  0.3288
10047TIP3    H251633   0.353   0.489  65.930 -0.3650 -0.0083  0.6315
10048TIP3   OH251634   1.333   1.270  21.114 -0.2788 -0.2469 -0.2652
10048TIP3    H151635   1.417   1.229  21.096 -0.9651 -1.7813 -0.0595
10048TIP3    H251636   1.273   1.231  21.051 -1.0707  0.0395  0.3018
10049TIP3   OH251637   1.452   0.106  63.881  0.1998  0.2951  0.5538
10049TIP3    H151638   1.467   0.178  63.942 -3.6788  1.7082  0.1461
10049TIP3    H251639   1.377   0.134  63.829 -0.6395 -3.5048 -0.6181
10050TIP3   OH251640   2.219   2.488  64.590  0.0782  0.6147 -0.1777
10050TIP3    H151641   2.144   2.430  64.577  0.5352  0.3542 -1.9601
10050TIP3    H251642   2.258   2.459  64.672 -0.6525 -0.5189 -0.2156
10051TIP3   OH251643   2.533   0.995  47.142 -0.0952  0.2428 -0.0480
10051TIP3    H151644   2.481   1.011  47.221 -0.7507  0.3609 -0.4988
10051TIP3    H251645   2.624   1.005  47.171 -0.3093 -0.1254  0.7851
10052TIP3   OH251646   1.465   0.014  11.631 -0.1772  0.3141  0.1665
10052TIP3    H151647   1.518  -0.062  11.606 -0.0992  0.1105  0.9235
10052TIP3    H251648   1.381  -0.023  11.658  0.0163  0.4564  0.9691
10053TIP3   OH251649   1.712   1.969   4.411 -0.2450  0.2676 -0.6219
10053TIP3    H151650   1.746   1.942   4.497  1.0979  1.4725 -0.7389
10053TIP3    H251651   1.626   2.007   4.430 -0.2462 -0.0743  0.0890
10054TIP3   OH251652   1.961   0.037  51.895  0.1554 -0.1211  0.2693
10054TIP3    H151653   2.028   0.103  51.880  1.1996 -1.1459  0.2990
10054TIP3    H251654   1.949  -0.005  51.810  0.3365 -0.6604  0.5050
10055TIP3   OH251655   1.823   1.002  46.013  0.4448  0.2568  0.5496
10055TIP3    H151656   1.878   1.046  45.948  0.5697  0.3740  0.7343
10055TIP3    H251657   1.881   0.937  46.053  0.6180  0.7835  1.1555
10056TIP3   OH251658   1.541   1.648  55.066 -0.1117 -0.6270  0.0116
10056TIP3    H151659   1.576   1.620  54.982  0.8134  0.4538  0.0118
10056TIP3    H251660   1.587   1.729  55.086 -1.5182  0.0365  0.7689
10057TIP3   OH251661   2.334   1.554   9.841 -0.2147  0.2400  0.2742
10057TIP3    H151662   2.400   1.519   9.900 -0.2379 -0.7138 -0.2332
10057TIP3    H251663   2.299   1.631   9.885 -0.5017 -0.6638  1.6753
10058TIP3   OH251664   0.487   2.887   6.090 -0.0156 -0.1319 -0.0779
10058TIP3    H151665   0.430   2.945   6.141 -0.7754 -1.6769  0.9108
10058TIP3    H251666   0.519   2.942   6.019 -1.6280  1.1900  0.1431
10059TIP3   OH251667   0.357   0.865  48.279  0.8423 -0.2579 -0.4520
10059TIP3    H151668   0.397   0.778  48.276  1.1810 -0.1096 -3.8925
10059TIP3    H251669   0.431   0.926  48.273  0.6706  0.4232  2.6137
10060TIP3   OH251670   0.052   0.087   6.833 -0.5454  0.1712  0.0154
10060TIP3    H151671   0.144   0.067   6.816 -0.6519 -0.4609  0.1669
10060TIP3    H251672   0.008   0.066   6.751 -0.4998  0.9171 -0.2132
10061TIP3   OH251673   2.435   1.997  62.229  0.1784 -0.2720 -0.4143
10061TIP3    H151674   2.473   1.935  62.292  0.7682 -0.2513 -0.7442
10061TIP3    H251675   2.389   1.942  62.165 -1.9985 -0.2305  1.0024
10062TIP3   OH251676   2.295   1.379  67.493 -0.1809  0.1493 -0.3545
10062TIP3    H151677   2.258   1.306  67.542 -0.4964  0.3086 -0.3515
10062TIP3    H251678   2.265   1.365  67.403 -1.3522  0.9834 -0.1176
10063TIP3   OH251679   1.766   0.566  16.340 -0.0443  0.1881  0.2113
10063TIP3    H151680   1.825   0.543  16.412 -1.2810 -2.1150  0.5923
10063TIP3    H251681   1.707   0.632  16.378  0.9660  0.9631  0.4611
10064TIP3   OH251682   2.008   0.029  19.283  0.1275 -0.3427  0.3369
10064TIP3    H151683   1.988   0.006  19.193 -1.6903 -0.9862  0.8602
10064TIP3    H251684   2.085   0.086  19.277 -0.1733 -0.0789 -1.6375
10065TIP3   OH251685   2.733   2.802   3.011  0.1815 -0.2290  0.6814
10065TIP3    H151686   2.710   2.819   3.103  1.8804  2.9060  0.6548
10065TIP3    H251687   2.801   2.866   2.991  0.2825 -1.2051 -2.6418
10066TIP3   OH251688   3.393   2.588  21.862  0.0266 -0.1423 -0.0085
10066TIP3    H151689   3.394   2.653  21.932  1.2052 -0.0133 -0.1160
10066TIP3    H251690   3.354   2.510  21.902 -2.7142  0.9886 -0.2739
10067TIP3   OH251691   1.276   0.233   5.907  0.4176  0.4605 -0.0431
10067TIP3    H151692   1.207   0.275   5.856 -0.1607 -0.1545  0.2061
10067TIP3    H251693   1.342   0.300   5.918 -0.8342  1.5842  1.0373
10068TIP3   OH251694   1.885   0.402  60.869 -0.2482 -0.0119 -0.0319
10068TIP3    H151695   1.968   0.415  60.823 -0.6337 -1.4033 -1.1908
10068TIP3    H251696   1.907   0.413  60.961  0.9938  0.7249 -0.3939
10069TIP3   OH251697   2.313   2.876  14.741 -0.4497  0.2136 -0.0169
10069TIP3    H151698   2.286   2.785  14.730 -0.6926  0.1607  0.9443
10069TIP3    H251699   2.270   2.923  14.669  0.2372 -0.5283 -0.9407
10070TIP3   OH251700   0.227   0.291  64.462 -0.0212  0.5373  0.3139
10070TIP3    H151701   0.147   0.327  64.423  0.0234  0.0227 -0.2563
10070TIP3    H251702   0.264   0.235  64.394  0.4227  0.1759  0.8499
10071TIP3   OH251703   0.047   0.003  15.111 -0.2535 -0.9910  0.0981
10071TIP3    H151704  -0.038  -0.030  15.141 -2.1811  2.6454 -0.8178
10071TIP3    H251705   0.098   0.016  15.191 -1.0263 -2.0135  0.7720
10072TIP3   OH251706   0.361   2.512  46.700  0.1296 -0.4023 -0.1080
10072TIP3    H151707   0.424   2.527  46.629  1.3659 -0.0740  1.0051
10072TIP3    H251708   0.363   2.418  46.715  0.4064 -0.3860 -0.0375
10073TIP3   OH251709   1.501   2.985  62.154 -0.5022  0.6419 -0.3201
10073TIP3    H151710   1.540   2.987  62.067 -3.1076  2.6428 -1.5947
10073TIP3    H251711   1.421   2.934  62.144 -0.8484  0.9001  0.8827
10074TIP3   OH251712   0.562   3.024  11.521 -0.2509  0.1144 -0.6434
10074TIP3    H151713   0.657   3.025  11.521 -0.1881 -1.6695  0.1162
10074TIP3    H251714   0.539   2.934  11.496 -1.7135  0.1867  0.3295
10075TIP3   OH251715   0.002   1.682  30.336  0.3890 -0.6149  0.2147
10075TIP3    H151716   0.017   1.604  30.389  1.1794 -0.4434  0.2588
10075TIP3    H251717   0.067   1.745  30.368 -0.5397  0.2263  0.5028
10076TIP3   OH251718   1.789   0.073  59.077  0.2101  0.0780  0.3033
10076TIP3    H151719   1.833   0.041  58.998 -1.5855  4.4018 -2.8513
10076TIP3    H251720   1.860   0.108  59.131  1.3356 -1.3473 -0.1764
10077TIP3   OH251721   2.524   0.130  46.132  0.5294 -0.1713 -0.3873
10077TIP3    H151722   2.549   0.095  46.047  1.4570  1.4465 -0.8191
10077TIP3    H251723   2.605   0.169  46.167 -0.5354  2.0600 -0.2423
10078TIP3   OH251724   2.776   2.934  14.829 -0.7829 -0.2328  0.1208
10078TIP3    H151725   2.712   2.950  14.759 -0.1778 -0.2241 -0.4378
10078TIP3    H251726   2.724   2.936  14.909 -1.5196 -0.4002 -0.3357
10079TIP3   OH251727   1.938   2.032  52.681  0.2412  0.2234 -0.6470
10079TIP3    H151728   1.858   2.084  52.693  0.6527  0.9027 -0.7917
10079TIP3    H251729   2.006   2.083  52.724  0.6623 -0.1862 -0.8208
10080TIP3   OH251730   1.872   0.806  54.321 -0.2285  0.1023 -0.2734
10080TIP3    H151731   1.940   0.838  54.261 -0.0524  0.5737  0.1757
10080TIP3    H251732   1.809   0.877  54.325 -0.7339 -0.3162 -0.6533
10081TIP3   OH251733   2.592   0.804  59.355 -0.3635  0.2046  0.0457
10081TIP3    H151734   2.557   0.795  59.266  0.7550  1.0158 -0.4882
10081TIP3    H251735   2.634   0.890  59.357  2.5255 -1.1062  0.3063
10082TIP3   OH251736   0.025   2.362  49.579  0.0187  0.3186 -0.2864
10082TIP3    H151737  -0.019   2.445  49.561  0.1578 -0.1093 -3.0375
10082TIP3    H251738   0.084   2.350  49.504  3.0472 -0.3218  2.0261
10083TIP3   OH251739   1.712   0.725  18.450 -0.5469 -0.7386  0.3735
10083TIP3    H151740   1.736   0.810  18.413  0.1322 -1.1659 -0.1720
10083TIP3    H251741   1.656   0.748  18.525 -0.3562  0.1885  0.2527
10084TIP3   OH251742   0.070   2.020  45.797 -0.1351  0.2135  0.0406
10084TIP3    H151743  -0.010   2.055  45.837  0.5279  0.0683  1.5238
10084TIP3    H251744   0.091   2.083  45.728 -0.6049  1.1585  0.7366
10085TIP3   OH251745   0.118   0.918  11.198 -0.3809 -0.9052 -0.8440
10085TIP3    H151746   0.043   0.964  11.237  1.6494  1.3136  0.6819
10085TIP3    H251747   0.124   0.955  11.109 -1.3965 -1.5173 -1.1841
10086TIP3   OH251748   2.879   0.996  17.632 -0.3344  0.4830  0.2608
10086TIP3    H151749   2.822   1.071  17.649  0.4877  1.2799 -0.3853
10086TIP3    H251750   2.924   0.980  17.715 -1.1907  0.1089  0.6555
10087TIP3   OH251751   1.374   0.099   2.506  0.5452 -0.3104 -0.4352
10087TIP3    H151752   1.406   0.189   2.511  0.5350 -0.3287  0.0074
10087TIP3    H251753   1.395   0.071   2.417 -0.8920  0.6575 -1.1029
10088TIP3   OH251754   3.189   3.297  54.812  0.3781  0.3157 -0.5053
10088TIP3    H151755   3.171   3.294  54.718 -0.4388  1.4927 -0.3966
10088TIP3    H251756   3.103   3.311  54.852  0.8450  0.7602  0.3583
10089TIP3   OH251757   0.159   3.358  64.275  0.3641  0.0156 -0.5318
10089TIP3    H151758   0.247   3.371  64.311  0.9197  3.5981 -2.6845
10089TIP3    H251759   0.173   3.353  64.180 -1.5941 -2.1102 -0.7686
10090TIP3   OH251760   2.414   2.591   9.766  0.1671 -0.7713  0.3784
10090TIP3    H151761   2.346   2.568   9.703  0.4386 -0.1977 -0.1371
10090TIP3    H251762   2.407   2.525   9.835  0.3130 -1.8160 -0.5845
10091TIP3   OH251763   1.342   1.724   5.768  0.1512  0.2461  0.1972
10091TIP3    H151764   1.434   1.733   5.742  0.0294 -3.4938 -2.3459
10091TIP3    H251765   1.293   1.743   5.688 -0.9326 -2.2320  0.1878
10092TIP3   OH251766   0.469   1.703  45.367 -0.7082 -0.1174  0.4393
10092TIP3    H151767   0.434   1.731  45.283  1.9913  1.4184 -0.2853
10092TIP3    H251768   0.475   1.783  45.419 -1.1226 -0.8414  1.6651
10093TIP3   OH251769   2.214   3.291  64.652  0.5471 -0.2376 -0.1593
10093TIP3    H151770   2.120   3.307  64.657  0.5756 -0.2597  3.4731
10093TIP3    H251771   2.221   3.195  64.646  0.3427 -0.2613 -0.0275
10094TIP3   OH251772   3.419   3.069  47.378  0.1477  0.2807 -0.2728
10094TIP3    H151773   3.406   2.977  47.400  1.0502  0.7367  2.4567
10094TIP3    H251774   3.354   3.116  47.430  1.4966  1.3539  0.5132
10095TIP3   OH251775   2.963   3.404  17.160  0.2380 -0.2961 -0.3089
10095TIP3    H151776   2.916   3.487  17.153  1.5262  0.4308 -0.6667
10095TIP3    H251777   3.030   3.408  17.092  2.4585 -0.1608  1.7250
10096TIP3   OH251778   1.600   0.891  22.149 -0.0231 -0.4103 -0.1231
10096TIP3    H151779   1.631   0.827  22.086 -0.9436 -1.0313  0.0278
10096TIP3    H251780   1.542   0.842  22.207 -0.2736  0.4339  0.3655
10097TIP3   OH251781   1.751   1.506  43.725  0.2710 -0.2970 -0.6920
10097TIP3    H151782   1.708   1.435  43.772  1.2625 -0.9728 -0.7701
10097TIP3    H251783   1.787   1.563  43.793 -0.0813 -0.1495 -0.6299
10098TIP3   OH251784   0.504   3.383  21.752  0.2673 -0.0643  0.1131
10098TIP3    H151785   0.505   3.461  21.807  1.5309  0.9552 -1.2630
10098TIP3    H251786   0.594   3.350  21.756  0.1779 -0.4228 -0.7267
10099TIP3   OH251787   1.458   1.973   4.673  0.0431 -0.4849 -0.0234
10099TIP3    H151788   1.435   2.036   4.741  0.3293  0.0432 -0.4117
10099TIP3    H251789   1.450   2.022   4.592  1.1865 -0.6899 -0.2652
10100TIP3   OH251790   1.152   1.458  17.269 -0.2895  0.3570  0.3787
10100TIP3    H151791   1.130   1.551  17.257  0.5448  0.3573 -1.7055
10100TIP3    H251792   1.237   1.449  17.225 -1.7960 -1.9972 -2.3602
10101TIP3   OH251793   0.754   1.928  61.246  0.0627 -0.2591 -0.3788
10101TIP3    H151794   0.664   1.950  61.268  0.5741  2.8841 -1.0313
10101TIP3    H251795   0.801   1.931  61.330  0.0992  1.2332 -0.4347
10102TIP3   OH251796   1.296   1.718   6.297  0.1203  0.5918  0.1061
10102TIP3    H151797   1.347   1.785   6.343 -1.3511  0.4634  2.0620
10102TIP3    H251798   1.208   1.755   6.290 -0.2586 -0.3797 -0.5144
10103TIP3   OH251799   1.366   0.590   7.932 -0.8576  0.3374  0.1305
10103TIP3    H151800   1.417   0.630   7.861  0.2613 -2.1815 -0.5887
10103TIP3    H251801   1.280   0.573   7.894 -0.3642 -0.7004 -0.5610
10104TIP3   OH251802   1.993   3.163   3.753  0.2786 -0.1346 -0.0216
10104TIP3    H151803   2.042   3.110   3.690  1.4039  0.2923  0.4697
10104TIP3    H251804   1.948   3.228   3.700  0.1681 -0.5817 -0.4893
10105TIP3   OH251805   0.048   1.803  45.955  0.2015  0.3850  0.4327
10105TIP3    H151806   0.064   1.879  45.899 -0.7206  0.5262  0.3450
10105TIP3    H251807  -0.044   1.781  45.940  0.6909 -1.3438 -0.2755
10106TIP3   OH251808   0.315   2.818  58.282  0.0305  0.0075  0.5023
10106TIP3    H151809   0.398   2.802  58.327 -0.3718  0.1881  1.3316
10106TIP3    H251810   0.336   2.886  58.218  0.5255  0.0472  0.7008
10107TIP3   OH251811   1.684   0.538  62.959 -0.5672 -0.2870 -0.5806
10107TIP3    H151812   1.694   0.576  63.046 -1.0503  1.5906 -1.3040
10107TIP3    H251813   1.774   0.534  62.924 -0.5970  1.2480 -0.8955
10108TIP3   OH251814   3.093   1.798  14.337  0.1330  0.3704 -0.6450
10108TIP3    H151815   3.055   1.847  14.265  0.5760 -1.1512 -1.9819
10108TIP3    H251816   3.163   1.746  14.297  0.8892  0.0149  1.0153
10109TIP3   OH251817   2.373   2.931  55.737  0.0563 -0.2979 -0.0124
10109TIP3    H151818   2.422   2.850  55.753  0.0368 -0.4099 -0.4981
10109TIP3    H251819   2.282   2.904  55.741  0.0570 -0.5670 -1.4673
10110TIP3   OH251820   3.191   1.213  15.481  0.0405  1.0229  0.1222
10110TIP3    H151821   3.280   1.216  15.517 -0.1680  2.3538  0.5701
10110TIP3    H251822   3.142   1.159  15.542  0.4613  0.5074  0.0197
10111TIP3   OH251823   3.401   1.791   2.651  0.4234  0.8116 -0.4296
10111TIP3    H151824   3.486   1.808   2.693  0.3163  0.2901  0.0013
10111TIP3    H251825   3.407   1.700   2.622  0.3830  1.0714 -1.2924
10112TIP3   OH251826   1.960   2.082  59.924  0.1498 -0.1482  0.2422
10112TIP3    H151827   1.984   2.020  59.993 -0.4202 -0.3303  0.2795
10112TIP3    H251828   1.873   2.113  59.948  0.5594  0.9108  0.3822
10113TIP3   OH251829   1.477   1.801  51.730 -0.3326  0.2165 -0.5367
10113TIP3    H151830   1.478   1.815  51.636 -1.7397 -1.7685 -0.8957
10113TIP3    H251831   1.387   1.777  51.750  0.3971 -1.4732  0.9693
10114TIP3   OH251832   2.447   0.184  63.736 -0.2038  0.0251  0.0269
10114TIP3    H151833   2.495   0.141  63.807 -2.8590 -0.7077  1.5380
10114TIP3    H251834   2.412   0.111  63.684 -2.2783  0.3411  0.8749
10115TIP3   OH251835   0.365   1.453  22.022  0.2322  0.1665  0.2314
10115TIP3    H151836   0.332   1.494  21.942  1.2337  0.2739 -0.1371
10115TIP3    H251837   0.457   1.478  22.026  0.0819  0.5722  1.6892
10116TIP3   OH251838   3.368   1.803  62.322 -0.2756 -0.2063 -0.3294
10116TIP3    H151839   3.412   1.867  62.378 -0.5360  0.1173 -0.4918
10116TIP3    H251840   3.332   1.738  62.382 -1.2406  0.5614 -0.0570
10117TIP3   OH251841   3.334   1.746  52.627  0.6701 -0.1711  0.7003
10117TIP3    H151842   3.388   1.739  52.705  0.4248  0.4032  0.9230
10117TIP3    H251843   3.380   1.808  52.571 -0.6036  1.6791  1.6129
10118TIP3   OH251844   2.636   2.238  49.476 -0.6069  0.2002  0.2879
10118TIP3    H151845   2.545   2.249  49.505 -0.5570  1.5721 -0.0032
10118TIP3    H251846   2.675   2.325  49.485  0.2035  0.0287 -1.1439
10119TIP3   OH251847   0.729   0.590  57.121 -0.4992 -0.4320  0.2300
10119TIP3    H151848   0.698   0.538  57.047 -0.0084 -0.4570  0.0429
10119TIP3    H251849   0.822   0.604  57.104 -0.4673 -0.1132  0.6479
10120TIP3   OH251850   2.525   2.729  21.596 -0.3436  0.8050 -0.0955
10120TIP3    H151851   2.586   2.798  21.624  0.7127 -0.4127  0.6935
10120TIP3    H251852   2.473   2.709  21.674  0.4014 -0.3477  0.1200
10121TIP3   OH251853   1.778   1.659  19.250  0.4087 -0.2940  0.5901
10121TIP3    H151854   1.794   1.620  19.164 -0.1596  0.3819  0.1742
10121TIP3    H251855   1.763   1.752  19.233 -0.0711 -0.2135  1.3783
10122TIP3   OH251856   2.214   2.323  19.883 -0.2648  0.1307  0.6443
10122TIP3    H151857   2.163   2.403  19.886  1.6625  1.4609  0.2036
10122TIP3    H251858   2.170   2.264  19.944 -3.3273  0.4688 -1.0314
10123TIP3   OH251859   1.529   2.668   1.212  0.3085 -0.1326  0.3207
10123TIP3    H151860   1.465   2.597   1.210 -0.9718  0.9777 -0.1444
10123TIP3    H251861   1.515   2.710   1.297 -0.0129  0.4779 -0.0276
10124TIP3   OH251862   1.347   2.468  51.438 -0.1964 -0.2387 -0.0066
10124TIP3    H151863   1.424   2.483  51.383  1.6698 -0.8437  2.2541
10124TIP3    H251864   1.295   2.547  51.429 -0.2423 -0.4897 -2.9117
10125TIP3   OH251865   0.137   3.249  30.252 -0.4930 -0.1142 -1.1503
10125TIP3    H151866   0.049   3.285  30.241 -1.2746 -0.9415  1.6929
10125TIP3    H251867   0.128   3.157  30.227 -0.2932 -0.0602 -1.4194
10126TIP3   OH251868   2.602   2.203  47.198 -0.4212 -0.5470 -0.4027
10126TIP3    H151869   2.683   2.234  47.158  0.6949 -2.8830 -0.1696
10126TIP3    H251870   2.535   2.265  47.170  1.7412  2.6740  1.0792
10127TIP3   OH251871   3.430   1.501   0.337  0.0670 -0.3153 -0.0741
10127TIP3    H151872   3.451   1.435   0.403  0.3097  0.2462  0.4234
10127TIP3    H251873   3.335   1.507   0.338  0.0055 -1.1316 -0.5995
10128TIP3   OH251874   0.181   2.096  59.118 -0.5397  0.1596  0.3623
10128TIP3    H151875   0.217   2.089  59.207 -1.0148  0.8022  0.6139
10128TIP3    H251876   0.225   2.173  59.081 -1.7449  1.0486  0.7243
10129TIP3   OH251877   0.916   1.744  63.058 -0.0436  0.2494 -0.1242
10129TIP3    H151878   0.984   1.708  63.001  0.5720  0.0683  0.7119
10129TIP3    H251879   0.944   1.721  63.147 -0.2102  1.8407  0.3655
10130TIP3   OH251880   0.505   2.084  20.992 -0.3870 -0.0878 -0.4300
10130TIP3    H151881   0.451   2.054  20.919 -0.4642  1.5698 -1.0830
10130TIP3    H251882   0.468   2.168  21.017  0.1100 -0.2782  1.0414
10131TIP3   OH251883   3.142   2.407  54.091  0.4637 -0.0377 -0.3807
10131TIP3    H151884   3.155   2.397  53.997  0.0890 -0.7383 -0.3644
10131TIP3    H251885   3.194   2.337  54.130 -0.9860 -1.0449 -0.1786
10132TIP3   OH251886   2.458   0.428   4.868  0.6582  0.0911 -0.4317
10132TIP3    H151887   2.434   0.520   4.859  0.6880  0.0785 -0.6429
10132TIP3    H251888   2.553   0.427   4.869  0.6730  0.2390  1.4285
10133TIP3   OH251889   3.443   1.179   2.623 -0.4581 -0.4902 -0.5167
10133TIP3    H151890   3.479   1.153   2.538  0.3837  1.3778 -0.7879
10133TIP3    H251891   3.514   1.228   2.665 -1.2355 -0.4478  0.7981
10134TIP3   OH251892   0.045   1.027  57.020  0.3389 -0.4831 -0.2759
10134TIP3    H151893   0.032   1.024  57.115  1.3333 -0.3423 -0.1244
10134TIP3    H251894   0.091   0.945  57.000 -0.2025 -0.6892 -0.6941
10135TIP3   OH251895   1.060   1.568  50.008 -0.3163  0.2705  0.5498
10135TIP3    H151896   1.099   1.553  49.922 -1.0709 -2.1953  0.5525
10135TIP3    H251897   1.004   1.644  49.996 -0.7829 -0.3088 -1.3057
10136TIP3   OH251898   0.962   1.728  65.840  0.2232 -0.2444 -0.0607
10136TIP3    H151899   1.022   1.674  65.788  1.1539  0.2471  0.4728
10136TIP3    H251900   1.020   1.786  65.890 -0.7106  2.7707 -2.1838
10137TIP3   OH251901   2.569   0.318   5.871  0.2401 -0.5343 -0.4595
10137TIP3    H151902   2.516   0.369   5.932 -1.3087  0.2104 -2.3003
10137TIP3    H251903   2.598   0.381   5.806  2.3420 -1.1924 -0.2295
10138TIP3   OH251904   0.478   1.566  54.144  0.3389  0.2273  0.1583
10138TIP3    H151905   0.414   1.582  54.213  0.8738  1.0160  0.4939
10138TIP3    H251906   0.559   1.545  54.191  0.7304  0.8572 -0.2165
10139TIP3   OH251907   0.844   2.787  50.915  0.4213  0.5315  0.4303
10139TIP3    H151908   0.932   2.751  50.913  0.3283  0.2931 -1.2434
10139TIP3    H251909   0.852   2.872  50.871  0.0009  1.0107  1.2465
10140TIP3   OH251910   2.789   2.482  11.144 -0.3670 -0.0889 -0.3474
10140TIP3    H151911   2.764   2.515  11.057 -1.5182  0.4784  0.1807
10140TIP3    H251912   2.763   2.552  11.204  1.4392  0.0178  0.3847
10141TIP3   OH251913   0.777   1.001  59.963  0.0604  0.6472  0.0554
10141TIP3    H151914   0.754   0.919  59.919 -1.2277  1.7930 -1.5309
10141TIP3    H251915   0.873   1.001  59.964  0.0931 -0.8184 -0.0016
10142TIP3   OH251916   2.024   0.998   7.114 -0.3822 -0.6959  0.1989
10142TIP3    H151917   2.005   1.072   7.056 -1.8414 -1.0876  0.1273
10142TIP3    H251918   2.035   1.038   7.200  1.4923 -0.1404 -0.2516
10143TIP3   OH251919   2.785   1.840  14.179 -0.1255 -0.1237 -0.0894
10143TIP3    H151920   2.853   1.893  14.138 -0.2290  1.0121  1.1415
10143TIP3    H251921   2.767   1.884  14.262 -1.0606 -1.4401  0.4392
10144TIP3   OH251922   2.304   1.213   2.339 -0.0145  0.2462  0.2019
10144TIP3    H151923   2.254   1.131   2.336  2.3254 -1.2504 -0.3538
10144TIP3    H251924   2.294   1.244   2.429 -2.3914  0.3614 -0.0415
10145TIP3   OH251925   0.035   1.903  51.569  0.4407  0.1282  0.7761
10145TIP3    H151926   0.051   1.908  51.475  0.5243 -1.0552  0.7102
10145TIP3    H251927   0.120   1.879  51.606  0.5275  1.0928  1.2121
10146TIP3   OH251928   0.729   2.384  45.344  0.3933  0.5061 -0.3597
10146TIP3    H151929   0.648   2.427  45.319 -0.3877 -0.0754  1.0570
10146TIP3    H251930   0.704   2.326  45.416  2.3025  1.4637  1.1954
10147TIP3   OH251931   0.191   2.003  11.782  0.6832  0.4110  0.0955
10147TIP3    H151932   0.262   1.983  11.720 -0.2463 -0.2101 -0.8058
10147TIP3    H251933   0.111   1.996  11.729 -0.1506 -0.2595  1.4121
10148TIP3   OH251934   2.008   0.561   5.744  0.3726 -0.0301 -0.0595
10148TIP3    H151935   1.959   0.618   5.803 -0.4214  1.5869 -2.1682
10148TIP3    H251936   1.960   0.564   5.662  2.4056 -0.7308 -1.3524
10149TIP3   OH251937   2.360   1.137  46.001  0.3950  0.0591 -0.4854
10149TIP3    H151938   2.365   1.198  45.928  0.1467 -0.3945 -0.8873
10149TIP3    H251939   2.396   1.055  45.966 -0.0640 -0.2643 -0.2130
10150TIP3   OH251940   1.873   0.557  64.181 -0.1380 -0.1600 -0.1860
10150TIP3    H151941   1.899   0.499  64.253 -0.4905  0.2524  0.2816
10150TIP3    H251942   1.915   0.520  64.104  1.4301  0.1793  0.4541
10151TIP3   OH251943   0.224   0.772  42.006  0.1847  0.3484  0.7699
10151TIP3    H151944   0.318   0.754  42.010  0.0244 -0.9299 -0.2203
10151TIP3    H251945   0.217   0.858  41.966  0.9429 -0.2454 -0.7320
10152TIP3   OH251946   1.566   1.582  21.767  0.3395  0.3957 -0.3235
10152TIP3    H151947   1.473   1.607  21.774  0.0095 -1.1314  1.7917
10152TIP3    H251948   1.603   1.644  21.705 -2.3616  0.3028 -2.2023
10153TIP3   OH251949   1.369   0.466  58.092  0.5063 -0.1529 -0.5585
10153TIP3    H151950   1.355   0.448  57.999  1.4827 -1.2625 -0.5082
10153TIP3    H251951   1.334   0.389  58.137  1.6553 -0.4340 -0.1230
10154TIP3   OH251952   1.789   0.277  47.576  0.1048 -0.3648  0.1333
10154TIP3    H151953   1.825   0.340  47.514  0.7701 -2.6326 -1.9208
10154TIP3    H251954   1.861   0.257  47.635  0.3837 -0.4191 -0.2272
10155TIP3   OH251955   1.372   2.698  10.021  0.3602  0.5264 -0.1063
10155TIP3    H151956   1.450   2.645  10.006  0.4457  0.8046 -0.6963
10155TIP3    H251957   1.301   2.647   9.981  0.3473  0.5769 -0.1483
10156TIP3   OH251958   2.549   1.696  61.245 -0.6997  0.5060 -0.4423
10156TIP3    H151959   2.579   1.651  61.166 -1.0773 -0.0315 -0.2858
10156TIP3    H251960   2.611   1.768  61.257 -1.3847  1.3798 -1.9512
10157TIP3   OH251961   2.627   1.690  18.891  0.0059  0.1711 -0.0224
10157TIP3    H151962   2.693   1.628  18.919 -0.4940  0.3245  1.5564
10157TIP3    H251963   2.571   1.640  18.831 -0.7135 -1.1178  1.6378
10158TIP3   OH251964   2.593   0.740  52.118  0.2571 -0.2666 -0.5520
10158TIP3    H151965   2.664   0.675  52.119  1.1233  0.6505 -1.0179
10158TIP3    H251966   2.579   0.757  52.025 -0.2850 -0.1330 -0.4462
10159TIP3   OH251967   1.164   1.757  53.210 -0.3113  0.6345 -0.0165
10159TIP3    H151968   1.157   1.690  53.279  1.7333  0.9928  0.6015
10159TIP3    H251969   1.225   1.822  53.245 -1.4260  2.3177 -1.0362
10160TIP3   OH251970   1.221   0.806  52.544 -0.1103  0.2341 -0.2940
10160TIP3    H151971   1.275   0.766  52.612 -0.5213  0.6417  0.2943
10160TIP3    H251972   1.209   0.737  52.479 -0.3476 -0.4241  0.4262
10161TIP3   OH251973   0.303   3.422  30.386 -0.8065 -0.0290 -0.2260
10161TIP3    H151974   0.224   3.429  30.440 -0.9866 -0.0461 -0.4894
10161TIP3    H251975   0.281   3.359  30.318 -0.4635 -0.2702 -0.1222
10162TIP3   OH251976   0.439   1.287  57.846  0.6857 -0.2532 -0.6204
10162TIP3    H151977   0.420   1.210  57.793  1.0960 -0.4640 -0.4744
10162TIP3    H251978   0.441   1.360  57.784  1.4839 -0.5448 -0.9436
10163TIP3   OH251979   3.118   0.716  66.706  0.1585 -0.0927 -0.0340
10163TIP3    H151980   3.058   0.782  66.670  0.2041 -0.4320 -0.7422
10163TIP3    H251981   3.067   0.635  66.705  0.5587 -0.3423 -0.4497
10164TIP3   OH251982   2.953   3.365   3.285  0.6410 -0.5139 -0.2425
10164TIP3    H151983   2.915   3.287   3.245 -0.2092 -0.9626  1.3388
10164TIP3    H251984   2.885   3.432   3.277 -0.3450 -1.1297  1.9900
10165TIP3   OH251985   0.952   0.061  11.374 -0.1388 -0.1024 -0.5226
10165TIP3    H151986   1.035   0.069  11.421 -0.7184 -0.0676  0.5071
10165TIP3    H251987   0.964   0.118  11.297  0.3860  0.7907  0.1969
10166TIP3   OH251988   2.915   2.540  64.400 -0.7685 -0.6816  0.3490
10166TIP3    H151989   2.909   2.592  64.320  3.0468 -0.1824  0.2335
10166TIP3    H251990   2.868   2.591  64.465 -2.1488 -0.0719 -1.0452
10167TIP3   OH251991   1.998   1.202  21.320  0.4947  0.3750  0.3491
10167TIP3    H151992   2.052   1.130  21.288  0.6156 -0.5024  2.3572
10167TIP3    H251993   2.024   1.212  21.412 -0.9514  1.6464  0.6553
10168TIP3   OH251994   0.810   1.366  65.362 -0.2442  1.0290 -0.1239
10168TIP3    H151995   0.859   1.402  65.288 -0.7274  1.0292 -0.4450
10168TIP3    H251996   0.759   1.440  65.395  1.3366  1.5068  1.3718
10169TIP3   OH251997   0.784   2.360  66.068 -0.2412 -0.4827  0.2015
10169TIP3    H151998   0.701   2.345  66.114  0.0634 -0.5279  0.7412
10169TIP3    H251999   0.813   2.446  66.098 -0.3096 -0.2721 -0.3296
10170TIP3   OH252000   2.486   2.809  49.228 -0.4497 -0.1380 -0.3443
10170TIP3    H152001   2.396   2.839  49.220 -0.3676  1.2599  2.6743
10170TIP3    H252002   2.486   2.750  49.303  1.2542  0.5426  0.2525
10171TIP3   OH252003   2.529   2.942   7.460  0.6709  0.2109 -0.0759
10171TIP3    H152004   2.561   2.995   7.533 -3.1044  3.4516 -0.4776
10171TIP3    H252005   2.600   2.946   7.395  1.5835  2.6984  0.9497
10172TIP3   OH252006   0.481   2.626  62.294 -0.6651  0.3043 -0.3311
10172TIP3    H152007   0.570   2.613  62.261 -0.1613  0.7037  0.8300
10172TIP3    H252008   0.431   2.657  62.218  0.1218 -0.1502 -1.0482
10173TIP3   OH252009   2.733   0.200  51.108 -0.0293 -0.2161  0.0781
10173TIP3    H152010   2.687   0.277  51.139  0.0719  0.9360 -2.3907
10173TIP3    H252011   2.667   0.131  51.108 -0.7536  0.4645  0.1377
10174TIP3   OH252012   1.079   1.471  52.875  0.2131 -0.3359  0.7843
10174TIP3    H152013   1.123   1.427  52.802  1.9634  0.4005  1.3346
10174TIP3    H252014   1.149   1.487  52.939 -0.7283  1.4894  1.4410
10175TIP3   OH252015   0.647   2.130  16.043  0.2683 -0.1547  0.4971
10175TIP3    H152016   0.696   2.176  15.975 -0.6749  0.5729  0.2874
10175TIP3    H252017   0.586   2.074  15.995 -1.0689  1.0715  0.6849
10176TIP3   OH252018   2.910   1.728  46.060 -0.1433 -0.0473 -0.3982
10176TIP3    H152019   2.941   1.671  46.130 -1.9950 -1.2138 -0.4572
10176TIP3    H252020   2.932   1.816  46.089  2.3928 -0.7125 -0.0949
10177TIP3   OH252021   0.460   2.517   2.340 -0.2662  0.3319  0.0710
10177TIP3    H152022   0.552   2.526   2.315 -0.3072  0.0788 -0.1769
10177TIP3    H252023   0.412   2.536   2.259 -0.4665  1.3005  0.4008
10178TIP3   OH252024   0.830   1.016  43.916  0.3025 -0.0012  0.1873
10178TIP3    H152025   0.826   1.070  43.838  0.2566 -0.7726 -0.3524
10178TIP3    H252026   0.920   0.983  43.918  0.3228  0.0647  0.4964
10179TIP3   OH252027   3.048   3.397  14.924  0.0078  0.5002  0.1105
10179TIP3    H152028   2.965   3.363  14.890 -0.3262  0.3547  1.0443
10179TIP3    H252029   3.030   3.418  15.016  0.7042  1.5085  0.0402
10180TIP3   OH252030   2.406   1.316  47.166  0.1684  0.3087 -0.4282
10180TIP3    H152031   2.411   1.332  47.260  2.5536 -0.9709 -0.2418
10180TIP3    H252032   2.325   1.267  47.154 -0.0330  0.2370  1.0186
10181TIP3   OH252033   0.307   2.804  63.226 -0.0996  0.0241  0.5761
10181TIP3    H152034   0.371   2.874  63.243  0.5962 -0.0895 -1.3003
10181TIP3    H252035   0.231   2.850  63.189 -0.0911 -0.0815  0.4231
10182TIP3   OH252036   2.468   0.011   2.611  0.1312 -0.1891  0.6635
10182TIP3    H152037   2.412   0.005   2.533 -1.4472  0.3944  1.6969
10182TIP3    H252038   2.415  -0.028   2.681  1.8006 -1.3827  1.3313
10183TIP3   OH252039   3.331   1.111   0.559 -0.3822  0.2427 -0.2215
10183TIP3    H152040   3.358   1.177   0.496 -0.5878  2.0587  1.4695
10183TIP3    H252041   3.236   1.120   0.565 -0.2538  0.9572  1.1859
10184TIP3   OH252042   1.412   0.551   9.444 -0.1641 -0.3712  0.3488
10184TIP3    H152043   1.469   0.497   9.499 -2.6556 -2.5662  0.9851
10184TIP3    H252044   1.404   0.502   9.362 -0.5310  0.2967 -0.0207
10185TIP3   OH252045   0.235   0.405  15.133  0.3432  0.1742 -0.1272
10185TIP3    H152046   0.323   0.438  15.117 -0.1881  1.2088 -1.1759
10185TIP3    H252047   0.224   0.335  15.069  0.8444 -0.8669  0.8951
10186TIP3   OH252048   1.170   1.990  56.953 -0.7413  0.0325  0.2701
10186TIP3    H152049   1.204   1.992  57.043  2.5398  0.5055 -0.8159
10186TIP3    H252050   1.172   1.898  56.929  3.3997  0.1655 -0.7845
10187TIP3   OH252051   1.442   1.945  15.440  1.0486 -0.0180 -0.4870
10187TIP3    H152052   1.451   1.870  15.381 -0.6314 -0.4662 -0.2389
10187TIP3    H252053   1.361   1.988  15.411  1.5277  1.2031 -0.0700
10188TIP3   OH252054   3.435   2.105  61.303  0.3761  0.1239  0.2745
10188TIP3    H152055   3.394   2.185  61.338  1.6635  1.0640 -0.2965
10188TIP3    H252056   3.504   2.137  61.246  1.2386 -1.4195  0.4126
10189TIP3   OH252057   2.322   1.307  61.360  0.2932 -0.2277  0.5863
10189TIP3    H152058   2.365   1.391  61.351 -0.4545  0.1862  0.7703
10189TIP3    H252059   2.259   1.319  61.431 -2.6792  0.3216 -1.9331
10190TIP3   OH252060   0.884   1.231  16.255 -0.4096 -0.7664  0.0957
10190TIP3    H152061   0.795   1.225  16.222 -0.2436  0.0295 -0.5308
10190TIP3    H252062   0.875   1.228  16.350 -1.0502 -1.3123  0.0205
10191TIP3   OH252063   2.697   3.118  54.923 -0.0569 -0.0640 -0.6407
10191TIP3    H152064   2.671   3.192  54.868  0.7884  0.4823 -0.3180
10191TIP3    H252065   2.786   3.098  54.897 -0.0224 -0.4919 -0.2046
10192TIP3   OH252066   1.845   3.367  21.571 -0.2671  0.6349  0.3213
10192TIP3    H152067   1.855   3.314  21.492  1.8106 -2.7100  2.5264
10192TIP3    H252068   1.935   3.382  21.602 -0.9910  2.0103  1.9299
10193TIP3   OH252069   0.630   2.944  61.237  0.1927  0.2191 -0.4783
10193TIP3    H152070   0.643   2.914  61.146  2.4698 -0.2375 -0.0829
10193TIP3    H252071   0.645   3.039  61.233  0.3463  0.1918 -0.5925
10194TIP3   OH252072   0.356   1.681  15.038 -0.5101  0.1859  0.7900
10194TIP3    H152073   0.375   1.638  14.954  1.6103  1.1840  0.6848
10194TIP3    H252074   0.404   1.629  15.102 -1.9583 -0.4507  1.3890
10195TIP3   OH252075   3.430   3.006  65.237  0.0547  0.1845  0.3018
10195TIP3    H152076   3.385   2.989  65.319 -0.8027 -0.0176 -0.2050
10195TIP3    H252077   3.453   2.920  65.203  0.2136  0.2571  0.2230
10196TIP3   OH252078   1.443   1.650  60.110 -0.0239  0.5146 -0.2978
10196TIP3    H152079   1.403   1.684  60.030 -1.3930  0.6581  0.4158
10196TIP3    H252080   1.518   1.599  60.080  1.8834  3.7041 -1.4783
10197TIP3   OH252081   1.493   1.615  10.529  0.4152  0.0748  0.1238
10197TIP3    H152082   1.512   1.667  10.607  2.2682 -2.8963  1.8602
10197TIP3    H252083   1.402   1.587  10.541  1.0298 -1.3757  2.0194
10198TIP3   OH252084   1.828   1.498  20.457 -0.8413 -0.6462  0.7280
10198TIP3    H152085   1.817   1.524  20.548 -2.6213 -0.6322  0.5457
10198TIP3    H252086   1.813   1.578  20.407 -1.6933 -1.0113  0.3701
10199TIP3   OH252087   2.747   0.376  20.062 -0.7207 -0.1329  0.2264
10199TIP3    H152088   2.741   0.462  20.022 -0.2487 -0.3783 -0.3878
10199TIP3    H252089   2.657   0.355  20.088 -1.1094 -0.1513 -1.0963
10200TIP3   OH252090   1.636   1.834  47.229 -0.5940  0.5849  0.4921
10200TIP3    H152091   1.613   1.821  47.321 -0.9009 -1.9545  0.1470
10200TIP3    H252092   1.567   1.788  47.181  1.5921 -1.5754 -0.8229
10201TIP3   OH252093   0.883   0.869  11.593  0.3144  1.1423  0.2535
10201TIP3    H152094   0.888   0.775  11.575 -1.0551  1.0375  0.3002
10201TIP3    H252095   0.942   0.909  11.529  0.5451  0.2844 -0.0762
10202TIP3   OH252096   3.033   2.524  10.014 -0.2612  0.0050 -0.0886
10202TIP3    H152097   3.096   2.567  10.072 -1.3490 -1.0298  1.9564
10202TIP3    H252098   3.064   2.544   9.926  1.5009  1.5913  0.8274
10203TIP3   OH252099   2.146   0.958  55.533 -0.2461  0.4089 -0.1059
10203TIP3    H152100   2.226   0.966  55.482 -0.8825 -0.7668 -1.3589
10203TIP3    H252101   2.151   0.871  55.572 -0.4717  0.7077  0.5939
10204TIP3   OH252102   2.496   1.943  51.893 -0.0771  0.1422  0.4321
10204TIP3    H152103   2.582   1.958  51.852 -0.9471 -0.2208 -1.6766
10204TIP3    H252104   2.443   2.018  51.865 -0.6651 -0.0128  1.0946
10205TIP3   OH252105   2.888   0.299  17.768  0.2991 -0.6505  0.1822
10205TIP3    H152106   2.806   0.334  17.734 -0.8258 -2.0024  1.4169
10205TIP3    H252107   2.863   0.223  17.820  2.3685 -1.3108  0.3126
10206TIP3   OH252108   2.981   1.241  12.739 -0.4089  0.0895  0.5603
10206TIP3    H152109   2.916   1.228  12.670 -0.0795  1.5561 -0.0659
10206TIP3    H252110   3.013   1.330  12.725  0.0869  0.2107  2.2687
10207TIP3   OH252111   3.006   3.129  66.844  0.4006 -0.2412  0.2738
10207TIP3    H152112   2.923   3.115  66.888  1.2493 -2.1589  1.3870
10207TIP3    H252113   2.986   3.125  66.751 -0.6644 -1.3492  0.5283
10208TIP3   OH252114   0.160   2.820  14.142 -0.5057 -0.2927  0.0161
10208TIP3    H152115   0.211   2.890  14.102 -0.6948  0.2264  0.6701
10208TIP3    H252116   0.107   2.785  14.070  1.9653 -2.0009 -1.0941
10209TIP3   OH252117   3.218   2.326  27.865 -0.5221  0.5123 -0.1650
10209TIP3    H152118   3.206   2.411  27.822  0.2344  0.1925 -1.0357
10209TIP3    H252119   3.145   2.273  27.831  0.1501  0.2186 -1.1969
10210TIP3   OH252120   2.047   0.677  20.058  0.2264 -0.5178 -0.3343
10210TIP3    H152121   2.067   0.712  19.972  0.4326 -0.6975 -0.3616
10210TIP3    H252122   2.102   0.727  20.119 -0.6769  0.3191 -0.1829
10211TIP3   OH252123   1.444   2.084  14.102 -0.0789  0.2264  0.0937
10211TIP3    H152124   1.437   1.989  14.096  0.5044  0.2577 -1.4589
10211TIP3    H252125   1.492   2.098  14.184 -1.7224 -0.7011  1.2708
10212TIP3   OH252126   0.850   0.724  18.568  0.2450 -0.2317 -0.0537
10212TIP3    H152127   0.838   0.689  18.480  1.7763  0.4207 -0.5652
10212TIP3    H252128   0.858   0.647  18.624  2.2348 -0.7429 -0.9524
10213TIP3   OH252129   1.100   2.844   3.055  0.4746  0.2071  0.2400
10213TIP3    H152130   1.124   2.926   3.012  0.7315  1.4706  2.6250
10213TIP3    H252131   1.012   2.825   3.022  0.1431  1.7987  0.0981
10214TIP3   OH252132   1.127   1.046   9.667 -0.3794  0.7911 -0.2124
10214TIP3    H152133   1.121   1.033   9.572 -1.3841 -0.4135 -0.0029
10214TIP3    H252134   1.054   1.106   9.687 -3.0979 -2.3987  0.3301
10215TIP3   OH252135   2.267   2.398  54.835  0.4821 -0.0971 -0.1885
10215TIP3    H152136   2.192   2.456  54.824 -0.8259 -1.6322  0.4595
10215TIP3    H252137   2.341   2.450  54.803 -0.8034  1.5065 -0.6966
10216TIP3   OH252138   1.997   0.750  64.746  0.1682 -0.3227  0.1847
10216TIP3    H152139   2.030   0.837  64.724 -1.8892  0.7040  0.8247
10216TIP3    H252140   1.908   0.750  64.710  0.4067 -2.4818 -0.5024
10217TIP3   OH252141   3.228   1.356  64.370  0.1334  0.4970  0.1352
10217TIP3    H152142   3.207   1.357  64.464  0.7427  0.3325  0.2756
10217TIP3    H252143   3.270   1.272  64.356 -0.1102  0.4512 -0.3235
10218TIP3   OH252144   1.067   2.115  62.997 -0.3918 -0.2397 -0.4350
10218TIP3    H152145   1.129   2.042  63.004 -0.1935  0.0494  2.0687
10218TIP3    H252146   0.983   2.075  62.978  0.0274 -0.9440 -0.8269
10219TIP3   OH252147   0.205   3.305  45.134  0.0462 -0.1720 -0.3418
10219TIP3    H152148   0.131   3.364  45.120 -1.7463 -2.5056 -1.3339
10219TIP3    H252149   0.248   3.339  45.213 -2.7099  0.6914  0.9062
10220TIP3   OH252150   2.649   1.152  65.699  0.1110 -0.9320 -0.4533
10220TIP3    H152151   2.689   1.121  65.780 -2.5709  0.0359  1.3309
10220TIP3    H252152   2.674   1.244  65.693  0.0500 -0.9232 -0.5819
10221TIP3   OH252153   2.432   1.181  21.217 -0.0673  0.5930 -0.1860
10221TIP3    H152154   2.483   1.219  21.146 -0.4736 -1.8449 -1.9126
10221TIP3    H252155   2.349   1.155  21.176 -1.0665  0.7705  1.6208
10222TIP3   OH252156   1.245   2.265  20.171  0.5891 -0.0657  0.4017
10222TIP3    H152157   1.160   2.307  20.185 -0.3547 -1.4491 -0.7992
10222TIP3    H252158   1.250   2.198  20.240  0.1730 -0.7178 -0.1854
10223TIP3   OH252159   0.844   2.016  12.543 -0.0955 -0.2995  0.0772
10223TIP3    H152160   0.806   2.083  12.486 -0.7338 -0.1640  0.6373
10223TIP3    H252161   0.768   1.967  12.576  0.3472 -1.1682 -0.1596
10224TIP3   OH252162   2.125   3.244  12.485 -0.3597  0.4929  0.8962
10224TIP3    H152163   2.104   3.283  12.401  0.1869  0.2282  0.6348
10224TIP3    H252164   2.150   3.318  12.540  2.4683  0.3989 -0.1222
10225TIP3   OH252165   1.105   0.740   4.066 -0.1377  0.2954 -0.5482
10225TIP3    H152166   1.107   0.718   3.973  1.8572  0.2416 -0.5357
10225TIP3    H252167   1.146   0.664   4.109 -1.2120  0.2346  0.4067
10226TIP3   OH252168   0.789   1.537  48.860  0.3799  0.1012 -0.5856
10226TIP3    H152169   0.731   1.477  48.814  1.2597 -2.0424  0.9388
10226TIP3    H252170   0.867   1.485  48.879  1.0897  1.6594  1.0315
10227TIP3   OH252171   2.447   0.684   4.084  0.1000  0.2189 -0.1256
10227TIP3    H152172   2.376   0.745   4.062  0.0075  1.1173  2.3549
10227TIP3    H252173   2.407   0.621   4.143  0.8899 -0.5327 -0.3722
10228TIP3   OH252174   2.492   2.395  19.464  0.0726  0.3135  0.8517
10228TIP3    H152175   2.414   2.445  19.441 -1.8635 -2.9826 -0.4234
10228TIP3    H252176   2.459   2.320  19.513  2.3139 -1.5727 -0.3189
10229TIP3   OH252177   1.527   1.850  34.898 -0.3756  0.1614  0.2006
10229TIP3    H152178   1.496   1.793  34.969  0.9522  0.8748  1.3882
10229TIP3    H252179   1.551   1.789  34.828 -1.2464 -0.5825  0.5265
10230TIP3   OH252180   1.088   2.207  58.396  0.4910  0.6355 -0.2211
10230TIP3    H152181   1.094   2.123  58.350  1.3531  0.0951  0.8326
10230TIP3    H252182   0.996   2.215  58.421  0.8676 -1.5252  2.3493
10231TIP3   OH252183   2.506   1.217  66.544 -0.8627  0.1529  0.3847
10231TIP3    H152184   2.481   1.259  66.462 -0.0034 -0.1053 -0.0292
10231TIP3    H252185   2.428   1.171  66.573 -0.7571 -1.0243 -1.0938
10232TIP3   OH252186   0.834   1.851  56.797 -0.4370  0.1575 -0.1114
10232TIP3    H152187   0.817   1.792  56.724  0.9696 -0.1800 -0.2114
10232TIP3    H252188   0.927   1.875  56.787 -0.1495 -0.0630  1.6753
10233TIP3   OH252189   0.346   1.146  19.020  0.3403  0.1392 -0.1359
10233TIP3    H152190   0.321   1.132  19.112  0.4061  0.5420 -0.0556
10233TIP3    H252191   0.386   1.064  18.993 -2.9979 -1.4131 -0.9139
10234TIP3   OH252192   0.652   1.161   3.142  0.3570  0.0407  0.6314
10234TIP3    H152193   0.566   1.194   3.117  0.6906  1.3476  1.1321
10234TIP3    H252194   0.671   1.093   3.077 -0.9340 -0.1076  0.3684
10235TIP3   OH252195   0.610   3.431  15.235 -0.0836  0.5148 -0.5255
10235TIP3    H152196   0.520   3.427  15.268 -0.2679  1.3026 -0.9097
10235TIP3    H252197   0.664   3.407  15.310 -0.6152  0.0468 -0.2873
10236TIP3   OH252198   2.496   0.762  42.565  0.1203 -0.2137  0.4577
10236TIP3    H152199   2.516   0.680  42.519 -0.3028 -0.4619  0.7124
10236TIP3    H252200   2.579   0.788  42.605  1.2307  1.3306 -2.4527
10237TIP3   OH252201   1.765   0.302  38.978  0.0453  0.3061  0.4334
10237TIP3    H152202   1.836   0.274  38.921  0.1465 -0.1927  0.7977
10237TIP3    H252203   1.733   0.383  38.939  2.3224  1.8361  1.5278
10238TIP3   OH252204   0.790   0.016  12.286  0.7363 -0.1199  0.5485
10238TIP3    H152205   0.879   0.025  12.320  0.5669  0.3250  0.8921
10238TIP3    H252206   0.735   0.007  12.364  0.4457 -0.0388  0.3559
10239TIP3   OH252207   2.959   2.013   2.412 -0.3635 -0.0322 -0.4805
10239TIP3    H152208   2.932   2.070   2.340 -2.7833 -2.0447 -1.3373
10239TIP3    H252209   3.022   1.952   2.373  1.4010  1.3056  0.1700
10240TIP3   OH252210   1.742   0.921  53.687 -0.2284  0.4742 -0.0639
10240TIP3    H152211   1.658   0.966  53.692 -0.6318 -0.3654  1.1649
10240TIP3    H252212   1.807   0.992  53.678 -1.0311  1.1305 -0.8591
10241TIP3   OH252213   0.348   2.309  51.508 -0.0456 -0.0608 -0.0680
10241TIP3    H152214   0.321   2.305  51.600  0.0318 -1.4586 -0.0855
10241TIP3    H252215   0.425   2.252  51.503 -0.0301  0.0277 -0.9947
10242TIP3   OH252216   2.735   0.207  29.377  0.9795 -0.2523 -0.0540
10242TIP3    H152217   2.690   0.292  29.378  0.0432 -0.7138  1.5982
10242TIP3    H252218   2.760   0.193  29.469  1.8173 -1.4129 -0.4375
10243TIP3   OH252219   1.820   2.996  34.325  0.1346 -0.4335 -0.0959
10243TIP3    H152220   1.810   2.907  34.357  0.8282 -0.0901  1.1327
10243TIP3    H252221   1.756   3.047  34.376  0.8753  0.0380  0.3691
10244TIP3   OH252222   0.999   0.961  61.937  0.3723  0.1283 -0.6896
10244TIP3    H152223   1.032   1.047  61.911  1.4631 -0.4913 -1.4405
10244TIP3    H252224   1.008   0.959  62.032 -1.6322  1.6046 -0.3921
10245TIP3   OH252225   1.411   0.974  67.121  0.1145  0.2255 -0.1240
10245TIP3    H152226   1.445   0.885  67.119  1.2687  0.6638 -2.2094
10245TIP3    H252227   1.339   0.975  67.058  1.1994  1.1358 -1.4075
10246TIP3   OH252228   1.904   2.489  50.139 -0.5328  0.3491 -0.1875
10246TIP3    H152229   1.900   2.397  50.113 -1.5760  0.0769  0.8357
10246TIP3    H252230   1.837   2.497  50.207  0.5145  1.5293  0.7507
10247TIP3   OH252231   2.475   3.396  52.624  0.0756 -0.2398  0.1985
10247TIP3    H152232   2.493   3.326  52.561 -0.3908 -0.0113 -0.2001
10247TIP3    H252233   2.415   3.356  52.687 -3.0751  0.6937 -1.9533
10248TIP3   OH252234   1.405   2.850  63.763  0.3048 -0.0453  0.4306
10248TIP3    H152235   1.434   2.825  63.851  1.8447  1.1911  0.3154
10248TIP3    H252236   1.367   2.770  63.726  0.1279 -0.7196  2.0133
10249TIP3   OH252237   0.294   2.785   2.965 -0.2066 -0.5395  0.4726
10249TIP3    H152238   0.274   2.700   2.925 -1.2616 -1.1001  2.0874
10249TIP3    H252239   0.363   2.767   3.029 -1.7903 -0.6310  2.2427
10250TIP3   OH252240   3.075   2.531  52.077  0.2402 -0.2328  0.1622
10250TIP3    H152241   3.103   2.535  51.986 -0.2496 -1.5559 -0.0690
10250TIP3    H252242   2.980   2.543  52.074  0.3638  1.0773  0.6456
10251TIP3   OH252243   0.842   2.664  45.249 -0.4267  0.8805  0.2890
10251TIP3    H152244   0.910   2.608  45.211 -0.7293  0.6340  0.1090
10251TIP3    H252245   0.804   2.710  45.173 -0.1586  1.3574  0.4367
10252TIP3   OH252246   3.322   0.784   5.449  0.1346 -0.0664 -0.7164
10252TIP3    H152247   3.381   0.712   5.472  0.7473  1.3207  2.6656
10252TIP3    H252248   3.380   0.854   5.417  0.4745  1.1771  2.2954
10253TIP3   OH252249   3.017   1.592  50.368 -0.2274 -0.0299 -0.2363
10253TIP3    H152250   3.072   1.643  50.309 -0.6149  0.2030 -0.3996
10253TIP3    H252251   2.984   1.656  50.431 -0.1642 -0.2002 -0.0303
10254TIP3   OH252252   0.578   3.114  45.842 -0.1702  0.1428  0.2264
10254TIP3    H152253   0.554   3.106  45.934 -1.2020 -0.7135 -0.1066
10254TIP3    H252254   0.614   3.028  45.819  0.2201  0.4000 -0.1379
10255TIP3   OH252255   0.952   0.853  12.759 -0.4238 -0.0984 -0.1856
10255TIP3    H152256   0.953   0.835  12.665 -0.1461  0.3922 -0.2836
10255TIP3    H252257   1.044   0.864  12.782 -0.5623  1.1351 -0.1379
10256TIP3   OH252258   0.883   0.021   6.268  0.3736  0.1837  0.3080
10256TIP3    H152259   0.883   0.082   6.194  1.2047 -1.7249 -1.3743
10256TIP3    H252260   0.855  -0.062   6.230  2.5821 -1.3041  1.6859
10257TIP3   OH252261   1.905   3.364   3.347  0.0565 -0.4343  0.3595
10257TIP3    H152262   1.848   3.377   3.423 -1.3818  0.9335 -0.8499
10257TIP3    H252263   1.994   3.368   3.382 -0.5625 -0.1685  1.9969
10258TIP3   OH252264   1.243   2.166   1.017  0.4719 -0.1115  0.4454
10258TIP3    H152265   1.154   2.144   1.043  0.4850  1.0523  1.5569
10258TIP3    H252266   1.295   2.154   1.096  1.2360 -0.3441 -0.0735
10259TIP3   OH252267   0.363   0.042  66.136 -0.0325  0.3800  0.6873
10259TIP3    H152268   0.358  -0.053  66.125  1.5533  0.5322 -2.1506
10259TIP3    H252269   0.287   0.064  66.190 -1.3788 -2.3049  0.0379
10260TIP3   OH252270   1.001   3.070  14.346  0.1913 -0.2957  0.4096
10260TIP3    H152271   1.013   3.121  14.426 -1.3871  3.2795 -1.3499
10260TIP3    H252272   1.030   3.129  14.276  0.4165 -2.7969 -1.7767
10261TIP3   OH252273   1.398   0.340  43.415 -0.0282  0.1105 -0.5367
10261TIP3    H152274   1.324   0.401  43.426 -1.3569 -1.7036  1.1264
10261TIP3    H252275   1.370   0.283  43.343  0.3951  0.3162 -0.8628
10262TIP3   OH252276   0.894   2.132  35.463 -0.3110  0.1318 -0.0287
10262TIP3    H152277   0.954   2.205  35.478  0.7054 -0.9890  1.7352
10262TIP3    H252278   0.894   2.083  35.546 -2.3894 -0.8500 -0.5296
10263TIP3   OH252279   0.312   1.194  21.374 -0.2213 -0.1026  0.1706
10263TIP3    H152280   0.223   1.165  21.351 -1.0472  3.3187 -1.5846
10263TIP3    H252281   0.314   1.192  21.469 -0.9262 -3.3656  0.2514
10264TIP3   OH252282   2.892   3.278   7.043  0.1689  0.0759  0.0605
10264TIP3    H152283   2.851   3.197   7.012 -1.7036  0.8731  0.3034
10264TIP3    H252284   2.865   3.285   7.134  0.4643  0.8762  0.0936
10265TIP3   OH252285   1.540   0.170   9.098 -0.3253  0.1664 -0.4796
10265TIP3    H152286   1.591   0.242   9.134  0.0852  0.4556 -1.6172
10265TIP3    H252287   1.594   0.092   9.112  0.8468  0.5879 -2.4514
10266TIP3   OH252288   0.113   0.132   8.723 -0.9441  0.0291 -0.4926
10266TIP3    H152289   0.028   0.169   8.747 -0.8574 -0.7801  1.2060
10266TIP3    H252290   0.108   0.040   8.749  0.8647  0.2437  0.8486
10267TIP3   OH252291   0.175   3.429   3.606 -0.1593  0.5325  0.0904
10267TIP3    H152292   0.189   3.364   3.675  2.3674  0.5469 -0.3276
10267TIP3    H252293   0.084   3.415   3.579  0.3940 -3.2757 -0.3843
10268TIP3   OH252294   0.769   0.695  18.001 -0.1095  0.1231 -0.4055
10268TIP3    H152295   0.766   0.726  18.091 -1.7852  0.8632 -0.6629
10268TIP3    H252296   0.818   0.762  17.953 -1.0356  0.8401 -0.3912
10269TIP3   OH252297   0.407   2.252  60.994 -0.2121  0.2547 -0.0037
10269TIP3    H152298   0.422   2.157  60.991 -2.3891 -0.1646 -3.5159
10269TIP3    H252299   0.490   2.290  60.964  0.1283 -0.6503 -0.2543
10270TIP3   OH252300   0.110   0.512  67.374 -0.3721 -0.4943 -0.4941
10270TIP3    H152301   0.091   0.589  67.320 -0.6492  0.7718  1.2835
10270TIP3    H252302   0.032   0.503  67.430 -0.5663 -2.4280 -1.0165
10271TIP3   OH252303   1.316   0.316  47.213  0.4319 -0.7071  0.5611
10271TIP3    H152304   1.403   0.286  47.185 -0.0989 -1.3327 -0.4450
10271TIP3    H252305   1.266   0.236  47.228 -0.7514 -0.3987 -1.3837
10272TIP3   OH252306   2.065   0.199  15.504 -0.4933  0.3396 -0.0739
10272TIP3    H152307   2.115   0.133  15.456 -0.7832  0.1976 -0.1820
10272TIP3    H252308   1.978   0.160  15.514 -0.7708  0.8496 -0.4478
10273TIP3   OH252309   0.573   1.112  66.771 -0.1821  0.3466 -0.1639
10273TIP3    H152310   0.629   1.187  66.792  0.7714 -0.3194 -0.2721
10273TIP3    H252311   0.591   1.049  66.841 -0.1263 -0.2299 -0.6896
10274TIP3   OH252312   2.014   0.158  62.480 -0.1633 -0.1428 -0.5821
10274TIP3    H152313   2.054   0.228  62.430 -0.2835  0.1425 -0.2812
10274TIP3    H252314   1.963   0.108  62.416  1.5333 -1.1614 -1.1800
10275TIP3   OH252315   1.735   1.498  17.105  0.2544 -0.4976 -0.4396
10275TIP3    H152316   1.736   1.448  17.187  2.6436 -0.4730 -0.3845
10275TIP3    H252317   1.723   1.589  17.133  0.5926 -0.5389 -0.1491
10276TIP3   OH252318   3.033   0.636  21.206  0.4048 -0.2111 -0.4477
10276TIP3    H152319   3.068   0.709  21.155  2.2332 -1.0473 -0.4500
10276TIP3    H252320   3.060   0.654  21.296 -1.3938  0.4065  0.0216
10277TIP3   OH252321   1.157   1.794   6.630 -0.6492  0.8797 -0.2639
10277TIP3    H152322   1.199   1.838   6.557 -2.9730  0.3480 -2.0302
10277TIP3    H252323   1.189   1.840   6.708  3.3052  0.3393 -1.3435
10278TIP3   OH252324   0.675   1.465  39.021 -0.6773  0.3288 -0.0812
10278TIP3    H152325   0.648   1.481  39.112 -0.8884  1.4883 -0.3262
10278TIP3    H252326   0.750   1.406  39.028  0.0596  1.3391  0.9248
10279TIP3   OH252327   0.858   0.117  49.168  0.0494  0.1050 -0.3859
10279TIP3    H152328   0.812   0.122  49.084 -0.2300  4.6952 -0.1694
10279TIP3    H252329   0.790   0.096  49.232 -0.5990  0.9161 -0.8006
10280TIP3   OH252330   2.582   2.886  18.910 -0.1777 -0.4428  0.7178
10280TIP3    H152331   2.523   2.849  18.844  0.0747  0.2905  0.0741
10280TIP3    H252332   2.658   2.917  18.860  0.3082 -0.4684  1.4286
10281TIP3   OH252333   2.618   3.440  65.590  0.4658 -0.0664  0.3046
10281TIP3    H152334   2.557   3.434  65.664 -1.6624 -0.9180 -1.4089
10281TIP3    H252335   2.704   3.445  65.631 -0.7132  1.3552  2.8825
10282TIP3   OH252336   2.675   2.151   7.199 -0.1531 -0.9307  0.2263
10282TIP3    H152337   2.588   2.191   7.206  0.3703  0.3174  0.0057
10282TIP3    H252338   2.731   2.223   7.168  1.2278 -1.3285  1.6960
10283TIP3   OH252339   0.935   0.338  58.555 -0.9140 -0.4984  0.4197
10283TIP3    H152340   1.027   0.310  58.550 -0.6082  0.5954 -0.5000
10283TIP3    H252341   0.930   0.387  58.637 -0.8766 -1.2606  0.8751
10284TIP3   OH252342   3.163   2.412  58.296 -0.6909  0.0602  0.0312
10284TIP3    H152343   3.075   2.424  58.332 -1.2461 -4.2711  0.6121
10284TIP3    H252344   3.149   2.384  58.206 -0.0606 -2.0540  0.5487
10285TIP3   OH252345   0.362   1.938  57.430  0.2685  0.2035  0.5795
10285TIP3    H152346   0.271   1.965  57.442  0.8324  2.4658  0.2865
10285TIP3    H252347   0.396   1.928  57.519 -0.4257 -1.3881  0.6958
10286TIP3   OH252348   2.060   2.713  67.281 -0.0924  0.0075 -0.3649
10286TIP3    H152349   2.155   2.721  67.282 -0.0973  0.0399 -0.0657
10286TIP3    H252350   2.036   2.721  67.189  0.1717  0.2875 -0.4104
10287TIP3   OH252351   3.281   1.760  19.769 -0.1452  0.1665 -0.3480
10287TIP3    H152352   3.370   1.781  19.799  0.4977  0.2489 -2.1719
10287TIP3    H252353   3.230   1.838  19.790  1.1837  1.8661 -2.9188
10288TIP3   OH252354   3.082   1.684   2.510 -0.2404  0.7541  0.5012
10288TIP3    H152355   3.105   1.730   2.429 -0.2221 -1.3646 -0.7601
10288TIP3    H252356   3.052   1.598   2.481 -0.5858  0.0609  2.7450
10289TIP3   OH252357   1.431   1.892  64.167  0.1321 -0.1251  0.0074
10289TIP3    H152358   1.374   1.914  64.094  0.1267  0.3333  0.1462
10289TIP3    H252359   1.371   1.867  64.237  0.0899  0.5417  0.2151
10290TIP3   OH252360   0.469   1.539  64.542 -0.0212 -0.4241  0.0511
10290TIP3    H152361   0.516   1.581  64.469  1.6773 -0.8294  0.8530
10290TIP3    H252362   0.495   1.589  64.619  0.4913 -1.7259  0.7526
10291TIP3   OH252363   2.878   1.263  11.707 -0.3491 -0.1167  0.6411
10291TIP3    H152364   2.970   1.288  11.696 -0.4366  0.2441  0.6996
10291TIP3    H252365   2.847   1.248  11.618 -0.3729  0.2829  0.5791
10292TIP3   OH252366   1.901   3.103   4.335  1.0291  0.8963 -0.3442
10292TIP3    H152367   1.947   3.186   4.324  1.6817  0.4463 -1.0588
10292TIP3    H252368   1.967   3.042   4.366  1.0143  0.1592 -1.7055
10293TIP3   OH252369   0.256   1.033  46.120  0.1002  0.1033 -0.1427
10293TIP3    H152370   0.289   1.024  46.209 -0.3487  0.7445  0.0931
10293TIP3    H252371   0.330   1.065  46.069  0.3166 -0.1267  0.0264
10294TIP3   OH252372   2.919   2.761  11.680 -0.2994  0.4589 -0.0427
10294TIP3    H152373   2.824   2.754  11.689 -0.5773 -1.0332 -2.8772
10294TIP3    H252374   2.942   2.691  11.618  2.4979  1.5103 -0.3362
10295TIP3   OH252375   2.287   1.934  54.833 -0.0635  0.1697  0.3386
10295TIP3    H152376   2.372   1.922  54.877  0.3619  0.9480 -0.2404
10295TIP3    H252377   2.245   1.848  54.839  1.2979 -0.5972 -0.4595
10296TIP3   OH252378   1.863   1.444  67.107 -0.3358  0.2995 -0.2424
10296TIP3    H152379   1.896   1.501  67.176  0.0268  0.3563 -0.4598
10296TIP3    H252380   1.872   1.355  67.143  1.7931  0.1555 -0.9686
10297TIP3   OH252381   0.747   0.186  45.808  0.3246 -0.0248 -0.1310
10297TIP3    H152382   0.806   0.110  45.815  0.6592  0.1778 -0.7116
10297TIP3    H252383   0.723   0.190  45.715  0.1090  0.4318 -0.0608
10298TIP3   OH252384   3.309   3.072  66.618 -0.5607  0.1571 -0.3764
10298TIP3    H152385   3.351   3.015  66.682 -1.4831 -1.6973 -1.3323
10298TIP3    H252386   3.341   3.040  66.533 -0.8492  1.3090 -0.9474
10299TIP3   OH252387   1.848   3.119   5.309 -0.3857  0.1152  0.1111
10299TIP3    H152388   1.883   3.030   5.313 -1.7529 -0.5428 -1.6131
10299TIP3    H252389   1.889   3.164   5.383  0.5446 -1.8589  0.8590
10300TIP3   OH252390   3.094   3.197  49.802  0.2234  0.0054 -0.0486
10300TIP3    H152391   3.083   3.163  49.891  0.5803 -0.6734 -0.2585
10300TIP3    H252392   3.141   3.279  49.814  0.5031 -0.2099  0.3738
10301TIP3   OH252393   0.376   3.337  15.341 -0.0854 -0.0822 -0.4988
10301TIP3    H152394   0.309   3.384  15.390  0.0574  0.4502 -0.8074
10301TIP3    H252395   0.328   3.290  15.273 -0.1282  0.5224 -0.8967
10302TIP3   OH252396   0.398   1.953  61.882  0.4112  0.0305  0.5468
10302TIP3    H152397   0.370   1.876  61.931  2.8144 -0.7631  0.7783
10302TIP3    H252398   0.359   2.027  61.929  0.6948 -0.8571  2.2264
10303TIP3   OH252399   0.776   0.338   7.382  0.5218 -0.1216 -0.4202
10303TIP3    H152400   0.727   0.420   7.379  0.5269 -0.1054 -0.1058
10303TIP3    H252401   0.851   0.356   7.439  0.2017 -0.5111  0.1354
10304TIP3   OH252402   3.249   0.587  30.160 -0.1232 -0.0093  0.4091
10304TIP3    H152403   3.209   0.636  30.088 -2.3615  0.0599  1.6160
10304TIP3    H252404   3.205   0.620  30.238  1.3747 -0.9488  1.7016
10305TIP3   OH252405   0.727   1.149  47.757  0.5937  0.5766 -0.4254
10305TIP3    H152406   0.799   1.138  47.819 -0.3442  0.8110  0.7632
10305TIP3    H252407   0.737   1.077  47.695  2.3397  1.1220 -0.8338
10306TIP3   OH252408   1.791   2.117   9.588 -0.8085 -0.2253  0.1586
10306TIP3    H152409   1.836   2.185   9.538 -0.4549  0.0690  0.8719
10306TIP3    H252410   1.855   2.048   9.598 -0.9434 -0.3687  0.0374
10307TIP3   OH252411   2.556   0.613  65.720  0.2667  0.4708 -0.3747
10307TIP3    H152412   2.525   0.684  65.665  0.3844 -0.3479 -1.5335
10307TIP3    H252413   2.531   0.638  65.809 -2.7870  0.3487 -1.0979
10308TIP3   OH252414   2.811   0.882  60.805  0.2320  0.0635 -0.0504
10308TIP3    H152415   2.888   0.924  60.766  0.1756  0.2565  0.0460
10308TIP3    H252416   2.808   0.915  60.894  0.2737 -0.2658  0.0766
10309TIP3   OH252417   2.703   0.102  48.643 -0.3105 -0.2494  0.2220
10309TIP3    H152418   2.769   0.136  48.583  0.3538  2.7741  2.4342
10309TIP3    H252419   2.733   0.013  48.664  1.7683  0.2035 -0.6157
10310TIP3   OH252420   2.082   2.996  16.727  0.3677  0.5547  0.0949
10310TIP3    H152421   2.111   2.967  16.640 -0.5604 -1.0308  0.2816
10310TIP3    H252422   1.990   3.017  16.715 -0.6619 -2.7375  1.3009
10311TIP3   OH252423   0.899   2.977   2.215  0.1314  0.2823 -0.0721
10311TIP3    H152424   0.962   3.044   2.243  0.3513 -0.4002  1.1265
10311TIP3    H252425   0.874   2.932   2.296  0.5044 -1.5362 -0.9251
10312TIP3   OH252426   0.361   2.385  49.796 -0.2500  0.0188  0.0143
10312TIP3    H152427   0.409   2.329  49.734 -1.1590 -1.3323  0.4909
10312TIP3    H252428   0.306   2.440  49.740 -0.5360 -0.6987 -0.4316
10313TIP3   OH252429   3.090   1.336  47.346 -0.3529  0.2521  0.1170
10313TIP3    H152430   3.044   1.420  47.338 -0.0056  0.4666  0.3084
10313TIP3    H252431   3.134   1.325  47.262 -1.3168 -0.3012 -0.3287
10314TIP3   OH252432   2.066   3.079  43.346  0.3315 -0.1764  0.6918
10314TIP3    H152433   1.997   3.013  43.343  1.2955 -1.1868 -0.3025
10314TIP3    H252434   2.023   3.158  43.377 -1.5727 -0.4195 -1.1398
10315TIP3   OH252435   1.273   3.358  16.803 -0.2188 -0.0236  0.1473
10315TIP3    H152436   1.209   3.388  16.868 -0.5026  1.5631 -0.8069
10315TIP3    H252437   1.358   3.368  16.847 -0.5011 -0.4635  0.8067
10316TIP3   OH252438   2.371   1.865   0.095 -0.1685  0.3294 -0.4720
10316TIP3    H152439   2.311   1.813   0.042 -0.6034  0.7285 -0.3815
10316TIP3    H252440   2.321   1.943   0.118  0.5615  0.9257 -0.8425
10317TIP3   OH252441   2.177   1.136  56.758  0.0043 -0.1782 -0.0527
10317TIP3    H152442   2.114   1.194  56.801  0.4800  0.7671 -0.5927
10317TIP3    H252443   2.146   1.130  56.667  1.4294  1.4701 -0.7113
10318TIP3   OH252444   0.708   0.311  34.888 -0.4933 -0.2373  0.9324
10318TIP3    H152445   0.786   0.320  34.942 -0.2015 -1.1923  0.6876
10318TIP3    H252446   0.657   0.242  34.931 -0.8275 -0.1595  0.6651
10319TIP3   OH252447   2.783   1.705  51.137 -0.0957 -0.7007 -0.0688
10319TIP3    H152448   2.766   1.783  51.189  0.3365 -1.3608  1.0827
10319TIP3    H252449   2.814   1.640  51.199  0.1608 -1.6088 -1.1081
10320TIP3   OH252450   2.187   1.139  19.763  1.0364  0.1386 -0.3379
10320TIP3    H152451   2.205   1.123  19.671  1.7726  0.5960 -0.2843
10320TIP3    H252452   2.117   1.205  19.763  1.7469  0.9223 -0.5946
10321TIP3   OH252453   1.592   2.304  56.073  0.0132 -0.1268 -0.1051
10321TIP3    H152454   1.571   2.389  56.112  1.6870 -0.0385  0.6618
10321TIP3    H252455   1.637   2.326  55.991  2.0881 -0.1956  0.9597
10322TIP3   OH252456   3.175   2.158   6.205  0.4068  0.5214 -0.5612
10322TIP3    H152457   3.247   2.095   6.201 -1.0033 -1.1925 -0.3560
10322TIP3    H252458   3.190   2.217   6.131  0.3684 -1.7142 -2.4603
10323TIP3   OH252459   1.100   3.445  46.724 -0.1290 -0.5662 -0.0443
10323TIP3    H152460   1.146   3.482  46.648  0.1538 -0.0025  0.3977
10323TIP3    H252461   1.082   3.355  46.699 -0.0456 -0.3822 -0.7916
10324TIP3   OH252462   0.215   2.423  47.334  0.4777  0.5500 -0.0243
10324TIP3    H152463   0.269   2.452  47.407  1.1707  1.6495 -0.9338
10324TIP3    H252464   0.258   2.345  47.301  0.3344  0.2303  0.5361
10325TIP3   OH252465   2.576   3.178  46.489 -0.3858 -0.2068 -0.2980
10325TIP3    H152466   2.632   3.200  46.563 -0.7652 -1.5335  0.4104
10325TIP3    H252467   2.491   3.158  46.528 -0.8103 -0.1735 -1.1731
10326TIP3   OH252468   2.604   0.479  29.283  0.6221  1.0414  0.3689
10326TIP3    H152469   2.585   0.531  29.361  2.2514 -0.7630  2.0941
10326TIP3    H252470   2.653   0.538  29.226  0.6016  2.0107  1.3167
10327TIP3   OH252471   1.742   1.726  12.931 -0.5878  0.0317 -1.0498
10327TIP3    H152472   1.715   1.646  12.887  0.1715 -0.2415 -1.0368
10327TIP3    H252473   1.837   1.730  12.918 -0.6446  1.0275 -1.2182
10328TIP3   OH252474   2.015   2.155  45.818  0.0887 -0.3633 -0.1096
10328TIP3    H152475   1.946   2.175  45.881  0.0513  1.3703 -0.6677
10328TIP3    H252476   2.088   2.211  45.843  0.6953 -0.9211 -0.5784
10329TIP3   OH252477   2.463   2.930  56.237  0.1280 -0.6454 -0.0254
10329TIP3    H152478   2.555   2.942  56.213 -0.4897  0.5545 -1.9852
10329TIP3    H252479   2.445   2.838  56.215  0.6581 -0.6975 -0.2717
10330TIP3   OH252480   1.222   1.674  58.654 -0.3241 -0.0996  0.0976
10330TIP3    H152481   1.186   1.682  58.566  1.3909 -1.3279 -0.7782
10330TIP3    H252482   1.265   1.758  58.670  2.5856 -1.0722 -1.8445
10331TIP3   OH252483   2.620   0.826  60.604  0.3132 -0.0314  0.1832
10331TIP3    H152484   2.670   0.873  60.671  0.0825  0.7122 -0.1533
10331TIP3    H252485   2.643   0.734  60.618  1.1164  0.2120  0.5781
10332TIP3   OH252486   1.474   1.087  10.134 -0.1259  0.4478 -0.0816
10332TIP3    H152487   1.483   1.095  10.228 -1.0472  1.0530 -0.0286
10332TIP3    H252488   1.507   1.169  10.099  1.7460 -0.3982 -0.4289
10333TIP3   OH252489   0.526   2.158  42.487 -0.2589 -0.8104 -0.1053
10333TIP3    H152490   0.558   2.246  42.506 -1.0480 -0.8877  1.7077
10333TIP3    H252491   0.453   2.172  42.427 -0.2005 -0.2628 -0.0539
10334TIP3   OH252492   0.050   0.236  58.498 -0.3032 -0.1580 -1.2637
10334TIP3    H152493   0.057   0.281  58.582  1.0852  0.0769 -1.4863
10334TIP3    H252494   0.101   0.290  58.437  0.1040 -1.1985 -1.8791
10335TIP3   OH252495   0.379   0.077  58.668  0.1490  0.3439  0.9134
10335TIP3    H152496   0.337   0.134  58.603  2.0768  1.5125  0.6088
10335TIP3    H252497   0.328   0.089  58.748 -1.1677  0.2942  0.1089
10336TIP3   OH252498   3.102   2.199   9.818 -0.6336 -0.1126  0.4273
10336TIP3    H152499   3.061   2.203   9.732 -1.9335  1.2879  1.0565
10336TIP3    H252500   3.155   2.120   9.816  0.5185  0.6128 -2.1397
10337TIP3   OH252501   2.240   0.049  10.895 -0.1299  0.4586 -0.1755
10337TIP3    H152502   2.227   0.141  10.874  0.4584  0.1914 -1.8142
10337TIP3    H252503   2.325   0.047  10.941  0.1065  0.6761 -0.5989
10338TIP3   OH252504   2.540   0.268  59.197  0.2780 -0.1724 -0.0157
10338TIP3    H152505   2.586   0.305  59.273  0.9290 -0.2236 -0.3837
10338TIP3    H252506   2.456   0.315  59.195  1.0803  1.2974 -0.4715
10339TIP3   OH252507   3.098   2.199  47.151  0.2019 -0.5164 -0.1822
10339TIP3    H152508   3.186   2.205  47.113  0.8377 -2.2290  0.8910
10339TIP3    H252509   3.076   2.289  47.174  1.5014  0.0068 -0.8846
10340TIP3   OH252510   1.482   2.166  55.166  0.1428 -0.4718 -0.1871
10340TIP3    H152511   1.463   2.092  55.225  1.1550  0.7799  1.8154
10340TIP3    H252512   1.566   2.143  55.126  0.2608 -0.5900  0.1248
10341TIP3   OH252513   3.111   1.036  50.320  0.0773 -0.0285  0.0502
10341TIP3    H152514   3.098   0.984  50.241 -0.1452 -1.1277  0.7868
10341TIP3    H252515   3.026   1.035  50.364  0.2420  0.4399  0.3913
10342TIP3   OH252516   0.563   2.730  59.357  0.2908  0.7259  0.3513
10342TIP3    H152517   0.543   2.656  59.299  2.1287 -0.1815  0.7866
10342TIP3    H252518   0.650   2.760  59.329  0.0862  1.9498  0.9680
10343TIP3   OH252519   0.219   3.114  20.237 -0.1787 -0.0538 -0.6987
10343TIP3    H152520   0.297   3.074  20.274 -0.6332 -0.8095 -0.5444
10343TIP3    H252521   0.220   3.088  20.145  0.7658  1.5374 -1.1750
10344TIP3   OH252522   1.890   0.106   3.954  0.4223  0.3012  0.4519
10344TIP3    H152523   1.883   0.068   4.041  0.3864  0.2049  0.4069
10344TIP3    H252524   1.811   0.159   3.944  0.6698  0.7225  0.6765
10345TIP3   OH252525   0.271   1.380  65.208 -0.3516 -0.4259 -0.0901
10345TIP3    H152526   0.301   1.422  65.288 -0.2839 -0.5572 -0.0478
10345TIP3    H252527   0.219   1.447  65.163 -2.9274 -1.2029  1.4602
10346TIP3   OH252528   1.360   0.237  66.225  0.4190  0.7897 -0.1594
10346TIP3    H152529   1.452   0.254  66.245  0.2293  0.9845  0.5475
10346TIP3    H252530   1.316   0.321  66.237  0.0567  0.5758  0.0451
10347TIP3   OH252531   0.869   2.493  51.211 -0.0113  0.0159 -0.2690
10347TIP3    H152532   0.816   2.528  51.282 -0.2801 -0.9095  0.0032
10347TIP3    H252533   0.868   2.562  51.144  1.4922  1.5292  1.1891
10348TIP3   OH252534   1.368   1.151  14.888  0.4875  0.5086 -0.7720
10348TIP3    H152535   1.289   1.102  14.866  0.2460  0.0909  0.9259
10348TIP3    H252536   1.356   1.177  14.979  2.2421  0.5709 -0.5230
10349TIP3   OH252537   1.996   1.196  22.054  0.0147 -0.4232 -0.5605
10349TIP3    H152538   1.935   1.130  22.021  1.2436 -1.2323 -1.3097
10349TIP3    H252539   1.980   1.273  21.999  0.7380 -1.1474 -1.8278
10350TIP3   OH252540   0.257   1.150   9.161  0.0950  0.0496  0.3713
10350TIP3    H152541   0.184   1.090   9.145 -0.5083  0.9780 -0.5378
10350TIP3    H252542   0.324   1.124   9.099  0.1087 -0.1097  0.4510
10351TIP3   OH252543   0.960   3.110  51.336  0.3304  0.1668 -0.0967
10351TIP3    H152544   1.024   3.175  51.363  2.3634 -1.6305 -0.3306
10351TIP3    H252545   0.989   3.083  51.249  0.1311 -1.7494  0.3980
10352TIP3   OH252546   1.424   2.420  65.062  0.1322 -0.3050  0.5873
10352TIP3    H152547   1.382   2.389  64.982 -0.8194 -1.1850  1.3926
10352TIP3    H252548   1.365   2.488  65.095  0.6732  0.2653  0.4038
10353TIP3   OH252549   2.148   0.540  57.298 -0.2924  0.1403  0.0313
10353TIP3    H152550   2.068   0.571  57.255  0.6087 -0.6546 -2.3363
10353TIP3    H252551   2.122   0.527  57.389 -2.5249  1.0764 -0.4138
10354TIP3   OH252552   0.688   1.437  55.170  0.1384 -0.0507 -0.1827
10354TIP3    H152553   0.641   1.459  55.090 -0.0415  0.9344  0.1826
10354TIP3    H252554   0.661   1.504  55.233  0.0864 -0.9473  0.7810
10355TIP3   OH252555   1.672   0.930  11.366 -0.7502  0.2932  0.0251
10355TIP3    H152556   1.759   0.968  11.382 -0.0533 -0.9293 -0.7215
10355TIP3    H252557   1.616   1.005  11.349 -0.0552  1.1828  1.4129
10356TIP3   OH252558   0.139   2.449   3.784  0.0899 -0.3796  0.2596
10356TIP3    H152559   0.140   2.370   3.839 -0.0539  0.5147  1.5861
10356TIP3    H252560   0.225   2.489   3.797 -0.0814  0.0365  0.1221
10357TIP3   OH252561   0.138   0.625  66.905 -0.4838 -0.0594 -0.3602
10357TIP3    H152562   0.063   0.593  66.955  0.2565  1.2358  1.7076
10357TIP3    H252563   0.214   0.585  66.947  0.2703  2.2407  0.6024
10358TIP3   OH252564   1.074   0.843  19.393 -0.2977  0.4067  0.3247
10358TIP3    H152565   1.142   0.896  19.351  1.5990 -0.4690  2.1159
10358TIP3    H252566   1.009   0.829  19.325  1.8891  0.2784 -1.8684
10359TIP3   OH252567   0.628   1.582  56.785  0.2403  0.2742 -0.7967
10359TIP3    H152568   0.625   1.653  56.850  3.3781 -0.5224  0.3743
10359TIP3    H252569   0.536   1.556  56.775 -0.8740  3.4125 -0.1275
10360TIP3   OH252570   1.917   2.628  42.196  0.9659  0.3753  0.2393
10360TIP3    H152571   1.899   2.535  42.182  1.7853  0.3906 -1.0951
10360TIP3    H252572   1.831   2.670  42.193  0.6029 -0.3157  0.7310
10361TIP3   OH252573   0.024   2.991  16.541 -0.2565 -0.5604 -0.1405
10361TIP3    H152574   0.083   2.970  16.469 -1.9290 -1.6352 -1.2793
10361TIP3    H252575  -0.006   2.907  16.574 -2.4639 -0.1030 -0.7839
10362TIP3   OH252576   2.591   1.012   7.217 -0.1867  0.2858  0.1466
10362TIP3    H152577   2.643   1.017   7.297 -0.3962 -1.1227  0.3943
10362TIP3    H252578   2.513   0.964   7.243 -0.3588  0.0134 -0.8565
10363TIP3   OH252579   0.736   0.629   4.959 -0.7463 -0.1465  0.0166
10363TIP3    H152580   0.807   0.676   5.003 -1.4610  0.2900  0.7379
10363TIP3    H252581   0.710   0.687   4.887  0.6102 -0.9873 -1.1939
10364TIP3   OH252582   2.476   2.473  18.745 -0.0865  0.1784 -0.1222
10364TIP3    H152583   2.465   2.432  18.830  0.8692  0.5995  0.2260
10364TIP3    H252584   2.452   2.565  18.758  1.4081  0.5775  0.0847
10365TIP3   OH252585   1.336   2.255  55.695  0.2811 -0.2765 -0.7481
10365TIP3    H152586   1.323   2.349  55.685  1.8114 -0.0904 -1.2733
10365TIP3    H252587   1.254   2.223  55.733 -0.4997  1.1589 -1.1542
10366TIP3   OH252588   0.704   1.512  61.027  0.2264  0.4042 -0.1552
10366TIP3    H152589   0.789   1.502  60.985 -0.8204  1.5628 -2.7845
10366TIP3    H252590   0.682   1.604  61.016 -1.3993  0.1208  0.3970
10367TIP3   OH252591   0.845   2.913   2.914 -0.1569  0.7722  0.0450
10367TIP3    H152592   0.891   2.855   2.854  1.3286  1.3746  0.5551
10367TIP3    H252593   0.864   3.001   2.881  0.5997  1.1111  1.3140
10368TIP3   OH252594   2.157   2.754  65.308 -0.4333 -0.2434 -0.0561
10368TIP3    H152595   2.244   2.784  65.283 -0.2778  0.2100  0.9721
10368TIP3    H252596   2.168   2.719  65.396 -1.5342  1.1563  0.7009
10369TIP3   OH252597   1.594   2.593  22.312 -0.3354  0.1393 -0.1118
10369TIP3    H152598   1.543   2.515  22.292  0.1929 -0.4523  0.7661
10369TIP3    H252599   1.553   2.662  22.261 -0.1175 -0.9345 -1.8215
10370TIP3   OH252600   1.612   2.998   7.081 -0.3598 -0.4746  0.1905
10370TIP3    H152601   1.582   3.088   7.067  2.1046  0.4712  0.5203
10370TIP3    H252602   1.586   2.978   7.171 -0.7371 -0.0352  0.1831
10371TIP3   OH252603   0.694   2.222  42.913  0.4488  0.0443 -0.3101
10371TIP3    H152604   0.736   2.139  42.935  0.3761  0.0042 -0.3217
10371TIP3    H252605   0.627   2.199  42.849 -0.6104 -0.1323  0.8169
10372TIP3   OH252606   0.168   0.626  19.068  0.3692  0.3185 -0.0871
10372TIP3    H152607   0.160   0.586  19.155  0.7820 -0.6577 -0.4794
10372TIP3    H252608   0.211   0.559  19.015  1.0903  1.2999 -0.7798
10373TIP3   OH252609   3.278   0.471  13.228 -0.1222 -0.4318  0.1543
10373TIP3    H152610   3.310   0.386  13.260 -0.6984 -1.5641 -2.0260
10373TIP3    H252611   3.240   0.513  13.305 -0.5351 -2.5042  1.1518
10374TIP3   OH252612   1.090   1.354  60.621  0.1060 -0.2330  0.3767
10374TIP3    H152613   1.161   1.371  60.560 -0.1143  0.8229  0.3913
10374TIP3    H252614   1.131   1.307  60.693  0.9824  1.1440  0.8061
10375TIP3   OH252615   3.251   0.668  65.610 -0.4538 -0.5061 -0.0505
10375TIP3    H152616   3.185   0.606  65.577  0.3278 -1.0607 -0.6229
10375TIP3    H252617   3.331   0.644  65.563  0.4344 -0.5804  1.4434
10376TIP3   OH252618   1.027   0.545  48.300 -0.6318 -0.0696 -0.3512
10376TIP3    H152619   1.054   0.615  48.241  0.6458  0.3515  0.6934
10376TIP3    H252620   1.076   0.468  48.269 -0.8834 -0.1412 -0.5731
10377TIP3   OH252621   2.500   2.753  14.235  0.3921 -0.3489 -0.3135
10377TIP3    H152622   2.533   2.745  14.325  1.1148 -1.5453 -0.6608
10377TIP3    H252623   2.436   2.682  14.227 -0.6463  0.5664 -0.3518
10378TIP3   OH252624   0.190   3.070  46.705  0.3211  0.6781 -0.4448
10378TIP3    H152625   0.123   3.054  46.638 -0.4017 -0.1492  0.4556
10378TIP3    H252626   0.264   3.016  46.678 -0.5471 -0.9321  0.2403
10379TIP3   OH252627   1.596   0.749  16.475  0.1350  0.1266 -0.5423
10379TIP3    H152628   1.502   0.768  16.471 -0.1344 -0.3160  2.0791
10379TIP3    H252629   1.637   0.834  16.492  0.2058  0.2550 -1.2972
10380TIP3   OH252630   2.110   2.519  10.897 -0.4072 -0.3220  0.5089
10380TIP3    H152631   2.103   2.429  10.927 -2.5184 -0.5091 -0.3859
10380TIP3    H252632   2.197   2.525  10.857  0.3511 -1.5038  1.8854
10381TIP3   OH252633   2.725   1.727  64.043 -0.1395 -1.1548 -0.2753
10381TIP3    H152634   2.707   1.790  64.113  1.7510 -1.5622  0.6552
10381TIP3    H252635   2.701   1.772  63.962  1.5947  1.0043  0.3056
10382TIP3   OH252636   0.992   0.498   1.771  0.0815  0.2011 -0.0371
10382TIP3    H152637   0.912   0.539   1.804 -0.9616 -1.3528 -0.5335
10382TIP3    H252638   1.036   0.465   1.849  0.7849  1.9113  0.3404
10383TIP3   OH252639   2.692   2.112  63.543 -0.2087 -0.2627 -0.9410
10383TIP3    H152640   2.613   2.142  63.589  1.2820  1.3454  0.7277
10383TIP3    H252641   2.702   2.173  63.470 -0.4132 -0.3682 -1.0583
10384TIP3   OH252642   2.287   1.273  19.468 -0.4910 -0.3311 -0.1246
10384TIP3    H152643   2.365   1.297  19.518 -0.7584  0.4049 -0.0435
10384TIP3    H252644   2.293   1.326  19.388 -0.4212 -0.9843 -0.5538
10385TIP3   OH252645   0.950   2.487  59.436 -0.3787 -0.1823  0.0647
10385TIP3    H152646   0.931   2.535  59.517  3.1024 -0.2752  1.0919
10385TIP3    H252647   0.988   2.404  59.466  0.0434 -0.6569 -1.6751
10386TIP3   OH252648   2.709   1.506  46.798  0.3253  0.6194 -0.4202
10386TIP3    H152649   2.702   1.487  46.704  0.3139  1.2229 -0.5475
10386TIP3    H252650   2.623   1.485  46.834  0.8782 -1.4053 -0.1941
10387TIP3   OH252651   2.807   2.557  52.004 -0.0445 -0.1107 -0.1043
10387TIP3    H152652   2.832   2.479  51.955  2.3803  0.5117  0.0199
10387TIP3    H252653   2.792   2.624  51.937  2.3701  0.4882 -0.1437
10388TIP3   OH252654   1.883   2.421  21.639 -0.0756  0.1090 -0.3918
10388TIP3    H152655   1.916   2.507  21.612  0.4886  0.7666  2.1315
10388TIP3    H252656   1.961   2.373  21.666 -0.6473 -0.1364  0.9060
10389TIP3   OH252657   1.903   2.000  53.788 -0.0699 -0.0202 -0.2049
10389TIP3    H152658   1.979   1.997  53.846  0.3500 -0.3448 -0.7617
10389TIP3    H252659   1.940   2.017  53.701 -0.3133 -2.9829 -0.9954
10390TIP3   OH252660   0.178   0.655  13.884 -0.0140  0.1001 -0.1051
10390TIP3    H152661   0.260   0.676  13.839  0.9239 -0.4250  1.3182
10390TIP3    H252662   0.129   0.738  13.883  0.5745  0.4531 -0.8568
10391TIP3   OH252663   3.104   3.052   7.935  0.6476 -0.0517  1.0765
10391TIP3    H152664   3.076   3.139   7.964 -1.0830 -0.6885  1.4405
10391TIP3    H252665   3.147   3.014   8.012  0.0585 -0.0607  1.4107
10392TIP3   OH252666   0.359   1.819  20.079  0.6261  0.1491  0.3526
10392TIP3    H152667   0.341   1.910  20.100 -0.3000 -0.3988  2.1811
10392TIP3    H252668   0.436   1.797  20.131 -0.4438 -0.6641  1.6609
10393TIP3   OH252669   1.107   2.046  63.548  0.4916 -0.0641 -0.7010
10393TIP3    H152670   1.135   2.106  63.479 -0.5415  0.5163 -0.6477
10393TIP3    H252671   1.135   2.088  63.630  1.9247 -0.8652 -0.7438
10394TIP3   OH252672   0.682   2.861  17.233 -0.3039  0.3958 -0.4038
10394TIP3    H152673   0.635   2.785  17.268  1.4939 -0.6328 -0.1208
10394TIP3    H252674   0.613   2.923  17.211 -1.8578 -1.4608 -1.0273
10395TIP3   OH252675   2.026   1.396   0.738 -0.2040  0.2551 -0.3126
10395TIP3    H152676   1.998   1.479   0.700  2.6391  1.6472  0.3001
10395TIP3    H252677   2.120   1.409   0.755 -0.1087 -2.3589  1.7259
10396TIP3   OH252678   1.270   0.216  58.861 -0.4197  0.0879 -0.0540
10396TIP3    H152679   1.261   0.224  58.766 -0.6228 -1.3669 -0.1793
10396TIP3    H252680   1.356   0.174  58.874  0.1252  1.3111  0.4807
10397TIP3   OH252681   0.260   2.998  66.775  0.1783  0.5952  0.0513
10397TIP3    H152682   0.227   3.023  66.689 -1.6604  2.0071  1.0822
10397TIP3    H252683   0.199   2.931  66.806  0.9861 -0.1074  0.1554
10398TIP3   OH252684   3.034   2.911   1.973 -0.5164  0.1322  0.3274
10398TIP3    H152685   3.064   2.969   1.903  0.0405 -1.0065 -0.3997
10398TIP3    H252686   3.038   2.823   1.936 -0.9799 -0.4292  1.5300
10399TIP3   OH252687   1.581   1.114  10.394 -0.0455 -0.1758  0.3768
10399TIP3    H152688   1.592   1.029  10.437  1.5420 -0.1535  0.0443
10399TIP3    H252689   1.660   1.163  10.416 -0.8367  1.1589  0.3868
10400TIP3   OH252690   1.634   0.525  43.437  0.6040 -0.1389  0.8225
10400TIP3    H152691   1.725   0.554  43.446  0.5380  0.8541 -1.1743
10400TIP3    H252692   1.638   0.429  43.444  2.1705 -0.3054 -1.3460
10401TIP3   OH252693   2.879   2.995  59.682  0.9090  0.3982 -0.1217
10401TIP3    H152694   2.836   2.998  59.767  0.9123 -0.4106 -0.0836
10401TIP3    H252695   2.961   3.044  59.695 -0.9232  3.9069 -0.7837
10402TIP3   OH252696   2.375   3.409  58.412 -0.3112 -0.1044 -0.1624
10402TIP3    H152697   2.350   3.499  58.392  0.1653  0.6828  2.3689
10402TIP3    H252698   2.459   3.417  58.457 -0.3018 -1.8149  0.1996
10403TIP3   OH252699   0.787   3.086  57.125  0.0514 -0.5199  0.1469
10403TIP3    H152700   0.712   3.038  57.159  1.4582 -2.9367  0.0812
10403TIP3    H252701   0.751   3.144  57.058 -2.1666  1.0235  2.4987
10404TIP3   OH252702   0.638   0.162   4.367 -0.4147 -0.0382 -0.5964
10404TIP3    H152703   0.614   0.078   4.328  0.9939 -1.2632  1.0185
10404TIP3    H252704   0.723   0.147   4.408 -1.0002  1.6159  1.4253
10405TIP3   OH252705   0.355   0.843  52.921  0.2167  0.4188 -0.2053
10405TIP3    H152706   0.353   0.872  52.829  1.3488  1.6003  0.1026
10405TIP3    H252707   0.273   0.795  52.933  0.2221 -0.1015 -1.9326
10406TIP3   OH252708   1.257   3.293  65.397 -0.4470 -0.2988  0.7732
10406TIP3    H152709   1.174   3.315  65.354 -0.1020 -2.0659 -0.9567
10406TIP3    H252710   1.314   3.367  65.377 -0.3066 -1.0464 -1.9574
10407TIP3   OH252711   3.327   0.372  44.477  0.2366 -0.7324  1.0538
10407TIP3    H152712   3.379   0.403  44.552 -0.0686  0.2773  0.8682
10407TIP3    H252713   3.376   0.403  44.400 -0.2877 -0.3395  0.8679
10408TIP3   OH252714   1.897   0.491  14.116  0.4301 -0.5466 -0.0574
10408TIP3    H152715   1.911   0.562  14.053  2.1183  0.2580  1.1241
10408TIP3    H252716   1.853   0.533  14.190  1.0349 -0.8146  0.4653
10409TIP3   OH252717   2.822   1.801  47.653 -0.1058  0.5583  0.0939
10409TIP3    H152718   2.884   1.780  47.583  1.2579  2.4589  0.6428
10409TIP3    H252719   2.773   1.720  47.668  1.2803 -0.5909 -1.3385
10410TIP3   OH252720   2.734   1.773   0.824 -0.6563  0.0706 -0.0214
10410TIP3    H152721   2.700   1.717   0.754 -0.5391 -1.0114  0.7760
10410TIP3    H252722   2.670   1.844   0.831 -1.1789 -0.3421 -0.5531
10411TIP3   OH252723   1.281   2.273   8.819  0.2320 -0.0670 -0.2686
10411TIP3    H152724   1.340   2.298   8.890 -0.7769  0.0025  0.5680
10411TIP3    H252725   1.276   2.351   8.763  0.2098  0.2396  0.1595
10412TIP3   OH252726   2.441   1.620  57.376  0.0719  0.0922  0.1377
10412TIP3    H152727   2.429   1.714  57.389 -0.4174  0.1123 -0.4344
10412TIP3    H252728   2.505   1.614  57.304 -1.9388  0.0260 -1.7529
10413TIP3   OH252729   1.933   2.721  51.814 -0.0786 -0.0233 -0.0957
10413TIP3    H152730   1.981   2.646  51.779  2.0992  0.5236  1.4846
10413TIP3    H252731   1.852   2.683  51.849  1.0186 -1.7164  0.7767
10414TIP3   OH252732   2.971   2.058  55.396  0.5970  0.6154  0.2710
10414TIP3    H152733   2.961   1.964  55.404 -0.6489  0.5889 -1.2334
10414TIP3    H252734   3.052   2.078  55.444  1.2659 -1.3047 -0.0019
10415TIP3   OH252735   0.249   2.320  58.491  0.0078  0.3052 -0.1152
10415TIP3    H152736   0.255   2.389  58.424 -1.2190 -0.6495 -1.2666
10415TIP3    H252737   0.155   2.308  58.504  0.2235 -0.4149  0.8560
10416TIP3   OH252738   1.535   0.590  60.993 -0.2242 -0.3472 -0.8643
10416TIP3    H152739   1.554   0.533  60.918  0.0661 -0.6350 -0.5768
10416TIP3    H252740   1.573   0.674  60.969 -0.7071 -0.2507 -1.3233
10417TIP3   OH252741   0.437   3.000  67.471  0.1587  0.4598 -0.9684
10417TIP3    H152742   0.525   3.032  67.494  0.9123  0.4575 -3.5052
10417TIP3    H252743   0.432   2.913  67.511  0.3773  1.3427  1.1020
10418TIP3   OH252744   3.312   3.411  16.171  0.4145  0.4887  0.2657
10418TIP3    H152745   3.308   3.334  16.227  1.2573  0.3932  0.1978
10418TIP3    H252746   3.234   3.462  16.196 -0.1296 -0.3546  0.3318
10419TIP3   OH252747   2.158   2.570  26.859 -0.0309  0.0725  0.1385
10419TIP3    H152748   2.226   2.504  26.845 -1.1129 -1.2238  0.7982
10419TIP3    H252749   2.154   2.580  26.955  0.1271  1.1224  0.0475
10420TIP3   OH252750   1.207   2.928  16.479 -0.5398  0.0041  0.1815
10420TIP3    H152751   1.123   2.941  16.523  0.7475  0.3505  2.6966
10420TIP3    H252752   1.268   2.983  16.528  1.2200 -0.4346 -1.4265
10421TIP3   OH252753   1.076   2.731   1.425 -0.1420  0.4674 -0.1915
10421TIP3    H152754   1.132   2.733   1.348 -1.5758 -0.8174 -1.3436
10421TIP3    H252755   1.006   2.793   1.406 -0.8038 -0.2612 -0.1926
10422TIP3   OH252756   1.614   0.048  18.111  0.3388 -0.0053 -0.6352
10422TIP3    H152757   1.616   0.111  18.183  2.4024 -2.1513  1.3602
10422TIP3    H252758   1.696   0.063  18.064  0.1079 -0.1731 -1.1007
10423TIP3   OH252759   1.167   1.386  61.082  0.2585 -0.3421 -0.0321
10423TIP3    H152760   1.106   1.369  61.154 -0.6166 -1.2487 -0.9552
10423TIP3    H252761   1.131   1.463  61.038  0.5397 -0.0615  0.2258
10424TIP3   OH252762   2.831   0.445  17.161  0.1435 -0.2473  0.6410
10424TIP3    H152763   2.923   0.471  17.158  0.3697 -1.0722  0.2118
10424TIP3    H252764   2.802   0.472  17.248  0.2869  1.6332  0.1642
10425TIP3   OH252765   0.113   3.025  45.281  0.9064  0.5184  0.5168
10425TIP3    H152766   0.038   3.055  45.333  0.6321  0.3147  0.2452
10425TIP3    H252767   0.142   3.103  45.234  1.7066  0.9135  1.6309
10426TIP3   OH252768   0.683   0.441  47.909 -0.5742 -0.3485  0.0617
10426TIP3    H152769   0.709   0.527  47.943 -0.3678  0.0573 -1.1030
10426TIP3    H252770   0.741   0.380  47.955 -1.1464  0.0480  1.3709
10427TIP3   OH252771   1.186   1.674  61.420 -0.1803 -0.1240  0.1086
10427TIP3    H152772   1.267   1.716  61.449  0.1626  0.0188 -1.0069
10427TIP3    H252773   1.184   1.590  61.465  1.7882 -1.1729 -1.5624
10428TIP3   OH252774   3.389   0.018  54.972 -0.0151  0.7101 -0.2351
10428TIP3    H152775   3.472   0.063  54.986  0.7388 -1.0857  1.5458
10428TIP3    H252776   3.400  -0.028  54.889  0.6190  0.7781 -0.1887
10429TIP3   OH252777   1.462   2.334  52.767 -0.0010  0.4288 -0.1456
10429TIP3    H152778   1.404   2.384  52.710 -1.5480 -0.0240  0.9765
10429TIP3    H252779   1.486   2.395  52.837 -0.5568  0.0996  0.3364
10430TIP3   OH252780   0.958   1.985   0.187 -0.0507  0.2908  0.0412
10430TIP3    H152781   0.872   2.023   0.207 -0.1841  0.3731 -0.6471
10430TIP3    H252782   1.007   1.991   0.269 -0.6015  0.5135  0.3628
10431TIP3   OH252783   2.099   1.622  13.740 -0.4436 -0.3004 -0.3519
10431TIP3    H152784   2.127   1.653  13.827  0.4113  0.4793 -0.8865
10431TIP3    H252785   2.007   1.600  13.752 -0.5551  0.5655  0.5642
10432TIP3   OH252786   2.199   1.257  59.542 -0.4046  0.4161 -0.1401
10432TIP3    H152787   2.267   1.209  59.495 -0.5747 -1.2082  1.1538
10432TIP3    H252788   2.239   1.277  59.627 -1.2421  0.1757  0.3269
10433TIP3   OH252789   3.335   2.351  44.888  0.5920 -0.0148 -0.0922
10433TIP3    H152790   3.278   2.379  44.959  1.5102 -1.0911  1.1227
10433TIP3    H252791   3.276   2.316  44.822 -0.1702 -1.2129  1.1802
10434TIP3   OH252792   2.970   2.894   4.132 -0.2376 -0.2453  0.3366
10434TIP3    H152793   2.955   2.957   4.202  2.8324  1.2737 -0.1728
10434TIP3    H252794   2.908   2.919   4.063  0.5092  1.9388  0.3719
10435TIP3   OH252795   0.785   3.048  59.603 -0.4468 -0.2589 -0.2224
10435TIP3    H152796   0.696   3.025  59.630 -0.6375 -0.8450 -1.2904
10435TIP3    H252797   0.841   3.014  59.673 -1.1340  1.5245  1.2652
10436TIP3   OH252798   2.656   3.179  62.342  0.0877  0.1992 -0.1975
10436TIP3    H152799   2.626   3.091  62.366 -0.9302  0.5973  0.0442
10436TIP3    H252800   2.746   3.182  62.372  0.4066 -1.0492 -0.9508
10437TIP3   OH252801   2.042   0.777  13.341 -0.3995  0.1509 -0.2718
10437TIP3    H152802   2.031   0.868  13.316 -1.2726 -0.3575 -1.8653
10437TIP3    H252803   1.988   0.767  13.419  0.6640  1.2593  0.6435
10438TIP3   OH252804   0.619   1.223  54.796 -0.1980 -0.2651  0.0301
10438TIP3    H152805   0.573   1.282  54.738 -1.9330  0.7622  2.2912
10438TIP3    H252806   0.707   1.261  54.804 -0.9760  1.5057  0.6588
10439TIP3   OH252807   0.492   0.226  54.135 -0.6907 -0.0795  0.1446
10439TIP3    H152808   0.483   0.138  54.172  1.8190 -0.3995  0.1672
10439TIP3    H252809   0.575   0.259  54.170 -0.1580  1.1557 -2.0665
10440TIP3   OH252810   1.874   1.023  62.849  0.2134  0.1265 -0.3261
10440TIP3    H152811   1.840   1.077  62.778 -1.0177 -0.7779 -0.4464
10440TIP3    H252812   1.799   1.009  62.907  0.8106 -0.4673  0.3304
10441TIP3   OH252813   3.337   1.807  29.025  0.3084  0.0211  0.3385
10441TIP3    H152814   3.371   1.877  29.081 -2.1317 -0.2932  2.4160
10441TIP3    H252815   3.384   1.728  29.054  1.1353  0.3364 -0.1228
10442TIP3   OH252816   0.205   2.369  57.536 -0.1937 -0.2267  0.2113
10442TIP3    H152817   0.148   2.436  57.573  0.9490  0.3565  0.9926
10442TIP3    H252818   0.290   2.385  57.578  0.5893 -0.9415 -1.0502
10443TIP3   OH252819   2.847   3.100  46.442  0.4878 -0.0569 -0.1333
10443TIP3    H152820   2.866   3.187  46.477 -1.0131  0.6625 -1.0117
10443TIP3    H252821   2.751   3.095  46.440  0.4062 -2.8128  2.5087
10444TIP3   OH252822   0.529   0.825  14.552  0.5213  0.2849 -0.0510
10444TIP3    H152823   0.571   0.885  14.489  0.9346 -0.2801 -0.3175
10444TIP3    H252824   0.462   0.879  14.593  1.0469  1.0102 -0.1088
10445TIP3   OH252825   2.766   3.156  48.408  0.0228 -0.0133 -0.2514
10445TIP3    H152826   2.730   3.111  48.485 -1.9967 -1.4003 -1.8943
10445TIP3    H252827   2.689   3.195  48.365  1.4553  3.5324  0.0634
10446TIP3   OH252828   2.293   3.096  16.323  0.6062  0.3766 -0.1764
10446TIP3    H152829   2.383   3.087  16.354  0.1188 -2.0646  0.7924
10446TIP3    H252830   2.293   3.056  16.237  0.3270 -0.3170  0.1367
10447TIP3   OH252831   0.534   0.589  12.811  0.0212 -0.0002  0.0980
10447TIP3    H152832   0.549   0.670  12.861 -0.8156  0.4029 -0.2780
10447TIP3    H252833   0.559   0.611  12.722  0.3593 -0.3444  0.1086
10448TIP3   OH252834   2.979   2.627   1.992  0.4941 -0.4748  0.2360
10448TIP3    H152835   2.977   2.554   1.931  0.9964  0.0399 -0.4078
10448TIP3    H252836   3.070   2.631   2.022  0.4205 -0.2499  0.4286
10449TIP3   OH252837   1.561   2.983  56.697  0.3666 -0.1746 -0.2983
10449TIP3    H152838   1.547   3.037  56.619 -0.4622  0.3239  0.1813
10449TIP3    H252839   1.617   2.912  56.666 -0.9186 -0.6708 -1.6654
10450TIP3   OH252840   0.132   2.687  21.532  0.3103 -0.1530 -0.0891
10450TIP3    H152841   0.180   2.767  21.554  0.1439  0.4530 -1.7512
10450TIP3    H252842   0.046   2.699  21.571  0.4340  0.2816  0.0578
10451TIP3   OH252843   3.170   2.252  49.793  0.1180 -0.1033  0.3261
10451TIP3    H152844   3.188   2.327  49.849 -0.4590  0.6458 -0.4536
10451TIP3    H252845   3.094   2.209  49.833 -0.0055  0.1629  0.3782
10452TIP3   OH252846   2.550   0.659  17.650 -0.0386  0.1586 -0.1516
10452TIP3    H152847   2.561   0.743  17.695 -1.1406  0.1396  0.1949
10452TIP3    H252848   2.544   0.682  17.557  0.1172  0.4180 -0.0977
10453TIP3   OH252849   1.822   2.444  14.355  0.2359 -0.0496 -0.6198
10453TIP3    H152850   1.763   2.401  14.293  0.0596  0.9990 -1.1994
10453TIP3    H252851   1.905   2.451  14.308  0.8276 -1.4229  0.1546
10454TIP3   OH252852   1.548   0.838  20.244 -0.1093 -0.1387  0.0155
10454TIP3    H152853   1.486   0.892  20.291 -0.8370  1.4167 -2.5485
10454TIP3    H252854   1.595   0.790  20.312 -3.2658 -0.5260  2.1177
10455TIP3   OH252855   0.217   3.257  21.107  0.4170  0.2660 -0.1736
10455TIP3    H152856   0.305   3.273  21.073  0.4825  1.5859  0.5576
10455TIP3    H252857   0.183   3.344  21.131 -1.1956 -0.1750 -0.6927
10456TIP3   OH252858   0.964   2.006  46.208 -0.1369 -0.0451  0.1534
10456TIP3    H152859   0.905   1.931  46.212 -0.9299  0.5139 -0.6633
10456TIP3    H252860   0.929   2.060  46.137  1.4677  0.2146 -0.4652
10457TIP3   OH252861   3.045   2.196   7.182  0.1009  0.2414 -0.1120
10457TIP3    H152862   2.970   2.253   7.170  0.3068  0.4468 -0.4482
10457TIP3    H252863   3.065   2.164   7.094  0.8104  0.7060 -0.1235
10458TIP3   OH252864   1.861   0.867  49.889  0.6702  0.4233 -0.2962
10458TIP3    H152865   1.782   0.864  49.835  0.3397  0.2315  0.1870
10458TIP3    H252866   1.933   0.874  49.827  0.2782  0.4631 -0.7488
10459TIP3   OH252867   2.724   2.505   3.246  0.1062 -0.1462  0.0318
10459TIP3    H152868   2.636   2.468   3.255 -0.0893  0.6526  1.8209
10459TIP3    H252869   2.711   2.600   3.252  0.9494  0.0538 -1.1051
10460TIP3   OH252870   0.011   2.500   5.153 -0.3414 -0.0916 -0.1667
10460TIP3    H152871   0.020   2.512   5.058 -0.9672  2.0685 -0.0072
10460TIP3    H252872   0.039   2.584   5.190  0.1122 -0.9798  1.5953
10461TIP3   OH252873   1.124   0.723  57.356  0.2039  0.4538 -0.0741
10461TIP3    H152874   1.079   0.803  57.383  0.0824  0.4455 -0.2505
10461TIP3    H252875   1.069   0.687  57.286 -0.9867 -0.9858  1.5190
10462TIP3   OH252876   0.647   3.382  44.660  0.0759 -0.1002 -0.3115
10462TIP3    H152877   0.582   3.431  44.610 -0.2039 -0.0113  0.1364
10462TIP3    H252878   0.619   3.290  44.652 -1.3200  0.0822  1.5482
10463TIP3   OH252879   1.203   2.533  64.302  0.1026 -0.4715  0.3375
10463TIP3    H152880   1.200   2.555  64.209  0.1267 -0.1848  0.4037
10463TIP3    H252881   1.278   2.475  64.311  0.7956  0.4100  0.3683
10464TIP3   OH252882   1.318   1.867  44.938 -0.4626 -0.0211  0.2777
10464TIP3    H152883   1.311   1.775  44.913 -1.2558  0.2117 -0.4399
10464TIP3    H252884   1.251   1.879  45.005  0.6136 -0.2821  1.4293
10465TIP3   OH252885   3.152   0.104  14.703  0.6447  0.5363  0.3709
10465TIP3    H152886   3.154   0.051  14.783  1.7434  0.3412  0.2327
10465TIP3    H252887   3.117   0.044  14.637 -0.3284  0.7170  0.7037
10466TIP3   OH252888   1.299   1.411  14.742 -0.2463  0.0540  0.0511
10466TIP3    H152889   1.315   1.343  14.808 -0.9679 -1.0626 -0.8874
10466TIP3    H252890   1.386   1.449  14.725  0.1551 -0.5658  0.6571
10467TIP3   OH252891   1.218   2.476   9.934 -0.0958  0.3827 -0.3277
10467TIP3    H152892   1.248   2.432  10.014 -1.4161 -2.0148 -1.0477
10467TIP3    H252893   1.245   2.417   9.863 -1.6027  0.9160 -1.3911
10468TIP3   OH252894   1.764   0.901   2.555 -0.1920  0.9078 -0.4989
10468TIP3    H152895   1.684   0.942   2.588 -1.5491 -1.0229 -1.2174
10468TIP3    H252896   1.835   0.946   2.601 -1.7672  1.2720  1.7397
10469TIP3   OH252897   2.000   3.299  46.280 -0.1037 -0.0744 -0.1558
10469TIP3    H152898   1.935   3.249  46.328  0.8225 -1.8310 -0.6692
10469TIP3    H252899   2.084   3.272  46.317  0.6298 -1.3859 -2.5825
10470TIP3   OH252900   3.241   2.217   6.667 -0.4220  0.4588 -0.1928
10470TIP3    H152901   3.299   2.180   6.601 -1.0885 -0.7591 -0.1107
10470TIP3    H252902   3.154   2.211   6.629 -0.7530  0.2129  0.5894
10471TIP3   OH252903   1.451   0.341  62.975  0.6905 -0.3288  0.5318
10471TIP3    H152904   1.520   0.395  63.014  0.7023 -0.2704  0.4302
10471TIP3    H252905   1.495   0.294  62.904  0.5773 -0.1239  0.3239
10472TIP3   OH252906   0.380   2.247  15.709  0.2808  0.6135 -0.0509
10472TIP3    H152907   0.355   2.279  15.795 -1.1263  0.5397 -0.4020
10472TIP3    H252908   0.316   2.178  15.689  1.3676 -0.2638 -0.6130
10473TIP3   OH252909   2.044   1.595  43.067 -0.0522 -0.1928  0.3955
10473TIP3    H152910   1.990   1.593  42.988 -2.2884 -1.4248  1.8559
10473TIP3    H252911   2.026   1.681  43.105  1.3090  0.5518 -0.5424
10474TIP3   OH252912   0.757   2.615  48.192 -0.2949 -0.1715 -0.3333
10474TIP3    H152913   0.844   2.639  48.222 -0.4028  0.9027 -0.8513
10474TIP3    H252914   0.698   2.643  48.262 -0.1321 -2.3054  0.7390
10475TIP3   OH252915   2.298   0.643  58.973  0.0917  0.4128 -0.1273
10475TIP3    H152916   2.209   0.622  59.001 -0.5418  2.0109 -0.8273
10475TIP3    H252917   2.296   0.636  58.878  0.7771  0.2786 -0.1385
10476TIP3   OH252918   3.095   1.694  66.009 -0.4691  0.0084 -0.1308
10476TIP3    H152919   3.143   1.618  65.978  1.1447  0.0890  1.9421
10476TIP3    H252920   3.016   1.657  66.049  0.4106 -0.6526  1.0700
10477TIP3   OH252921   0.326   1.271  50.387  0.2563 -0.0489 -0.7903
10477TIP3    H152922   0.392   1.268  50.317  1.5514 -0.0407  0.3913
10477TIP3    H252923   0.274   1.349  50.367  0.8043  0.1404 -1.5644
10478TIP3   OH252924   0.380   2.573  51.368  0.3218  0.4969  0.3237
10478TIP3    H152925   0.471   2.600  51.378  1.2380 -1.1677 -2.3628
10478TIP3    H252926   0.369   2.500  51.430  1.8932 -1.4082 -1.5078
10479TIP3   OH252927   0.029   2.784  66.274  0.1687 -0.3113  0.2186
10479TIP3    H152928  -0.039   2.752  66.214 -0.6774 -0.9558  1.4840
10479TIP3    H252929   0.092   2.829  66.217 -0.3770 -1.2773 -1.1915
10480TIP3   OH252930   0.521   0.084  19.661 -0.4443 -0.2772  0.2220
10480TIP3    H152931   0.505   0.116  19.573  0.6936  1.9593  0.7362
10480TIP3    H252932   0.525  -0.011  19.652  0.3201 -0.0905 -2.2627
10481TIP3   OH252933   0.304   1.111  49.279 -0.4519  0.0263 -0.3818
10481TIP3    H152934   0.348   1.026  49.270 -0.6153  0.0743 -1.8672
10481TIP3    H252935   0.211   1.091  49.272 -0.4954  0.3105 -0.6379
10482TIP3   OH252936   3.195   2.807  44.645  0.3704  0.2078 -0.8385
10482TIP3    H152937   3.259   2.857  44.695  0.0887  1.1037 -1.3540
10482TIP3    H252938   3.122   2.794  44.706  0.5040  0.2997 -0.6589
10483TIP3   OH252939   1.972   2.415   1.736  0.1838  0.3176 -0.0799
10483TIP3    H152940   2.042   2.421   1.672 -2.0337 -0.6833 -2.7783
10483TIP3    H252941   1.958   2.321   1.748 -0.8227  0.4922  0.2273
10484TIP3   OH252942   1.491   1.639  59.151  0.1873  0.7554  0.0385
10484TIP3    H152943   1.404   1.679  59.153 -0.1937 -0.0127  2.8856
10484TIP3    H252944   1.476   1.549  59.122  0.0390  0.6876  0.3178
10485TIP3   OH252945   3.212   2.893   7.101 -0.3465 -0.1533 -0.6704
10485TIP3    H152946   3.267   2.968   7.126 -0.7459  0.4296 -1.4971
10485TIP3    H252947   3.151   2.884   7.173  0.6269 -0.6198  0.1233
10486TIP3   OH252948   1.980   2.216  43.388  0.1385 -0.3323  0.0671
10486TIP3    H152949   1.982   2.251  43.477  2.6586  0.6836 -0.2997
10486TIP3    H252950   1.913   2.147  43.390 -0.3819  0.1702  2.5242
10487TIP3   OH252951   3.064   1.346  30.299  0.3131 -0.3073  0.4105
10487TIP3    H152952   3.012   1.267  30.314  1.3520 -0.9528  0.6976
10487TIP3    H252953   3.052   1.365  30.206  0.3274 -1.0112  0.2575
10488TIP3   OH252954   3.439   0.418  45.123 -0.8606  0.4551 -0.2991
10488TIP3    H152955   3.386   0.429  45.202  0.6705  1.1198  0.6757
10488TIP3    H252956   3.418   0.329  45.093 -0.2960 -0.4345  1.7621
10489TIP3   OH252957   0.227   3.269  55.460  0.5843 -0.5015 -0.3029
10489TIP3    H152958   0.312   3.226  55.453  0.8301 -0.4096  1.5102
10489TIP3    H252959   0.184   3.225  55.534  1.0247  2.5836  1.9868
10490TIP3   OH252960   0.441   3.389  17.982 -0.1910 -0.4485 -0.1346
10490TIP3    H152961   0.525   3.385  18.029  0.1885 -0.0645 -0.7645
10490TIP3    H252962   0.457   3.450  17.910 -1.3166  0.4837  0.3563
10491TIP3   OH252963   0.280   0.290   7.081  0.1166  0.2383  0.1720
10491TIP3    H152964   0.236   0.319   7.162 -0.4466  0.0412 -0.0586
10491TIP3    H252965   0.324   0.368   7.049  0.1872  0.3662  0.5736
10492TIP3   OH252966   2.642   2.550  62.343 -0.0680 -0.0995  0.0120
10492TIP3    H152967   2.675   2.491  62.411  2.8957  1.8977  0.5129
10492TIP3    H252968   2.672   2.511  62.261  0.0210 -0.3598  0.1648
10493TIP3   OH252969   0.789   1.910  53.753 -0.0984 -0.2706 -0.3894
10493TIP3    H152970   0.820   1.950  53.672 -0.3950  3.1319  1.0168
10493TIP3    H252971   0.864   1.915  53.813 -0.8251  0.3618  0.5013
10494TIP3   OH252972   0.301   0.083  45.874  0.4036  0.4409  0.1710
10494TIP3    H152973   0.315   0.002  45.824 -2.3448  0.1649 -0.3064
10494TIP3    H252974   0.308   0.055  45.966  1.5108  0.1256  0.0077
10495TIP3   OH252975   1.947   0.973  21.481  0.3320  0.0913  0.3220
10495TIP3    H152976   1.956   0.980  21.576 -0.8709 -0.3569  0.4814
10495TIP3    H252977   1.860   0.937  21.468 -0.1716  1.6578 -0.9970
10496TIP3   OH252978   0.302   1.026  55.156  0.0432 -0.0564  0.4176
10496TIP3    H152979   0.238   1.072  55.102  0.5093 -0.9192 -0.9024
10496TIP3    H252980   0.359   1.096  55.189 -1.9075  0.8074  2.1728
10497TIP3   OH252981   2.337   2.661  17.680  0.4836  0.6679  0.2110
10497TIP3    H152982   2.419   2.618  17.654  0.8271  0.9026  0.8858
10497TIP3    H252983   2.358   2.754  17.680 -0.4982  0.9612 -2.1160
10498TIP3   OH252984   2.985   0.569  22.093  0.4137 -0.4029 -0.4295
10498TIP3    H152985   3.035   0.649  22.112 -2.8980  1.4872  1.2585
10498TIP3    H252986   3.001   0.512  22.168  1.0481 -0.3709 -0.5393
10499TIP3   OH252987   0.140   2.340   4.206  0.2823 -0.3969 -0.0636
10499TIP3    H152988   0.113   2.428   4.179 -0.5409  0.0397  1.9667
10499TIP3    H252989   0.067   2.309   4.260  2.0362 -0.8895  2.1660
10500TIP3   OH252990   0.637   0.883  21.689  0.4898  0.7262 -0.0253
10500TIP3    H152991   0.571   0.844  21.631 -1.5333  1.7371  1.4747
10500TIP3    H252992   0.685   0.944  21.632  0.6020 -0.4918 -1.2990
10501TIP3   OH252993   0.835   1.218  59.329 -0.1499 -0.4222  0.5780
10501TIP3    H152994   0.857   1.259  59.413 -2.8957  1.1845  0.6027
10501TIP3    H252995   0.756   1.167  59.346 -1.6119  1.0697 -1.2661
10502TIP3   OH252996   1.210   1.414  44.142  0.2850  0.4020 -0.4693
10502TIP3    H152997   1.263   1.336  44.128  0.5129  0.2954  0.8368
10502TIP3    H252998   1.256   1.484  44.095  0.2446 -0.1868 -1.3884
10503TIP3   OH252999   1.257   2.159   2.436  0.3883  0.1096 -0.5320
10503TIP3    H153000   1.271   2.250   2.410  0.5895  0.0339 -0.6890
10503TIP3    H253001   1.163   2.145   2.425  0.2615  0.4732  0.0538
10504TIP3   OH253002   1.915   1.268  56.096  0.4663 -0.0708  0.0850
10504TIP3    H153003   1.876   1.202  56.153  1.8627 -0.8668  0.1651
10504TIP3    H253004   1.999   1.289  56.136  1.3524 -0.4248 -1.4914
10505TIP3   OH253005   1.195   1.986  66.201  0.4732 -0.5079  0.0388
10505TIP3    H153006   1.279   1.969  66.243  0.8339  0.7368 -0.1351
10505TIP3    H253007   1.215   2.046  66.129 -0.8287  1.5958  1.3350
10506TIP3   OH253008   1.123   2.070  11.675 -0.1381 -1.0021 -1.0501
10506TIP3    H153009   1.058   2.002  11.690  0.4098 -1.2580  0.4094
10506TIP3    H253010   1.205   2.022  11.658  0.6422 -0.8482  1.6951
10507TIP3   OH253011   1.035   0.055  15.914 -0.6181 -0.0546 -0.1263
10507TIP3    H153012   1.118   0.038  15.869  0.6826 -1.1964  2.5045
10507TIP3    H253013   1.032   0.150  15.924  0.9776 -0.0701  0.7597
10508TIP3   OH253014   0.756   2.625  12.673  0.2123 -0.2929  0.0035
10508TIP3    H153015   0.792   2.632  12.762  2.3237 -1.4393 -0.6753
10508TIP3    H253016   0.726   2.534  12.666  0.0397 -0.2043 -0.4431
10509TIP3   OH253017   2.462   0.872   9.948 -0.5485  0.5318 -0.1247
10509TIP3    H153018   2.557   0.877   9.948 -0.3152 -1.6751  2.3740
10509TIP3    H253019   2.439   0.861   9.855  1.7715 -0.6152 -0.6490
10510TIP3   OH253020   0.521   1.413  17.748  0.5225 -0.0922  0.5645
10510TIP3    H153021   0.554   1.490  17.701  1.7356 -0.7902  0.2391
10510TIP3    H253022   0.445   1.446  17.797  0.1524  0.9926 -0.6721
10511TIP3   OH253023   1.181   3.244  10.013 -0.2572  0.1341 -0.0913
10511TIP3    H153024   1.210   3.185  10.083  1.3411 -0.0226 -0.8392
10511TIP3    H253025   1.095   3.274  10.041 -0.5468 -1.5330  0.9418
10512TIP3   OH253026   1.897   2.757   0.841  0.2425 -0.1852  0.2915
10512TIP3    H153027   1.816   2.719   0.875  1.0652 -1.5465  0.7714
10512TIP3    H253028   1.898   2.846   0.875  0.2752 -1.0067  2.5591
10513TIP3   OH253029   3.224   0.830   6.382  0.3906  0.0352 -0.8770
10513TIP3    H153030   3.191   0.882   6.308  1.0233  1.0614 -0.4568
10513TIP3    H253031   3.287   0.770   6.342  1.3810  1.1762 -1.0819
10514TIP3   OH253032   0.838   0.733   8.876  0.5400 -0.0246 -0.2353
10514TIP3    H153033   0.804   0.795   8.941  0.9184  0.2961 -0.3419
10514TIP3    H253034   0.809   0.768   8.792  0.8291  0.0597 -0.3009
10515TIP3   OH253035   2.851   2.698  60.337  0.2623 -0.5626 -0.1734
10515TIP3    H153036   2.921   2.677  60.399  0.1272 -1.0373 -0.1737
10515TIP3    H253037   2.778   2.641  60.364 -0.4677  0.6169  0.4423
10516TIP3   OH253038   2.927   2.786  48.242 -0.1112  0.5845  0.2001
10516TIP3    H153039   2.987   2.849  48.203 -0.4302  0.8379  0.1097
10516TIP3    H253040   2.884   2.744  48.167  0.6924 -0.3372  0.2331
10517TIP3   OH253041   3.160   1.961  21.583  0.2179  0.7383 -0.7665
10517TIP3    H153042   3.073   1.971  21.620  0.1039  1.7938 -1.2632
10517TIP3    H253043   3.199   2.049  21.588  1.3793  0.2238 -0.2615
10518TIP3   OH253044   0.988   0.492   8.464 -0.0254  0.3464  0.2585
10518TIP3    H153045   0.974   0.479   8.558 -1.3147  0.3016  0.0787
10518TIP3    H253046   0.900   0.504   8.428  0.5256  1.3647 -0.8067
10519TIP3   OH253047   2.736   0.056  47.413  0.6262  0.4718  0.0090
10519TIP3    H153048   2.746   0.074  47.507  1.4549  0.1084 -0.0005
10519TIP3    H253049   2.684   0.129  47.380 -0.8371 -0.0750  0.9931
10520TIP3   OH253050   1.357   0.541  67.292  0.2158  0.2124  0.1724
10520TIP3    H153051   1.274   0.522  67.247  0.2702 -0.5001  0.3471
10520TIP3    H253052   1.390   0.454  67.316  0.5327  0.5533  0.9675
10521TIP3   OH253053   2.178   0.102   3.961 -0.0298  0.0204 -0.3516
10521TIP3    H153054   2.089   0.130   3.986  0.0141 -0.8847  0.8820
10521TIP3    H253055   2.165   0.018   3.918  0.3366 -0.7889  1.0830
10522TIP3   OH253056   3.412   1.927   7.140 -0.4761  0.2023 -0.6817
10522TIP3    H153057   3.332   1.893   7.099 -0.8574  0.4214 -0.1369
10522TIP3    H253058   3.381   1.997   7.197 -0.1083 -0.8007  0.8242
10523TIP3   OH253059   0.937   2.628  52.490  0.0753  0.1845  0.9187
10523TIP3    H153060   0.886   2.616  52.571 -3.1673 -0.5212 -1.0665
10523TIP3    H253061   0.919   2.551  52.438  1.4519  0.9838 -0.8546
10524TIP3   OH253062   0.808   0.011   3.370 -0.0500  0.4655  0.3198
10524TIP3    H153063   0.856  -0.005   3.288 -0.7070 -0.6170  0.1414
10524TIP3    H253064   0.877   0.022   3.435  0.4693  0.2973 -0.1882
10525TIP3   OH253065   0.573   0.423  46.970 -0.0756  0.1881 -0.5645
10525TIP3    H153066   0.627   0.489  47.014  0.4954 -0.0306 -0.9136
10525TIP3    H253067   0.557   0.356  47.036 -2.5121  1.6650  0.4843
10526TIP3   OH253068   0.503   3.129  53.998  0.3545  0.1160  0.4146
10526TIP3    H153069   0.542   3.041  53.998 -1.3342 -0.7109 -1.1323
10526TIP3    H253070   0.452   3.133  54.078  1.8304  0.3957  1.3742
10527TIP3   OH253071   1.680   3.385  56.745 -0.6196  0.2139 -0.0206
10527TIP3    H153072   1.689   3.392  56.650 -2.1825 -1.6049 -0.3803
10527TIP3    H253073   1.743   3.447  56.780 -0.3747  1.3227 -2.2494
10528TIP3   OH253074   3.139   0.434  55.322  0.5668  0.0412  0.7811
10528TIP3    H153075   3.159   0.513  55.372 -0.9574  1.7961 -1.1894
10528TIP3    H253076   3.136   0.364  55.387  1.4684  1.6880  2.6730
10529TIP3   OH253077   1.255   3.299   3.885  0.9780 -0.4725  0.9846
10529TIP3    H153078   1.296   3.377   3.847 -0.9276  0.6755  1.1802
10529TIP3    H253079   1.176   3.286   3.834  0.7338 -1.6596  1.6373
10530TIP3   OH253080   1.429   1.169   4.838  0.0028 -0.0013 -0.4368
10530TIP3    H153081   1.410   1.228   4.910  2.3903  0.7802 -0.3737
10530TIP3    H253082   1.414   1.221   4.759  0.9906  0.3326 -0.4081
10531TIP3   OH253083   2.456   0.083   7.836 -0.2166 -0.3948 -0.1459
10531TIP3    H153084   2.527   0.079   7.772  1.1782  2.7720  1.0018
10531TIP3    H253085   2.473   0.010   7.896  0.8239 -0.9567 -1.1033
10532TIP3   OH253086   2.217   3.260   0.942 -0.9254 -0.1475  0.0807
10532TIP3    H153087   2.294   3.203   0.938 -1.7741 -1.3285  0.0552
10532TIP3    H253088   2.192   3.261   1.034 -0.7455  0.4339  0.1269
10533TIP3   OH253089   2.509   0.969  65.953 -0.0610 -0.1738  0.0135
10533TIP3    H153090   2.463   0.974  65.869 -0.1261 -2.3888 -0.1291
10533TIP3    H253091   2.602   0.977  65.931  0.0049 -1.8815 -0.4424
10534TIP3   OH253092   1.557   2.876  47.502 -0.1569  0.3693  0.0747
10534TIP3    H153093   1.629   2.938  47.516  0.7420 -0.6473  0.0335
10534TIP3    H253094   1.600   2.796  47.472 -1.1035 -0.9373  2.0738
10535TIP3   OH253095   0.734   1.480  55.563 -0.3213 -0.0920  0.4024
10535TIP3    H153096   0.753   1.409  55.501 -0.1144 -0.7352  1.1809
10535TIP3    H253097   0.819   1.504  55.599 -0.4911 -0.0513  0.7776
10536TIP3   OH253098   1.655   0.594  20.435 -0.0027 -0.4981 -0.1234
10536TIP3    H153099   1.739   0.609  20.390  0.4268  0.9436  1.1019
10536TIP3    H253100   1.680   0.560  20.521 -0.5985  0.9093  0.6379
10537TIP3   OH253101   2.147   1.405  27.044 -0.5455 -0.0312 -0.0808
10537TIP3    H153102   2.157   1.466  27.116 -0.2866  1.3046 -1.2078
10537TIP3    H253103   2.223   1.347  27.050  0.1532  0.8800 -0.0309
10538TIP3   OH253104   2.963   3.208  51.120  0.1253 -0.4179  0.1022
10538TIP3    H153105   2.993   3.222  51.030  2.5840 -1.2421  0.7156
10538TIP3    H253106   3.024   3.260  51.174 -0.4808 -0.9732  1.3679
10539TIP3   OH253107   2.222   3.170  12.905 -0.2790  0.3007 -0.2573
10539TIP3    H153108   2.252   3.108  12.839 -1.3928 -0.2397 -0.2696
10539TIP3    H253109   2.187   3.244  12.854 -1.0683 -0.0826 -0.2777
10540TIP3   OH253110   0.945   3.352  12.625 -0.2197 -0.0657 -0.8599
10540TIP3    H153111   0.993   3.271  12.642 -0.9696 -0.4815 -0.6475
10540TIP3    H253112   0.861   3.323  12.590 -0.8914  0.5591  0.1610
10541TIP3   OH253113   2.020   1.372  54.279  0.0273  0.2976 -0.3159
10541TIP3    H153114   2.007   1.303  54.344  0.1124 -0.0819 -0.6959
10541TIP3    H253115   1.948   1.360  54.217  0.0845  0.5079 -0.4255
10542TIP3   OH253116   2.515   1.307  14.844  0.2098 -0.2794 -0.4658
10542TIP3    H153117   2.575   1.326  14.772 -0.1171 -1.0342 -0.9480
10542TIP3    H253118   2.474   1.224  14.821 -1.9437  0.7873 -0.7645
10543TIP3   OH253119   1.469   1.981  61.107 -0.7029 -0.4220 -0.3622
10543TIP3    H153120   1.422   1.901  61.130 -0.5002 -1.3446 -2.7865
10543TIP3    H253121   1.422   2.014  61.030 -0.9223  1.9583  0.7113
10544TIP3   OH253122   2.898   3.364  64.056  0.0758  0.4263  0.4461
10544TIP3    H153123   2.854   3.279  64.055  1.2357 -0.1918 -0.5431
10544TIP3    H253124   2.833   3.425  64.021  0.2618 -0.6461 -1.9501
10545TIP3   OH253125   3.213   2.820  58.277  0.3462  0.5186 -0.4030
10545TIP3    H153126   3.267   2.742  58.264  0.3062  0.5867 -1.0147
10545TIP3    H253127   3.130   2.787  58.312  0.2952  0.2741 -0.7518
10546TIP3   OH253128   1.163   3.396  21.342  0.0538  0.2677  0.1204
10546TIP3    H153129   1.209   3.448  21.275 -1.8656  1.0734 -0.6275
10546TIP3    H253130   1.229   3.333  21.372  1.1180  0.1321 -2.2375
10547TIP3   OH253131   1.934   3.288  14.016  0.1651 -0.1733 -1.0920
10547TIP3    H153132   1.930   3.321  13.927 -3.4134  0.9829 -0.6892
10547TIP3    H253133   1.901   3.198  14.009  0.3629 -0.2498 -1.0207
10548TIP3   OH253134   1.811   0.475  51.209 -0.0015  0.2067  0.2439
10548TIP3    H153135   1.758   0.540  51.162  1.4781  0.4859 -1.1280
10548TIP3    H253136   1.837   0.412  51.141  1.5327  0.1779  0.8263
10549TIP3   OH253137   0.382   2.601   8.467 -0.2805  0.6102  0.0105
10549TIP3    H153138   0.436   2.582   8.544  1.3891  1.5461 -0.8819
10549TIP3    H253139   0.391   2.695   8.453 -1.2874  0.6064 -0.8238
10550TIP3   OH253140   0.738   2.946  67.322  0.1555 -0.1887  0.2831
10550TIP3    H153141   0.795   2.929  67.248 -0.4829 -1.3144  0.0162
10550TIP3    H253142   0.736   2.863  67.370 -0.5589  0.0947  0.7641
10551TIP3   OH253143   0.845   1.402  22.201  0.2203 -0.6664  0.0500
10551TIP3    H153144   0.932   1.396  22.162  0.5567 -2.0522  0.9568
10551TIP3    H253145   0.850   1.349  22.280 -1.4596 -0.7769  0.1189
10552TIP3   OH253146   3.222   0.590  49.037  0.3678  0.2040  0.1222
10552TIP3    H153147   3.189   0.512  49.083  0.3742  1.1169  1.7231
10552TIP3    H253148   3.291   0.556  48.980 -0.1441 -1.0747  0.2355
10553TIP3   OH253149   2.987   1.147  49.032 -0.6722 -0.0600 -0.0606
10553TIP3    H153150   3.081   1.156  49.047 -0.2588 -0.1778 -2.1800
10553TIP3    H253151   2.965   1.219  48.972 -1.2114 -1.8887 -2.2071
10554TIP3   OH253152   0.798   0.905  15.076 -0.2313 -0.1752  0.1169
10554TIP3    H153153   0.753   0.830  15.116 -1.9208  0.9216  0.3708
10554TIP3    H253154   0.735   0.941  15.014  1.4492 -0.3647 -1.8021
10555TIP3   OH253155   0.405   0.012   7.475 -0.4472  0.3941 -0.0325
10555TIP3    H153156   0.496   0.042   7.481 -0.6633  1.4093 -1.3691
10555TIP3    H253157   0.353   0.092   7.472 -1.4148 -0.1761  0.7203
10556TIP3   OH253158   0.645   2.303  10.852  0.2692  0.2997  0.2080
10556TIP3    H153159   0.561   2.270  10.884  0.4223 -0.3425 -0.0484
10556TIP3    H253160   0.622   2.375  10.793 -0.0777  0.4739  0.5545
10557TIP3   OH253161   0.694   0.576   2.216 -0.4295  0.0276  0.8755
10557TIP3    H153162   0.715   0.556   2.308 -1.7383 -0.3905  1.1051
10557TIP3    H253163   0.600   0.594   2.217 -0.3381  0.6215 -0.2964
10558TIP3   OH253164   1.830   2.274  56.308  0.2103  0.1832 -0.7946
10558TIP3    H153165   1.812   2.200  56.365 -0.7050  0.9322 -0.0662
10558TIP3    H253166   1.774   2.259  56.231  0.0439  0.0994 -0.6565
10559TIP3   OH253167   1.412   0.007  22.293 -0.1563 -0.6313  0.5069
10559TIP3    H153168   1.409   0.018  22.388  0.0620 -0.1413  0.4618
10559TIP3    H253169   1.320  -0.001  22.267 -0.1557 -2.2574  0.9075
10560TIP3   OH253170   1.427   2.574   5.935  0.4095 -0.3799 -0.4876
10560TIP3    H153171   1.462   2.658   5.905  1.9197 -0.3436  1.1990
10560TIP3    H253172   1.423   2.582   6.030 -2.3510 -1.1601 -0.4373
10561TIP3   OH253173   0.285   1.988   3.973  0.6126  0.0786  0.3970
10561TIP3    H153174   0.236   1.915   3.936  1.5870 -0.1472 -0.4635
10561TIP3    H253175   0.365   1.993   3.922  1.1706  0.9156  1.3088
10562TIP3   OH253176   1.906   3.391  14.822  0.7154  0.5683  0.5545
10562TIP3    H153177   1.864   3.437  14.750  1.7639 -0.1890 -0.5848
10562TIP3    H253178   1.847   3.319  14.844  0.3373  0.8734  0.5343
10563TIP3   OH253179   0.878   2.983  50.358  0.5355 -0.3064  0.1673
10563TIP3    H153180   0.932   2.908  50.383 -1.3622 -2.1788 -0.9849
10563TIP3    H253181   0.823   2.949  50.287 -1.9867  1.5157  1.1257
10564TIP3   OH253182   1.094   1.175  19.577  0.2394 -0.1370 -0.5864
10564TIP3    H153183   1.174   1.227  19.583  1.0784 -1.4241 -0.3702
10564TIP3    H253184   1.047   1.192  19.659  0.4288  0.3863 -0.5845
10565TIP3   OH253185   1.645   3.119   2.596 -0.0006 -0.6408 -0.3893
10565TIP3    H153186   1.659   3.206   2.633 -1.1295 -0.0023 -1.3899
10565TIP3    H253187   1.728   3.073   2.610 -0.1995 -0.3300  2.5307
10566TIP3   OH253188   3.403   1.294  45.422  0.2303 -0.5366  0.3089
10566TIP3    H153189   3.357   1.280  45.505 -0.7019 -0.9054 -0.2525
10566TIP3    H253190   3.441   1.209  45.401 -0.8598 -0.8818 -0.3973
10567TIP3   OH253191   3.159   1.094  61.908  0.0596 -0.1645  0.3184
10567TIP3    H153192   3.103   1.076  61.833  1.5874 -1.0667 -0.6265
10567TIP3    H253193   3.210   1.014  61.921 -0.1005 -0.0094  2.2831
10568TIP3   OH253194   0.534   1.906  42.252  0.3173  0.2004 -0.4952
10568TIP3    H153195   0.464   1.971  42.249 -0.3357 -0.4331  0.2182
10568TIP3    H253196   0.539   1.872  42.163 -0.5838 -0.0186 -0.4813
10569TIP3   OH253197   3.084   1.711  44.898 -0.0820  0.1369  0.0039
10569TIP3    H153198   3.043   1.657  44.831  0.2619 -1.7224  1.1975
10569TIP3    H253199   3.161   1.660  44.925 -0.0445  0.9730  1.5608
10570TIP3   OH253200   2.296   2.227  61.446  0.4377 -0.0971  0.4757
10570TIP3    H153201   2.234   2.263  61.382  1.1536 -0.7572 -0.6395
10570TIP3    H253202   2.302   2.293  61.514 -0.0189  0.8406 -0.3717
10571TIP3   OH253203   0.213   3.350  52.100 -0.2549 -0.4250  0.2512
10571TIP3    H153204   0.272   3.425  52.112 -0.1013 -0.5668  0.3807
10571TIP3    H253205   0.131   3.389  52.071  0.0541 -0.2634 -0.4322
10572TIP3   OH253206   2.887   1.596  50.909 -0.0708 -0.0320 -0.0040
10572TIP3    H153207   2.835   1.629  50.982 -1.1126 -2.6726  0.5362
10572TIP3    H253208   2.892   1.502  50.923  0.9283 -0.4445 -2.5846
10573TIP3   OH253209   1.367   0.802   9.190 -0.2055 -0.5853  0.2281
10573TIP3    H153210   1.445   0.857   9.190  0.5471 -1.6201  0.0865
10573TIP3    H253211   1.344   0.793   9.283 -0.4996  0.1743  0.2364
10574TIP3   OH253212   2.778   1.716  19.129 -0.1752  0.0661  0.4402
10574TIP3    H153213   2.841   1.727  19.058 -0.8090 -0.5000 -0.2135
10574TIP3    H253214   2.755   1.806  19.154  0.3488  0.2704  0.2048
10575TIP3   OH253215   2.590   0.724  16.448  0.5031 -0.1798  0.0314
10575TIP3    H153216   2.584   0.648  16.389  1.7573  0.2821 -0.7174
10575TIP3    H253217   2.503   0.763  16.445  0.2976 -0.6746 -0.8133
10576TIP3   OH253218   1.008   0.298   8.947 -0.0323  0.5823 -0.0231
10576TIP3    H153219   0.969   0.385   8.953  0.4343  0.8442 -0.6349
10576TIP3    H253220   0.947   0.247   8.894  0.0555  0.7559 -0.2935
10577TIP3   OH253221   0.108   0.226  12.265 -0.0933  0.7235 -0.0373
10577TIP3    H153222   0.182   0.287  12.258  0.0428  0.5104 -0.5093
10577TIP3    H253223   0.078   0.236  12.355  0.4655  0.8673  0.1411
10578TIP3   OH253224   1.274   0.296   0.316  0.2353 -0.2443  0.7373
10578TIP3    H153225   1.277   0.383   0.275 -0.5472 -0.4028  0.3153
10578TIP3    H253226   1.362   0.261   0.303  0.6383  0.5864  1.1459
10579TIP3   OH253227   0.932   2.633  20.586  0.0350  0.0095 -0.7165
10579TIP3    H153228   0.852   2.681  20.564 -0.0862  0.0471 -0.2079
10579TIP3    H253229   0.918   2.546  20.549 -0.6499 -0.2776  0.1620
10580TIP3   OH253230   1.619   2.473  59.345  0.1128 -0.4763 -0.4379
10580TIP3    H153231   1.630   2.419  59.423  0.7536 -1.3431 -1.1080
10580TIP3    H253232   1.526   2.467  59.324 -0.1492  0.1068  0.4841
10581TIP3   OH253233   0.409   2.324  50.384 -0.7117  0.2446 -0.5038
10581TIP3    H153234   0.492   2.286  50.409 -1.2195 -1.2891 -1.0395
10581TIP3    H253235   0.397   2.398  50.443  0.2903 -0.4618  0.6092
10582TIP3   OH253236   0.417   0.214  10.485  0.2063  0.1417  0.1385
10582TIP3    H153237   0.510   0.229  10.472  0.4295  0.3735  1.8553
10582TIP3    H253238   0.377   0.301  10.481 -0.1737 -0.0846 -2.0630
10583TIP3   OH253239   2.812   0.829  63.553  0.4178 -0.0080  0.0992
10583TIP3    H153240   2.767   0.899  63.505 -0.4335 -0.6889 -0.1242
10583TIP3    H253241   2.870   0.875  63.613  1.4991  0.8876 -1.5344
10584TIP3   OH253242   1.018   2.473  44.159  0.2518  0.5185 -0.6940
10584TIP3    H153243   1.000   2.478  44.253  0.7630 -0.2761 -0.5355
10584TIP3    H253244   0.991   2.385  44.134 -3.2423  1.8142 -2.0923
10585TIP3   OH253245   2.241   2.806  63.109  0.0084 -0.3132  0.0177
10585TIP3    H153246   2.238   2.729  63.052  3.0332  0.1527 -0.9470
10585TIP3    H253247   2.173   2.864  63.075 -1.5532 -2.0360  0.0431
10586TIP3   OH253248   0.514   3.379  58.400  0.2435  0.3631  0.1209
10586TIP3    H153249   0.499   3.454  58.458 -1.2867 -0.5975  1.0179
10586TIP3    H253250   0.609   3.375  58.391  0.5399  0.5191  2.5989
10587TIP3   OH253251   3.369   0.963  50.149 -0.1147 -0.0548  0.1599
10587TIP3    H153252   3.306   1.023  50.189 -1.4111 -0.5053 -1.1354
10587TIP3    H253253   3.417   1.017  50.086 -0.3980 -0.0836 -0.0838
10588TIP3   OH253254   0.501   0.546  15.080 -0.0500  0.4409 -0.1288
10588TIP3    H153255   0.553   0.593  15.146 -0.6002  0.3386  0.3842
10588TIP3    H253256   0.556   0.470  15.056 -0.0208  0.2498  0.5203
10589TIP3   OH253257   0.723   2.526  63.435  0.5312  0.3082 -0.1476
10589TIP3    H153258   0.660   2.455  63.447  0.2431  0.7830  1.4150
10589TIP3    H253259   0.676   2.604  63.465  1.2372  0.9730 -0.7517
10590TIP3   OH253260   0.133   2.781  62.607 -0.2032 -0.9921  0.0822
10590TIP3    H153261   0.138   2.825  62.692  0.8654 -0.1564 -0.4035
10590TIP3    H253262   0.055   2.726  62.614 -1.1441  0.3894  0.9816
10591TIP3   OH253263   2.600   0.996   0.280 -0.4096  0.2665 -0.4084
10591TIP3    H153264   2.640   0.946   0.352 -0.3951 -0.9077 -1.2125
10591TIP3    H253265   2.521   1.034   0.318 -0.0690  0.1915  0.4007
10592TIP3   OH253266   2.988   2.226  19.310 -0.0524 -0.1707 -0.0984
10592TIP3    H153267   2.966   2.305  19.261  0.1472 -0.0816 -0.0450
10592TIP3    H253268   2.910   2.171  19.303 -0.5712  0.4435  0.6986
10593TIP3   OH253269   1.433   1.795  50.469 -0.3521  0.0103 -0.0564
10593TIP3    H153270   1.476   1.711  50.484 -3.3728 -2.0006 -1.6779
10593TIP3    H253271   1.357   1.794  50.527 -0.0882  1.9620  0.3767
10594TIP3   OH253272   1.211   1.192  56.303 -0.6656  0.3269  0.9341
10594TIP3    H153273   1.243   1.121  56.247  2.3593  1.4821  0.9999
10594TIP3    H253274   1.174   1.256  56.243  0.5322  0.5641  0.4161
10595TIP3   OH253275   0.235   2.587   5.726  0.8249  0.1026 -0.5258
10595TIP3    H153276   0.264   2.590   5.635  1.0953 -0.0371 -0.4458
10595TIP3    H253277   0.176   2.662   5.735  0.9971  0.2678 -0.7473
10596TIP3   OH253278   3.000   1.836   7.766  0.5853  0.2946  0.7572
10596TIP3    H153279   2.908   1.836   7.740  0.9238 -1.2843 -0.6016
10596TIP3    H253280   2.999   1.814   7.859 -0.3828 -0.9588  0.4800
10597TIP3   OH253281   3.365   0.638  60.490  0.9985 -0.4020 -0.0281
10597TIP3    H153282   3.420   0.687  60.429  1.8294 -1.0391  0.1846
10597TIP3    H253283   3.428   0.589  60.544  0.3474  0.5897  1.7441
10598TIP3   OH253284   1.476   1.083  11.254 -0.1054 -0.1754 -0.0640
10598TIP3    H153285   1.506   1.150  11.192  0.3010  0.2159  0.5506
10598TIP3    H253286   1.393   1.116  11.288 -0.6760 -0.7106 -0.8931
10599TIP3   OH253287   1.613   0.754  22.551 -0.1459  0.4978 -0.0793
10599TIP3    H153288   1.670   0.709  22.613 -0.9370 -1.2845 -0.5642
10599TIP3    H253289   1.621   0.847  22.574  0.0962 -0.0241  2.2471
10600TIP3   OH253290   1.612   2.110  67.056  0.1510 -0.0880  0.3808
10600TIP3    H153291   1.544   2.176  67.064 -0.2789 -0.5733  0.8128
10600TIP3    H253292   1.609   2.082  66.965 -0.5754 -0.4642  0.5142
10601TIP3   OH253293   1.187   0.343  48.726 -0.4068  0.1750  0.5799
10601TIP3    H153294   1.213   0.390  48.646 -0.2944 -0.4802  0.2206
10601TIP3    H253295   1.218   0.398  48.797  0.7807  0.0748  0.1618
10602TIP3   OH253296   1.611   1.884  12.723 -0.6247 -0.4450 -0.1906
10602TIP3    H153297   1.544   1.907  12.658 -1.4143 -0.2622  0.6697
10602TIP3    H253298   1.584   1.798  12.755 -0.6449 -0.2156  0.4120
10603TIP3   OH253299   1.500   2.972  66.229  0.0281  0.0273 -0.3376
10603TIP3    H153300   1.537   2.966  66.141 -0.5929 -0.5816 -0.5578
10603TIP3    H253301   1.489   3.066  66.244  0.3932  0.1462 -0.7911
10604TIP3   OH253302   1.855   1.070   4.318 -0.4163 -0.0735 -0.2557
10604TIP3    H153303   1.904   1.127   4.376  0.3669 -0.1890 -0.7797
10604TIP3    H253304   1.898   0.985   4.326  0.8868  0.3005 -2.2923
10605TIP3   OH253305   0.175   2.256  60.220 -0.0987 -0.3665  0.2630
10605TIP3    H153306   0.102   2.194  60.214  1.1173 -1.7924 -0.4905
10605TIP3    H253307   0.177   2.282  60.312 -0.9056 -1.1066  0.5049
10606TIP3   OH253308   0.198   0.523   2.062 -0.4265  0.2126 -0.0888
10606TIP3    H153309   0.153   0.607   2.061 -0.2799  0.3432 -2.8039
10606TIP3    H253310   0.132   0.459   2.035 -0.3399 -0.4481  1.2060
10607TIP3   OH253311   0.330   2.196  53.509  0.1204  0.4480  0.1874
10607TIP3    H153312   0.311   2.220  53.418 -0.3738 -0.4699  0.0277
10607TIP3    H253313   0.253   2.146  53.536  0.3166  0.6212  1.0772
10608TIP3   OH253314   3.000   2.939  20.056 -0.3665  0.1598 -0.1701
10608TIP3    H153315   3.073   2.957  19.997 -1.2772  1.7719 -0.8613
10608TIP3    H253316   3.015   2.996  20.131 -0.0932 -0.6706  0.4170
10609TIP3   OH253317   0.174   0.527  52.377  0.0579  0.1618 -0.5897
10609TIP3    H153318   0.207   0.611  52.409 -1.0113  1.0785 -1.7837
10609TIP3    H253319   0.108   0.501  52.441  0.0920  0.4482 -0.4354
10610TIP3   OH253320   1.130   1.578  49.477 -0.3703  0.2285  0.3572
10610TIP3    H153321   1.089   1.559  49.393  0.3149  0.3243 -0.0102
10610TIP3    H253322   1.156   1.670  49.470  1.7220 -0.3311 -0.2436
10611TIP3   OH253323   1.495   2.276  57.238  0.0447  0.1869 -0.8637
10611TIP3    H153324   1.569   2.217  57.228  0.1765  0.0474  0.7083
10611TIP3    H253325   1.419   2.219  57.245  0.3029  0.0842  1.8519
10612TIP3   OH253326   0.835   2.237  56.676 -0.2097 -0.9583 -0.2311
10612TIP3    H153327   0.885   2.311  56.640 -1.4377  1.2594  2.2093
10612TIP3    H253328   0.901   2.171  56.696  1.3596  0.5813 -0.0556
10613TIP3   OH253329   0.635   2.466  12.287  0.2111  0.2326  0.0486
10613TIP3    H153330   0.730   2.456  12.299 -0.1054 -0.9804  1.7770
10613TIP3    H253331   0.619   2.559  12.301  0.7927 -0.0066  2.9082
10614TIP3   OH253332   0.186   1.771   3.331  0.9503 -0.2751  0.3920
10614TIP3    H153333   0.214   1.862   3.339 -1.4129  0.9493 -3.0594
10614TIP3    H253334   0.263   1.726   3.294  1.7996  0.4779  1.1823
10615TIP3   OH253335   1.913   2.134  62.348 -0.2624  0.2602  0.6812
10615TIP3    H153336   1.841   2.121  62.286  0.3702  0.0442 -0.0308
10615TIP3    H253337   1.926   2.047  62.387  0.6576 -0.1039 -0.3818
10616TIP3   OH253338   0.302   2.357   5.100  0.0150 -0.5599  0.3965
10616TIP3    H153339   0.322   2.451   5.099 -1.7070 -0.1429 -1.0324
10616TIP3    H253340   0.386   2.314   5.111  0.7938  1.1580  1.5712
10617TIP3   OH253341   0.760   2.577  58.725  0.3366 -0.1264 -0.0181
10617TIP3    H153342   0.780   2.512  58.657 -0.4921 -1.7294  1.2070
10617TIP3    H253343   0.752   2.526  58.805 -3.5720  0.9718  0.5142
10618TIP3   OH253344   1.728   1.886  58.341 -0.1826  0.5240 -0.4353
10618TIP3    H153345   1.712   1.817  58.276  0.4886  0.1961 -0.2671
10618TIP3    H253346   1.693   1.850  58.423  1.2714 -0.1702 -0.0799
10619TIP3   OH253347   0.585   1.415  60.356 -0.2037 -0.1529  0.7603
10619TIP3    H153348   0.537   1.414  60.273  0.3576 -0.2260  0.4295
10619TIP3    H253349   0.625   1.502  60.360  1.6671 -0.9064 -0.1747
10620TIP3   OH253350   2.019   1.110   6.539 -0.0677 -0.4622  0.2263
10620TIP3    H153351   1.979   1.127   6.454  0.4949  1.7057  0.3369
10620TIP3    H253352   1.965   1.042   6.578 -1.3174 -0.3241 -1.1895
10621TIP3   OH253353   0.398   1.572  60.547 -0.1551 -0.0689  1.4375
10621TIP3    H153354   0.341   1.497  60.561 -0.0453 -0.0625  1.9478
10621TIP3    H253355   0.467   1.562  60.613  3.0906 -2.5637 -1.9110
10622TIP3   OH253356   2.027   0.767  16.765  0.3452 -0.0572 -0.4460
10622TIP3    H153357   1.995   0.794  16.678 -0.3213  1.2917  0.1870
10622TIP3    H253358   1.987   0.681  16.779 -0.1750  0.0515 -1.1540
10623TIP3   OH253359   2.215   0.771   6.764  0.1620  0.7431  0.3102
10623TIP3    H153360   2.193   0.703   6.828  0.3268  0.4081  0.0168
10623TIP3    H253361   2.260   0.724   6.694  0.0094  1.1115 -0.0383
10624TIP3   OH253362   2.040   1.596   9.563  0.1134 -0.1838 -0.2219
10624TIP3    H153363   2.053   1.538   9.639  2.1253  2.6448  1.7882
10624TIP3    H253364   1.945   1.592   9.547 -0.2968 -1.4398  1.9699
10625TIP3   OH253365   3.448   0.732  42.507 -0.6628  0.4303  0.3853
10625TIP3    H153366   3.534   0.767  42.485  0.6205 -2.2955  0.6538
10625TIP3    H253367   3.426   0.674  42.434 -0.9419 -1.0096  1.5618
10626TIP3   OH253368   3.414   3.136  54.521 -0.5417 -0.1414 -0.2904
10626TIP3    H153369   3.418   3.041  54.531  0.0120 -0.1363 -0.4573
10626TIP3    H253370   3.455   3.154  54.437  3.2699  0.5715  1.5141
10627TIP3   OH253371   2.087   1.215  15.799  0.4478 -0.0377  0.0292
10627TIP3    H153372   2.181   1.229  15.812  0.4265 -0.3885  0.5953
10627TIP3    H253373   2.065   1.269  15.723  1.4587 -1.3223 -1.2366
10628TIP3   OH253374   0.644   1.826  47.920  0.1704 -0.2804  0.0567
10628TIP3    H153375   0.629   1.808  48.013  0.3049 -0.8316 -0.0219
10628TIP3    H253376   0.671   1.741  47.884 -0.7583 -0.2782 -0.6687
10629TIP3   OH253377   2.946   2.207  47.683 -0.2199  0.4591  0.0545
10629TIP3    H153378   3.004   2.172  47.751 -0.4937 -2.4085 -1.0622
10629TIP3    H253379   2.859   2.180  47.709 -0.3345 -0.6332 -1.3764
10630TIP3   OH253380   1.035   2.542   4.566  0.3761 -1.0078  0.2147
10630TIP3    H153381   0.967   2.476   4.557 -0.6691  0.0911 -0.2802
10630TIP3    H253382   1.026   2.574   4.655  0.8477 -1.4905  0.4376
10631TIP3   OH253383   1.033   0.738  42.497  0.3101  0.5967  0.4119
10631TIP3    H153384   1.031   0.672  42.427 -2.4805  0.8864  0.1050
10631TIP3    H253385   1.081   0.695  42.568  0.5187 -0.9125 -0.5829
10632TIP3   OH253386   0.537   3.266  61.080 -0.1123  0.9298 -0.0563
10632TIP3    H153387   0.466   3.282  61.142 -0.0668  0.6700  0.0675
10632TIP3    H253388   0.496   3.211  61.012 -0.1738  1.2488 -0.2786
10633TIP3   OH253389   2.106   2.932   3.336  0.5574  0.5243  0.2387
10633TIP3    H153390   2.106   2.991   3.411  0.2199  0.4759  0.2800
10633TIP3    H253391   2.190   2.887   3.339  0.9297  1.1982  0.0572
10634TIP3   OH253392   0.727   2.725  43.115 -0.2875  0.1165  0.6388
10634TIP3    H153393   0.793   2.756  43.177  0.5055 -3.1038  1.5956
10634TIP3    H253394   0.644   2.731  43.162 -0.0078 -0.1530  1.1712
10635TIP3   OH253395   1.654   0.673  53.611 -0.0537  0.5549  0.1756
10635TIP3    H153396   1.697   0.642  53.531  1.1464  0.7074  0.7512
10635TIP3    H253397   1.688   0.761  53.624 -0.4497  0.6327  0.7114
10636TIP3   OH253398   0.307   0.104  20.291  0.0856 -0.2082 -0.0038
10636TIP3    H153399   0.375   0.068  20.234  0.2024  0.1138 -0.0751
10636TIP3    H253400   0.231   0.048  20.277  0.2042 -0.3071 -0.2545
10637TIP3   OH253401   1.140   0.110  18.545 -0.2084 -0.0081 -0.1337
10637TIP3    H153402   1.224   0.110  18.499  1.4996 -0.0844  2.7225
10637TIP3    H253403   1.131   0.021  18.579 -0.3076  0.5744  1.4314
10638TIP3   OH253404   2.133   0.501  56.538  0.3328 -0.6297  0.3563
10638TIP3    H153405   2.128   0.456  56.623 -0.1406 -0.1224  0.6038
10638TIP3    H253406   2.226   0.506  56.519  0.5055  0.0504  1.2934
10639TIP3   OH253407   0.270   2.550  13.668 -0.3758  0.1454 -0.9094
10639TIP3    H153408   0.191   2.509  13.633  1.0645 -1.3796 -2.5898
10639TIP3    H253409   0.243   2.638  13.693 -2.5791 -0.3292 -1.4406
10640TIP3   OH253410   1.936   1.528  53.547 -0.5636 -0.4292  0.8005
10640TIP3    H153411   1.950   1.470  53.472  0.4097  0.1790  0.5030
10640TIP3    H253412   1.941   1.616  53.511  1.7570 -0.0648  1.8219
10641TIP3   OH253413   0.145   0.641  54.618  0.4046 -0.3444  0.1260
10641TIP3    H153414   0.172   0.727  54.585 -1.0443  0.2784  0.4919
10641TIP3    H253415   0.207   0.621  54.688  0.6643  0.4643  0.1339
10642TIP3   OH253416   0.057   1.193   4.231 -0.2434  0.3326  0.3113
10642TIP3    H153417   0.028   1.266   4.286  0.7510 -0.6902  2.3167
10642TIP3    H253418  -0.020   1.136   4.224 -0.6337  0.9051 -0.1268
10643TIP3   OH253419   2.023   0.835  53.907 -0.9398  0.3990 -0.0193
10643TIP3    H153420   1.928   0.835  53.918 -1.1461 -1.2265 -1.3411
10643TIP3    H253421   2.041   0.757  53.855  1.1301  0.6959  0.1560
10644TIP3   OH253422   0.551   3.044  48.562 -0.0951  0.2594  0.0367
10644TIP3    H153423   0.606   3.121  48.556  1.2708 -0.7317 -0.5914
10644TIP3    H253424   0.609   2.975  48.594 -1.0488 -0.7431 -0.3143
10645TIP3   OH253425   1.416   0.011  49.329 -0.1687 -0.5207  0.1750
10645TIP3    H153426   1.465  -0.069  49.315 -1.2171 -1.0312 -0.7927
10645TIP3    H253427   1.351   0.012  49.258 -0.3784  1.0199  0.3522
10646TIP3   OH253428   3.161   0.749   5.700 -0.2460  0.2978 -0.0272
10646TIP3    H153429   3.159   0.665   5.654  1.0387  0.4769 -0.4616
10646TIP3    H253430   3.239   0.793   5.665 -0.5138  1.3780  0.6974
10647TIP3   OH253431   0.013   1.790   8.953  0.2866  0.2506 -0.1534
10647TIP3    H153432   0.094   1.772   8.905  0.6092  2.5398 -0.5717
10647TIP3    H253433  -0.054   1.738   8.908  1.3714 -1.1696 -0.2031
10648TIP3   OH253434   0.917   1.553   2.897 -0.5268 -0.5225 -0.7800
10648TIP3    H153435   0.875   1.549   2.983  0.9215 -0.5012 -0.0422
10648TIP3    H253436   0.995   1.497   2.905 -0.6470 -0.9358 -2.2465
10649TIP3   OH253437   1.387   2.652  46.397  0.2569  0.3211 -0.3838
10649TIP3    H153438   1.462   2.683  46.448 -2.2318  1.9039  2.6874
10649TIP3    H253439   1.329   2.728  46.392 -1.9802 -1.3174 -0.9075
10650TIP3   OH253440   0.746   1.133  21.531 -0.4882 -0.2768 -0.5418
10650TIP3    H153441   0.782   1.067  21.471 -0.2038  0.9164 -1.7286
10650TIP3    H253442   0.802   1.210  21.519  0.2444 -0.3082  2.0716
10651TIP3   OH253443   1.645   1.708  17.934 -0.0121  0.7037  0.0778
10651TIP3    H153444   1.610   1.652  17.865 -1.5284 -0.3981  1.6533
10651TIP3    H253445   1.605   1.675  18.014  2.5840  1.1505  1.6775
10652TIP3   OH253446   0.551   1.282  10.989 -0.5983 -0.5036  0.4435
10652TIP3    H153447   0.645   1.274  11.008 -0.7650  0.5177  1.7978
10652TIP3    H253448   0.543   1.253  10.898  1.2913  0.9811 -0.2581
10653TIP3   OH253449   0.694   1.081  11.196 -0.2240  0.2222  0.3469
10653TIP3    H153450   0.702   0.988  11.175  0.4273 -0.4213  3.0066
10653TIP3    H253451   0.605   1.090  11.231  0.7214 -0.2008  3.1144
10654TIP3   OH253452   2.656   1.285   4.123  0.1987  0.6478 -0.4374
10654TIP3    H153453   2.651   1.281   4.027 -0.0520 -1.5514 -0.3765
10654TIP3    H253454   2.749   1.277   4.142  0.1580 -0.0134 -0.4877
10655TIP3   OH253455   1.014   3.365   4.343  0.0237  0.5555  0.4455
10655TIP3    H153456   1.032   3.343   4.435  0.8230 -0.2334  0.1114
10655TIP3    H253457   1.090   3.332   4.295  0.4937  2.5701 -0.2968
10656TIP3   OH253458   2.631   3.033  20.598 -0.5999  0.1210  0.0577
10656TIP3    H153459   2.610   2.980  20.675 -2.0318  1.3738  0.5619
10656TIP3    H253460   2.615   3.123  20.625  0.3663  0.7219 -1.2445
10657TIP3   OH253461   2.442   1.197   6.238 -0.0778 -0.2579 -0.0001
10657TIP3    H153462   2.504   1.223   6.170  0.2125  1.8135  0.9766
10657TIP3    H253463   2.377   1.268   6.239 -0.1895 -0.3535  1.7255
10658TIP3   OH253464   2.554   1.164  29.933 -0.0675 -0.3124  0.0960
10658TIP3    H153465   2.629   1.159  29.993 -0.8936  0.0461  1.1843
10658TIP3    H253466   2.535   1.258  29.926 -0.6187 -0.4230  0.0804
10659TIP3   OH253467   3.040   2.657  14.197  0.2277 -0.1647 -0.1462
10659TIP3    H153468   3.026   2.752  14.199  1.3407  0.0301 -0.8837
10659TIP3    H253469   3.130   2.646  14.167 -0.2936 -1.4899 -1.3421
10660TIP3   OH253470   0.080   0.996  21.751  0.4143 -0.0986 -0.3789
10660TIP3    H153471   0.151   0.969  21.810 -0.5752 -0.8563  0.5017
10660TIP3    H253472   0.011   1.028  21.809  1.2503  3.9209 -1.3135
10661TIP3   OH253473   2.755   2.440  27.441 -0.1680 -0.2502  0.3879
10661TIP3    H153474   2.771   2.489  27.522  0.7020  0.6678 -0.3096
10661TIP3    H253475   2.815   2.366  27.446  0.2267  0.0639  0.3808
10662TIP3   OH253476   1.347   1.195  64.804 -0.0259 -0.2283 -0.2117
10662TIP3    H153477   1.332   1.102  64.819 -2.5992  0.1723  0.1511
10662TIP3    H253478   1.366   1.202  64.711 -0.3659 -1.0647 -0.3467
10663TIP3   OH253479   1.245   3.253  52.224 -0.4273  0.0408  0.3847
10663TIP3    H153480   1.157   3.287  52.242 -1.7316 -2.5706 -0.5376
10663TIP3    H253481   1.264   3.281  52.134 -1.0612 -0.7378 -0.0062
10664TIP3   OH253482   3.016   1.586  61.611  0.0057  0.2403  0.1068
10664TIP3    H153483   3.047   1.634  61.687  1.7033 -0.5957 -0.0053
10664TIP3    H253484   2.975   1.508  61.647  0.7682 -0.1327  0.1842
10665TIP3   OH253485   2.412   2.877  44.387 -0.2469 -0.7641  0.0019
10665TIP3    H153486   2.505   2.899  44.385 -0.3292 -0.3351  0.4634
10665TIP3    H253487   2.392   2.864  44.479 -0.4458 -1.7856 -0.1729
10666TIP3   OH253488   1.865   3.297  58.443 -0.8667  1.5471  0.9810
10666TIP3    H153489   1.825   3.238  58.379  0.7397  1.0219  0.4126
10666TIP3    H253490   1.800   3.366  58.456 -1.8074  0.9118 -0.1453
10667TIP3   OH253491   1.118   0.937  38.247 -0.1133 -0.0751 -0.4343
10667TIP3    H153492   1.128   0.994  38.171  1.2718  2.4143  1.4759
10667TIP3    H253493   1.204   0.938  38.289 -0.6837 -1.8348  0.9216
10668TIP3   OH253494   2.443   2.137   0.889  0.3916  0.0849  0.0696
10668TIP3    H153495   2.454   2.192   0.966 -0.2125 -0.6584  0.7024
10668TIP3    H253496   2.394   2.191   0.827  2.0247  1.1711 -0.3491
10669TIP3   OH253497   1.501   0.555  11.358 -0.8234  0.3541  0.3599
10669TIP3    H153498   1.494   0.629  11.298 -1.1274  0.5546  0.6391
10669TIP3    H253499   1.535   0.484  11.304 -2.0657  0.2404 -0.3200
10670TIP3   OH253500   0.281   2.480   9.397 -0.0043  0.2203 -0.1549
10670TIP3    H153501   0.255   2.472   9.489  1.8854 -1.7616  0.2788
10670TIP3    H253502   0.303   2.573   9.387 -1.2163  0.6834  1.0687
10671TIP3   OH253503   2.140   0.937  65.673 -0.3301 -0.4799  0.6449
10671TIP3    H153504   2.125   0.855  65.720  2.2006 -3.0649 -2.5354
10671TIP3    H253505   2.233   0.955  65.686 -0.2133  0.2484 -0.9149
10672TIP3   OH253506   3.361   2.818  43.681 -0.7884  0.8527  0.0849
10672TIP3    H153507   3.448   2.803  43.719  1.1501  0.2268 -4.0586
10672TIP3    H253508   3.370   2.900  43.633 -1.9414 -0.0227 -1.7218
10673TIP3   OH253509   3.318   1.181  14.102  0.4544 -0.0108  0.4943
10673TIP3    H153510   3.259   1.106  14.090 -0.0958  0.6845 -1.6898
10673TIP3    H253511   3.404   1.142  14.115 -0.3243 -1.0412  3.0997
10674TIP3   OH253512   0.219   3.221  43.475  0.5575  0.1770  0.3329
10674TIP3    H153513   0.137   3.264  43.502  0.5958 -0.8319  2.1874
10674TIP3    H253514   0.287   3.270  43.520  1.3490  2.5654 -3.0386
10675TIP3   OH253515   0.308   1.259  52.585  0.1425 -0.3960 -0.3430
10675TIP3    H153516   0.342   1.288  52.670 -0.7766  0.5903 -0.2969
10675TIP3    H253517   0.236   1.200  52.607  0.5578 -0.9668 -0.4569
10676TIP3   OH253518   2.456   1.825  10.611 -0.0157  0.5995  0.2420
10676TIP3    H153519   2.417   1.749  10.654  0.0976  1.0167  1.1124
10676TIP3    H253520   2.499   1.789  10.533 -1.4327  0.0202 -0.3112
10677TIP3   OH253521   0.492   2.842   1.421 -0.0479  0.6285 -0.4885
10677TIP3    H153522   0.404   2.806   1.424  0.3501 -0.2935  1.4723
10677TIP3    H253523   0.485   2.926   1.467  0.0160  0.7946 -0.7761
10678TIP3   OH253524   2.503   1.125  43.137  0.0908 -0.1371 -0.1657
10678TIP3    H153525   2.501   1.220  43.143  1.0297  0.0822 -2.3843
10678TIP3    H253526   2.593   1.105  43.109 -0.2097 -1.6560 -0.1366
10679TIP3   OH253527   2.733   1.656  14.636  0.1122  0.0045 -0.1144
10679TIP3    H153528   2.646   1.697  14.638 -0.0238 -0.2651 -0.4750
10679TIP3    H253529   2.734   1.606  14.554 -0.2102 -1.7911  0.9334
10680TIP3   OH253530   0.839   1.194  52.379 -0.7422  0.4537 -0.0049
10680TIP3    H153531   0.774   1.127  52.361 -0.7988  0.8409 -1.3130
10680TIP3    H253532   0.915   1.146  52.411 -0.9836 -0.1762 -0.3651
10681TIP3   OH253533   3.220   1.628  13.923 -0.1312 -0.5742  0.1315
10681TIP3    H153534   3.220   1.571  13.846 -1.1602  0.6463 -0.8095
10681TIP3    H253535   3.147   1.595  13.976  1.1322 -1.9907  1.0871
10682TIP3   OH253536   1.939   2.692  17.000  0.5146  0.0310 -0.1497
10682TIP3    H153537   1.863   2.652  17.041 -0.8469  1.5798 -1.0261
10682TIP3    H253538   1.983   2.620  16.955 -0.7188 -0.8163 -0.0461
10683TIP3   OH253539   0.055   1.378   7.780  0.7411  0.4530 -0.5342
10683TIP3    H153540   0.067   1.458   7.730  0.9741  0.6469 -0.1742
10683TIP3    H253541  -0.035   1.351   7.762  1.3076 -0.3584 -2.3229
10684TIP3   OH253542   1.274   3.355  45.563  0.4762  0.3733  0.3746
10684TIP3    H153543   1.182   3.374  45.545  0.6282  1.2020  0.4498
10684TIP3    H253544   1.322   3.417  45.509  1.0396 -1.1292 -0.9300
10685TIP3   OH253545   0.795   1.426   1.751  0.3984 -0.0770  0.2020
10685TIP3    H153546   0.775   1.451   1.661 -0.9328 -0.8397  0.2504
10685TIP3    H253547   0.723   1.367   1.775  1.1372 -0.4729  1.5079
10686TIP3   OH253548   2.535   0.129  64.077  0.8853  0.4529  0.4558
10686TIP3    H153549   2.555   0.092  64.163 -2.0928 -0.4416  0.8726
10686TIP3    H253550   2.476   0.202  64.096 -0.1583 -0.0198 -0.8229
10687TIP3   OH253551   1.452   1.974  51.248  0.5200  0.4566  0.4473
10687TIP3    H153552   1.357   1.984  51.258  0.4916 -0.1800  0.8493
10687TIP3    H253553   1.470   2.006  51.159 -0.1279  0.2302  0.2278
10688TIP3   OH253554   3.195   1.880   6.689  0.1266  0.7641  0.0716
10688TIP3    H153555   3.180   1.967   6.652 -0.0675 -0.0015 -1.7568
10688TIP3    H253556   3.132   1.823   6.645 -0.0353 -0.2558  1.5322
10689TIP3   OH253557   2.104   2.533   1.962 -0.0282  0.4779  0.2291
10689TIP3    H153558   2.044   2.504   1.893 -0.0374  2.4464 -0.6677
10689TIP3    H253559   2.065   2.502   2.043  0.0272 -1.9930 -0.6048
10690TIP3   OH253560   2.196   1.595   4.673  0.2253 -0.0076  0.7789
10690TIP3    H153561   2.113   1.548   4.682  0.9401 -1.3846  0.4895
10690TIP3    H253562   2.245   1.572   4.751  0.8383 -0.3041  0.3169
10691TIP3   OH253563   2.687   1.078  62.505  0.3737  0.4465 -0.8007
10691TIP3    H153564   2.699   1.128  62.586  0.0474 -1.6830  0.6705
10691TIP3    H253565   2.776   1.053  62.479  0.3710 -1.2669  0.6112
10692TIP3   OH253566   0.581   0.166  11.517  0.7887 -0.2937 -0.0379
10692TIP3    H153567   0.592   0.220  11.439  0.7449 -1.7091 -1.0523
10692TIP3    H253568   0.637   0.090  11.503  0.2308 -0.9300  0.9774
10693TIP3   OH253569   2.797   2.833  28.337 -0.1908 -0.5221 -0.1045
10693TIP3    H153570   2.750   2.884  28.403 -1.6798 -1.6018 -0.2937
10693TIP3    H253571   2.889   2.836  28.365 -0.5791  0.3167  1.1386
10694TIP3   OH253572   3.101   0.121  57.501 -0.0029 -0.2239 -0.1048
10694TIP3    H153573   3.098   0.192  57.437  0.6263  1.2514  1.4120
10694TIP3    H253574   3.046   0.153  57.573 -0.6494 -1.8094  0.1423
10695TIP3   OH253575   2.101   2.585  50.347  0.0687 -0.0933 -0.0638
10695TIP3    H153576   2.177   2.576  50.405  0.2221 -0.0517 -0.2607
10695TIP3    H253577   2.109   2.511  50.286 -0.3091 -0.3697  0.2188
10696TIP3   OH253578   1.299   1.558  15.106 -0.1102 -0.0677 -0.1432
10696TIP3    H153579   1.383   1.514  15.105 -0.4630 -0.7579 -1.2495
10696TIP3    H253580   1.252   1.518  15.179  0.3523 -0.0021  0.1941
10697TIP3   OH253581   2.160   1.937  18.095 -0.1404  0.0597 -0.1790
10697TIP3    H153582   2.206   1.951  18.013  0.3898 -2.5295 -0.4079
10697TIP3    H253583   2.229   1.932  18.161 -0.2599 -1.2901 -0.1337
10698TIP3   OH253584   1.551   2.791  50.428 -0.1722 -0.8419 -0.3033
10698TIP3    H153585   1.567   2.793  50.333 -0.7550 -1.2897 -0.4156
10698TIP3    H253586   1.472   2.844  50.440  0.9253  0.7825  0.1714
10699TIP3   OH253587   2.693   3.014  58.752  0.2246 -0.1489  0.1786
10699TIP3    H153588   2.705   2.983  58.841 -0.3432  1.0323  0.6803
10699TIP3    H253589   2.781   3.040  58.724  0.6031 -1.5611 -0.0347
10700TIP3   OH253590   2.778   0.110  44.853 -0.5381 -0.3911 -0.1596
10700TIP3    H153591   2.743   0.043  44.911 -3.2144  0.9780 -0.0429
10700TIP3    H253592   2.772   0.191  44.904  0.1130  0.3515 -1.2170
10701TIP3   OH253593   1.279   2.851   6.477 -0.0967  0.1612 -0.3396
10701TIP3    H153594   1.245   2.823   6.392  0.9012 -2.5730  0.0703
10701TIP3    H253595   1.342   2.784   6.502  0.3859  1.3917  2.1453
10702TIP3   OH253596   1.006   2.928   4.580 -0.0710 -0.1934  0.3750
10702TIP3    H153597   1.003   2.990   4.653 -0.5867  0.4573 -0.1855
10702TIP3    H253598   1.017   2.983   4.503  1.9011 -0.9575  0.0644
10703TIP3   OH253599   0.200   1.568  65.015 -0.1384 -0.0172 -0.5665
10703TIP3    H153600   0.156   1.529  64.940 -0.4390 -0.2382 -0.2815
10703TIP3    H253601   0.246   1.644  64.979  0.3215 -0.5391 -1.1032
10704TIP3   OH253602   1.685   3.366  10.830 -0.0427 -0.0034  0.5669
10704TIP3    H153603   1.687   3.281  10.787  1.7947  0.7856 -1.0510
10704TIP3    H253604   1.759   3.365  10.890  1.0397  0.9991 -0.6904
10705TIP3   OH253605   2.499   1.851   4.926  0.0225 -0.0999 -0.0038
10705TIP3    H153606   2.521   1.807   5.008 -1.2529 -0.0842  0.3665
10705TIP3    H253607   2.583   1.864   4.882  0.9718  1.5242  2.1059
10706TIP3   OH253608   0.647   2.773  11.434  0.2608 -0.3248  0.6736
10706TIP3    H153609   0.728   2.817  11.407 -0.5758  0.0894 -1.3211
10706TIP3    H253610   0.648   2.690  11.387 -1.7227  0.8406 -1.5914
10707TIP3   OH253611   1.908   3.082  13.872 -0.0393  0.3311  0.4159
10707TIP3    H153612   1.825   3.108  13.832  0.7141 -0.9811 -2.2598
10707TIP3    H253613   1.890   2.996  13.912  0.2973 -0.6472 -1.4360
10708TIP3   OH253614   0.812   1.487  44.971  0.4036 -0.5408  0.4271
10708TIP3    H153615   0.896   1.514  44.933  0.2340  0.5462  0.8023
10708TIP3    H253616   0.747   1.542  44.927  0.1760  0.5864  2.0893
10709TIP3   OH253617   1.605   0.039   0.807 -0.1392 -0.2992 -0.2283
10709TIP3    H153618   1.571  -0.031   0.862 -1.8396  0.1492 -0.6731
10709TIP3    H253619   1.569   0.022   0.720 -1.3278  1.5950 -0.1518
10710TIP3   OH253620   0.632   2.016  64.371  0.5520  0.1511 -0.3625
10710TIP3    H153621   0.574   1.988  64.442 -1.0159 -0.7975 -1.9504
10710TIP3    H253622   0.614   2.109  64.361  0.2437  0.1327  0.0066
10711TIP3   OH253623   2.997   0.721  67.112 -0.0214 -0.5447 -0.5072
10711TIP3    H153624   2.928   0.664  67.146  0.6155 -0.7047  0.5578
10711TIP3    H253625   3.060   0.661  67.071  0.0038 -0.4884 -0.5521
10712TIP3   OH253626   2.743   0.316  30.730 -0.2241 -0.6003 -0.1339
10712TIP3    H153627   2.702   0.338  30.647 -0.3333 -2.8783 -0.7602
10712TIP3    H253628   2.674   0.331  30.796 -0.2861  0.7508 -0.4770
10713TIP3   OH253629   1.127   3.394   6.784 -0.1730  0.0648 -0.3546
10713TIP3    H153630   1.150   3.479   6.745  0.7157  0.7416  1.5111
10713TIP3    H253631   1.032   3.388   6.776 -0.1415  0.7739 -1.4022
10714TIP3   OH253632   2.110   2.006   4.433  0.0652  0.0490 -0.0290
10714TIP3    H153633   2.071   1.972   4.353 -1.2729  1.7382 -0.1663
10714TIP3    H253634   2.079   2.097   4.438  1.4922  0.5086  1.5255
10715TIP3   OH253635   3.384   2.266  29.970 -0.0549  0.0148  0.2499
10715TIP3    H153636   3.456   2.216  29.931  1.0874  0.8676  1.1692
10715TIP3    H253637   3.341   2.204  30.030  0.8555 -0.1152  0.7974
10716TIP3   OH253638   3.311   2.365  62.698 -0.0502  0.0302  0.2441
10716TIP3    H153639   3.313   2.271  62.680  1.4615  0.2085 -0.7534
10716TIP3    H253640   3.323   2.372  62.792  0.2384 -0.7770  0.2749
10717TIP3   OH253641   0.166   3.370  19.729 -0.3724  0.3833 -0.2192
10717TIP3    H153642   0.181   3.439  19.664 -0.4313  1.3387  0.7494
10717TIP3    H253643   0.244   3.371  19.784 -0.8927  0.5119  0.5339
10718TIP3   OH253644   2.373   1.962  44.084  0.2416  0.0207  0.1481
10718TIP3    H153645   2.412   1.903  44.149  2.5946  0.3181 -0.8804
10718TIP3    H253646   2.424   1.947  44.005 -2.5075 -0.3116 -1.7004
10719TIP3   OH253647   2.618   3.244  30.613  0.1957  0.0356  0.3620
10719TIP3    H153648   2.674   3.225  30.688  2.3498 -2.2168 -1.6120
10719TIP3    H253649   2.633   3.337  30.596  2.7444 -0.2480  0.5265
10720TIP3   OH253650   1.538   1.928  54.096  0.4817  0.3945  0.6413
10720TIP3    H153651   1.561   1.943  54.004 -1.0006 -2.1761 -0.2452
10720TIP3    H253652   1.623   1.918  54.140  1.1978  0.1455 -0.7409
10721TIP3   OH253653   1.975   1.619  64.224  0.3453 -0.1160 -0.1794
10721TIP3    H153654   2.006   1.604  64.313 -1.5875 -0.3306  0.4882
10721TIP3    H253655   2.055   1.623  64.172  1.4594 -1.4378  1.3210
10722TIP3   OH253656   0.159   2.731  22.121  0.7482  0.6707  0.5058
10722TIP3    H153657   0.089   2.740  22.186 -0.1571  2.2680 -0.6275
10722TIP3    H253658   0.220   2.802  22.142  0.5912  1.0189 -0.1932
10723TIP3   OH253659   2.970   2.103  62.701  0.6011  0.3142  0.5048
10723TIP3    H153660   3.000   2.019  62.668 -0.3417  0.1307  0.0888
10723TIP3    H253661   2.996   2.166  62.634 -0.6157  0.0482 -0.2390
10724TIP3   OH253662   3.252   2.585  65.094 -0.3175 -0.3388  0.1024
10724TIP3    H153663   3.240   2.573  65.000  0.7127 -1.5013  0.1038
10724TIP3    H253664   3.222   2.503  65.133  1.9322 -1.0246  0.5413
10725TIP3   OH253665   1.205   0.490  11.048 -0.4597 -0.8724  0.0479
10725TIP3    H153666   1.224   0.581  11.068 -0.9739 -1.2611  2.6946
10725TIP3    H253667   1.134   0.493  10.984  0.3157  0.5412 -0.7900
10726TIP3   OH253668   1.546   1.891  22.214 -0.0935 -0.4720  0.1369
10726TIP3    H153669   1.516   1.810  22.171  0.9841  0.4568 -2.5877
10726TIP3    H253670   1.550   1.869  22.307 -3.7252 -2.3152  0.0609
10727TIP3   OH253671   1.680   3.035  43.639 -0.3648 -0.2147  0.4504
10727TIP3    H153672   1.719   3.095  43.703 -0.2450 -0.2034  0.3669
10727TIP3    H253673   1.649   2.962  43.692  1.5698 -1.1879  0.3117
10728TIP3   OH253674   1.138   3.020  12.768  0.3590  0.2038  0.3653
10728TIP3    H153675   1.196   3.055  12.836  0.0448  1.1809  0.1444
10728TIP3    H253676   1.197   2.996  12.697  0.7343 -1.2431  1.1332
10729TIP3   OH253677   0.557   2.037  62.894  0.3021 -0.2486  0.7728
10729TIP3    H153678   0.494   2.032  62.966  0.4369  0.3949  0.9390
10729TIP3    H253679   0.505   2.019  62.816  0.5451 -3.1709  1.1838
10730TIP3   OH253680   0.725   0.885  16.560 -0.5106 -0.5295  0.1685
10730TIP3    H153681   0.666   0.849  16.494 -0.4326 -0.8857  0.2914
10730TIP3    H253682   0.767   0.808  16.598 -1.1891 -0.3919  1.2380
10731TIP3   OH253683   0.680   2.000   3.757  0.0086  0.6202  0.2301
10731TIP3    H153684   0.702   2.030   3.668  0.3326  0.6068  0.3044
10731TIP3    H253685   0.724   1.915   3.765  1.7329  1.5422  1.1262
10732TIP3   OH253686   1.913   1.067   0.029 -0.2683  0.0274 -0.5364
10732TIP3    H153687   1.847   1.122  -0.013  0.2242  1.0244 -0.0388
10732TIP3    H253688   1.888   1.066   0.122  0.9135  1.1874 -0.1769
10733TIP3   OH253689   3.389   0.696  56.794  0.3759 -0.0131 -0.1953
10733TIP3    H153690   3.354   0.674  56.708 -1.4265  1.0370  0.2020
10733TIP3    H253691   3.314   0.731  56.842  1.2857 -0.7350  1.8795
10734TIP3   OH253692   2.163   2.671   0.357 -0.0634 -0.4322 -0.2968
10734TIP3    H153693   2.249   2.713   0.345 -1.0363  1.6946 -0.1834
10734TIP3    H253694   2.132   2.704   0.441 -2.0154  0.7245 -1.4242
10735TIP3   OH253695   1.255   0.697  14.018 -0.0663  0.1914  0.3082
10735TIP3    H153696   1.270   0.687  13.924 -0.3642  0.1345  0.2649
10735TIP3    H253697   1.324   0.757  14.048  0.4032 -0.2786  0.1688
10736TIP3   OH253698   3.033   1.268   0.956  0.1588  0.1806  0.0365
10736TIP3    H153699   2.971   1.218   1.009  1.2864 -1.6277 -0.2575
10736TIP3    H253700   2.978   1.330   0.907 -1.1901 -0.0833  1.1577
10737TIP3   OH253701   2.713   2.544   5.906  0.0774  0.3861  0.1576
10737TIP3    H153702   2.718   2.574   5.997 -0.5938  0.1964  0.2603
10737TIP3    H253703   2.620   2.542   5.886  0.0728 -1.6761  0.1692
10738TIP3   OH253704   1.359   1.305  45.770  0.1088 -0.9343  0.4184
10738TIP3    H153705   1.309   1.241  45.821 -1.3826  0.4619  0.7733
10738TIP3    H253706   1.393   1.366  45.836  0.1222 -0.4280 -0.0507
10739TIP3   OH253707   2.601   2.301  48.070 -0.8581  0.3301  0.2775
10739TIP3    H153708   2.537   2.253  48.017 -2.4661  2.4677  0.1307
10739TIP3    H253709   2.668   2.329  48.007 -2.6765  2.7250 -0.7696
10740TIP3   OH253710   2.535   3.014  66.254 -0.4402 -0.2864 -0.1406
10740TIP3    H153711   2.457   2.976  66.294 -0.1405 -0.3347  0.4180
10740TIP3    H253712   2.549   2.963  66.174 -1.3723  0.1771 -0.6141
10741TIP3   OH253713   2.351   0.897   2.039 -0.2134  0.3880  0.2584
10741TIP3    H153714   2.391   0.904   2.126  1.1560  1.0641 -0.3986
10741TIP3    H253715   2.308   0.981   2.025 -1.6914 -0.2220  0.8282
10742TIP3   OH253716   2.362   0.565  61.779  0.6066  0.7045 -0.4173
10742TIP3    H153717   2.284   0.559  61.723  1.3815 -0.4613 -1.4325
10742TIP3    H253718   2.351   0.495  61.843  0.8669  0.4385 -0.6550
10743TIP3   OH253719   1.279   1.315  52.765 -0.1561 -0.2022  0.1083
10743TIP3    H153720   1.348   1.381  52.763 -0.3778  0.0523  0.8002
10743TIP3    H253721   1.289   1.268  52.682  0.8703 -0.1954  0.2210
10744TIP3   OH253722   3.241   0.435  50.029 -0.0441  0.2333  0.0380
10744TIP3    H153723   3.331   0.464  50.044  0.2565 -0.9069  0.5913
10744TIP3    H253724   3.192   0.470  50.104 -0.1100  1.0173 -0.3599
10745TIP3   OH253725   0.294   2.003  62.983  0.3088 -0.2959 -0.4143
10745TIP3    H153726   0.228   2.014  62.915 -2.2213  0.2618  1.9398
10745TIP3    H253727   0.259   2.051  63.058  1.8115 -2.6620  1.9835
10746TIP3   OH253728   0.799   2.355  47.451  0.0659  0.2021  0.2054
10746TIP3    H153729   0.876   2.410  47.468  0.7319 -0.5572 -0.2622
10746TIP3    H253730   0.823   2.305  47.373 -0.8928 -0.0804  0.0864
10747TIP3   OH253731   1.421   2.911   1.347  0.3504  0.5697 -0.9157
10747TIP3    H153732   1.500   2.866   1.377 -0.8649 -1.4377 -0.5262
10747TIP3    H253733   1.407   2.980   1.411 -0.2571 -1.4521  1.2746
10748TIP3   OH253734   2.945   2.598  18.218 -0.0707 -0.4057  0.3016
10748TIP3    H153735   2.996   2.679  18.210  0.0124 -0.5382 -0.6640
10748TIP3    H253736   2.993   2.534  18.166  0.3775 -1.3561  1.8203
10749TIP3   OH253737   3.090   1.686  55.826  0.4987 -0.2091 -0.2235
10749TIP3    H153738   3.072   1.633  55.748 -0.6405 -1.2510  0.7166
10749TIP3    H253739   3.121   1.624  55.892  0.5174  0.5128  0.4668
10750TIP3   OH253740   2.477   1.410  48.182 -0.3399 -0.3270  0.1552
10750TIP3    H153741   2.557   1.405  48.235  0.6143  0.8490 -1.0909
10750TIP3    H253742   2.505   1.450  48.100 -2.3036  0.5267 -0.1585
10751TIP3   OH253743   1.119   2.219  11.388 -0.0030 -0.3608  0.3789
10751TIP3    H153744   1.150   2.132  11.413 -0.2736 -0.3358  0.8018
10751TIP3    H253745   1.161   2.278  11.451 -0.9826 -0.3366  1.0285
10752TIP3   OH253746   1.339   1.467  65.441  0.6240 -0.1577  0.0065
10752TIP3    H153747   1.272   1.460  65.508 -1.2468 -0.9466 -1.8450
10752TIP3    H253748   1.296   1.512  65.368  2.6144  0.7713 -0.6720
10753TIP3   OH253749   1.589   1.336  55.829 -0.2335 -0.1483 -0.1054
10753TIP3    H153750   1.510   1.373  55.789 -0.4899 -1.2097 -0.6189
10753TIP3    H253751   1.600   1.251  55.785  1.6044  0.2930 -0.5684
10754TIP3   OH253752   1.796   0.877   3.832  0.1917 -0.3092  0.2107
10754TIP3    H153753   1.736   0.805   3.853  0.9329 -0.6553  1.2614
10754TIP3    H253754   1.771   0.947   3.893 -1.2783  0.7943 -1.5730
10755TIP3   OH253755   0.488   2.176  60.322  0.7129  1.0085  0.7317
10755TIP3    H153756   0.413   2.142  60.274  1.0341  0.9239  0.2780
10755TIP3    H253757   0.453   2.203  60.407  0.1830  0.9333  0.5365
10756TIP3   OH253758   0.184   2.072   6.879 -0.0169 -0.1185 -0.3814
10756TIP3    H153759   0.103   2.101   6.920  0.9592  0.5258  1.1615
10756TIP3    H253760   0.199   1.984   6.915  0.7173  0.3528  0.4939
10757TIP3   OH253761   3.349   3.100   2.048  0.8490 -0.2062 -0.3750
10757TIP3    H153762   3.295   3.120   2.124  1.7677  1.1167 -0.0331
10757TIP3    H253763   3.355   3.183   2.000 -0.9948 -1.3327 -2.7848
10758TIP3   OH253764   3.288   0.535  50.816 -0.1211  0.7561  0.1198
10758TIP3    H153765   3.245   0.457  50.781  0.4520  0.4655  0.0573
10758TIP3    H253766   3.219   0.601  50.818 -0.1025  0.9049 -1.9303
10759TIP3   OH253767   1.254   1.688  64.560  0.0864  0.4678  0.0737
10759TIP3    H153768   1.292   1.743  64.628  1.7311 -1.3951  0.7630
10759TIP3    H253769   1.160   1.691  64.575  0.3868  0.4620  2.1352
10760TIP3   OH253770   2.654   1.948  10.962 -0.1227  0.6009 -0.3827
10760TIP3    H153771   2.661   2.017  11.027 -0.2038  1.1341 -0.9234
10760TIP3    H253772   2.693   1.986  10.883 -3.1657  1.3143 -1.6805
10761TIP3   OH253773   3.130   1.728   3.260  0.4415 -0.3141 -0.3450
10761TIP3    H153774   3.222   1.727   3.287  0.8156  1.8177 -1.3839
10761TIP3    H253775   3.132   1.732   3.165 -0.7740 -1.2986 -0.4425
10762TIP3   OH253776   1.427   3.249  12.592  0.1565  0.0079 -0.9537
10762TIP3    H153777   1.385   3.195  12.659  0.0806  0.5060 -0.5874
10762TIP3    H253778   1.514   3.211  12.582 -0.8102 -1.8868 -2.7189
10763TIP3   OH253779   2.520   2.602   8.552 -0.0899 -0.0820  0.1812
10763TIP3    H153780   2.495   2.545   8.479 -0.5012 -0.5046  0.6438
10763TIP3    H253781   2.497   2.553   8.630  0.6200  0.2458  0.6078
10764TIP3   OH253782   1.762   0.850  14.544 -0.1907 -1.2292 -0.1323
10764TIP3    H153783   1.840   0.884  14.499 -1.4907  2.6021  0.1554
10764TIP3    H253784   1.766   0.887  14.632 -2.3256 -0.8188 -0.1445
10765TIP3   OH253785   2.944   2.929  19.644  0.4228 -0.1761  0.2129
10765TIP3    H153786   2.912   2.990  19.710  0.0619 -0.5671  0.4079
10765TIP3    H253787   3.033   2.958  19.625 -0.1385  1.1311 -0.5661
10766TIP3   OH253788   2.217   0.957  55.179 -0.3340 -0.4589  0.5894
10766TIP3    H153789   2.277   0.982  55.249 -1.2820  0.7036  1.0263
10766TIP3    H253790   2.235   0.864  55.163  0.9274 -0.3568  1.3295
10767TIP3   OH253791   0.583   2.267  37.393  0.0047 -0.3522  0.5245
10767TIP3    H153792   0.640   2.339  37.364  0.0244  0.1628  1.7822
10767TIP3    H253793   0.521   2.256  37.321  1.4978 -0.7387 -0.7676
10768TIP3   OH253794   2.539   2.455   2.346 -0.0434  0.2150  0.2595
10768TIP3    H153795   2.492   2.537   2.334 -0.1037  0.2540  0.7553
10768TIP3    H253796   2.612   2.460   2.284 -0.1144  0.5899  0.2057
10769TIP3   OH253797   0.012   2.446   2.869  0.3960 -0.2063 -0.1124
10769TIP3    H153798   0.027   2.518   2.931 -1.4684  0.8454 -0.8308
10769TIP3    H253799   0.000   2.369   2.925 -0.7664  0.6343  0.8540
10770TIP3   OH253800   1.287   1.773   8.315 -0.5707  0.2442 -0.3702
10770TIP3    H153801   1.346   1.814   8.378  0.2720  0.0120 -0.9750
10770TIP3    H253802   1.224   1.841   8.293  0.1495  0.8813 -0.5398
10771TIP3   OH253803   1.798   3.246   5.580  0.6249  0.1231 -0.0675
10771TIP3    H153804   1.842   3.269   5.662  0.7717  2.3530 -0.7175
10771TIP3    H253805   1.729   3.311   5.570 -0.5591 -1.1985 -0.8521
10772TIP3   OH253806   3.103   3.038  51.440  0.3304 -0.7979  0.2544
10772TIP3    H153807   3.186   3.045  51.394 -0.3947 -1.4712 -1.2059
10772TIP3    H253808   3.059   2.964  51.399 -2.1136  1.1166 -0.8438
10773TIP3   OH253809   2.880   0.879   2.779  0.1519 -0.1151  0.1762
10773TIP3    H153810   2.833   0.797   2.793 -0.9200  0.5928  0.8824
10773TIP3    H253811   2.971   0.860   2.803 -0.5411 -0.4472  2.8154
10774TIP3   OH253812   1.107   1.734  38.288  0.6167 -0.3451 -0.8452
10774TIP3    H153813   1.045   1.795  38.248  1.0780  0.0761 -0.9286
10774TIP3    H253814   1.055   1.657  38.310 -0.5472  1.0098  1.5726
10775TIP3   OH253815   1.286   0.685  59.780 -0.2359 -0.3136  0.5303
10775TIP3    H153816   1.350   0.744  59.740  0.0400 -0.3289  0.9432
10775TIP3    H253817   1.228   0.661  59.708 -0.5253  0.6889  0.4103
10776TIP3   OH253818   1.788   0.175   8.789 -0.7792 -0.0459  0.0093
10776TIP3    H153819   1.756   0.100   8.738 -1.4190  0.3204 -0.1411
10776TIP3    H253820   1.839   0.137   8.860 -0.4081 -0.5926 -0.5359
10777TIP3   OH253821   2.314   2.278  22.185 -0.4693 -0.4856  0.0484
10777TIP3    H153822   2.304   2.361  22.138 -2.1424 -0.6943 -0.0314
10777TIP3    H253823   2.346   2.303  22.271  0.2142  0.1200 -0.3645
10778TIP3   OH253824   0.395   0.250  60.619  0.1669 -0.0669  0.2367
10778TIP3    H153825   0.308   0.252  60.658 -0.3512  0.3806 -0.8972
10778TIP3    H253826   0.395   0.174  60.562  0.2929  0.2989 -0.2590
10779TIP3   OH253827   2.365   0.562   8.745 -0.6569  1.0070 -0.4489
10779TIP3    H153828   2.309   0.638   8.762 -0.1321  1.2047  0.4579
10779TIP3    H253829   2.367   0.515   8.829  0.5778  1.0315 -0.4547
10780TIP3   OH253830   1.970   0.823   4.408 -0.3891  0.0785  0.1804
10780TIP3    H153831   2.064   0.816   4.394 -0.4676  2.2969 -2.1590
10780TIP3    H253832   1.931   0.768   4.340 -0.8440 -1.5044  1.6544
10781TIP3   OH253833   2.155   0.357  16.977 -0.2473 -0.3969  0.0697
10781TIP3    H153834   2.082   0.320  17.027 -1.2205  0.1857 -0.8608
10781TIP3    H253835   2.231   0.306  17.004 -1.0911 -1.3588  0.7139
10782TIP3   OH253836   2.377   3.180  49.157  0.0262  0.5972  0.5014
10782TIP3    H153837   2.463   3.138  49.169  1.4351  2.5294 -1.8922
10782TIP3    H253838   2.349   3.150  49.071 -1.0202  1.1565  0.6448
10783TIP3   OH253839   1.892   1.962  10.098  0.1757 -0.5835 -0.0763
10783TIP3    H153840   1.894   1.882  10.151 -1.0543 -0.1537  0.6702
10783TIP3    H253841   1.806   2.000  10.116 -0.9993 -1.2124 -3.5834
10784TIP3   OH253842   1.686   2.711  63.685 -0.3839  0.5336 -0.1501
10784TIP3    H153843   1.600   2.752  63.672 -1.3779 -1.2534  0.5100
10784TIP3    H253844   1.667   2.618  63.693  1.8536 -0.1849 -2.1328
10785TIP3   OH253845   1.136   1.714  14.926 -0.0623 -0.5570  0.0022
10785TIP3    H153846   1.193   1.650  14.967 -0.4766 -0.9041  0.0324
10785TIP3    H253847   1.049   1.674  14.926 -1.3008  1.6012  3.8366
10786TIP3   OH253848   0.070   1.869  57.847 -0.2936 -0.4380 -0.6081
10786TIP3    H153849   0.066   1.839  57.756 -1.8860 -0.7461 -0.4718
10786TIP3    H253850   0.138   1.815  57.887 -0.8665 -1.6288 -1.1806
10787TIP3   OH253851   1.933   1.746  44.389 -0.3142 -0.7393 -0.6563
10787TIP3    H153852   2.019   1.771  44.355 -0.0725 -1.2473 -0.4401
10787TIP3    H253853   1.872   1.769  44.320 -0.2128  1.1778 -0.1585
10788TIP3   OH253854   2.813   0.989   9.349  0.0773 -0.2079 -0.4775
10788TIP3    H153855   2.743   0.923   9.357  1.4963 -1.7030  0.3112
10788TIP3    H253856   2.785   1.061   9.405 -0.4807 -1.1359  0.4859
10789TIP3   OH253857   2.186   0.896  14.592  0.1051  0.0905  0.1021
10789TIP3    H153858   2.118   0.868  14.532 -0.8390  1.7847  0.3267
10789TIP3    H253859   2.139   0.932  14.667  1.2610  0.1685  0.8186
10790TIP3   OH253860   1.615   2.086  19.781 -0.1364 -0.7538 -0.2445
10790TIP3    H153861   1.607   2.013  19.843 -1.2971 -0.9704 -0.6237
10790TIP3    H253862   1.686   2.140  19.817 -0.5145 -1.0845  1.0665
10791TIP3   OH253863   2.084   3.370  13.275  0.6113  0.3343 -0.2899
10791TIP3    H153864   2.160   3.316  13.251  0.5218 -0.5085  1.2088
10791TIP3    H253865   2.109   3.411  13.358 -1.0982 -1.1300  1.0206
10792TIP3   OH253866   0.131   1.060   3.132  0.1449 -0.4854  0.1254
10792TIP3    H153867   0.103   1.149   3.114 -0.7084 -0.4333  1.5643
10792TIP3    H253868   0.182   1.034   3.055  0.8013  1.3912 -0.1107
10793TIP3   OH253869   0.951   1.092   0.343  0.1704  0.1217 -0.6644
10793TIP3    H153870   0.975   1.016   0.289 -0.1972 -0.4014 -0.1046
10793TIP3    H253871   0.929   1.055   0.428 -1.1561  0.7344 -0.7232
10794TIP3   OH253872   1.256   1.463  38.036  1.0052  0.3639 -0.1525
10794TIP3    H153873   1.205   1.470  38.117  0.2933 -1.8937 -0.3343
10794TIP3    H253874   1.347   1.459  38.066  0.9597  2.2177  0.3297
10795TIP3   OH253875   0.980   0.883  55.276  0.1083  0.0798 -0.3855
10795TIP3    H153876   0.931   0.802  55.264  0.7539 -0.4685  0.4888
10795TIP3    H253877   0.917   0.944  55.313  0.3188 -1.0272  2.0436
10796TIP3   OH253878   2.728   3.278   8.847 -0.2473 -0.2316 -0.5348
10796TIP3    H153879   2.802   3.281   8.786  0.4734 -0.9070  0.2958
10796TIP3    H253880   2.694   3.368   8.847  0.7086  0.1453 -0.7601
10797TIP3   OH253881   0.437   0.226  62.286  0.2954  0.0383 -0.1416
10797TIP3    H153882   0.402   0.196  62.370 -0.9820 -0.0748 -0.6900
10797TIP3    H253883   0.381   0.301  62.263 -0.1557 -0.6914 -1.4624
10798TIP3   OH253884   2.489   0.059  61.495 -0.5384  0.3845 -0.2105
10798TIP3    H153885   2.451   0.061  61.407  2.7347  0.0080 -1.7923
10798TIP3    H253886   2.496  -0.034  61.515  0.6222  0.4000 -0.4960
10799TIP3   OH253887   3.163   2.622  10.444 -0.0312 -0.1134 -0.4359
10799TIP3    H153888   3.108   2.592  10.372 -2.1713  0.0164  1.0479
10799TIP3    H253889   3.154   2.718  10.443  1.9312  0.1158 -1.4499
10800TIP3   OH253890   1.677   1.807  45.993  0.6950 -0.5561  0.2211
10800TIP3    H153891   1.771   1.810  45.974  0.7780 -1.1551  0.4916
10800TIP3    H253892   1.656   1.713  45.988  0.8427 -0.8919  3.6110
10801TIP3   OH253893   0.401   1.098  11.271  0.0450  0.1638 -0.6012
10801TIP3    H153894   0.329   1.101  11.334  0.7967  2.1814  0.2347
10801TIP3    H253895   0.370   1.037  11.203 -0.6454 -2.3806  1.8061
10802TIP3   OH253896   2.900   2.554  17.799  0.1544  0.1383 -0.5867
10802TIP3    H153897   2.834   2.600  17.851 -2.6709 -2.7722 -1.2985
10802TIP3    H253898   2.951   2.625  17.758 -2.5857  2.6085 -0.0894
10803TIP3   OH253899   1.595   1.412  19.344 -0.7035 -0.4833  0.2429
10803TIP3    H153900   1.674   1.464  19.336 -0.2215 -1.4013 -1.6888
10803TIP3    H253901   1.626   1.323  19.362 -1.2110 -0.9734 -1.1504
10804TIP3   OH253902   0.432   0.529   2.324 -0.2669 -0.2436  0.2178
10804TIP3    H153903   0.349   0.574   2.343 -1.0560 -1.0967 -1.0922
10804TIP3    H253904   0.407   0.440   2.302  0.6353  0.2047 -3.2490
10805TIP3   OH253905   2.497   0.135  65.382 -0.0684 -0.3958 -0.5688
10805TIP3    H153906   2.445   0.111  65.458 -1.4511 -1.8746 -1.8927
10805TIP3    H253907   2.558   0.061  65.371  0.0730 -0.2273 -0.9316
10806TIP3   OH253908   1.566   1.736  10.276 -0.3481  0.4102 -0.1141
10806TIP3    H153909   1.515   1.690  10.209 -0.8224  0.9530 -0.1281
10806TIP3    H253910   1.572   1.674  10.349  0.4741 -0.3256 -0.7765
10807TIP3   OH253911   0.759   0.503  13.533  0.1957  0.1056  0.2424
10807TIP3    H153912   0.825   0.562  13.494  0.9251 -0.7253  0.1825
10807TIP3    H253913   0.767   0.518  13.627  0.2522  0.2324  0.2192
10808TIP3   OH253914   1.275   0.510  58.698 -0.0325  0.1177 -0.1577
10808TIP3    H153915   1.245   0.597  58.669  0.7568  0.7188  0.7660
10808TIP3    H253916   1.318   0.473  58.621  0.1780  0.8098 -0.3813
10809TIP3   OH253917   3.299   3.196   5.100 -0.1130  0.0350 -0.8933
10809TIP3    H153918   3.389   3.200   5.132 -0.5898  1.2916  0.3778
10809TIP3    H253919   3.283   3.282   5.062 -1.2291  0.3461  0.2277
10810TIP3   OH253920   1.809   1.471  55.922 -0.1078 -0.3828  0.1358
10810TIP3    H153921   1.737   1.411  55.902  0.9814 -1.3867 -0.8549
10810TIP3    H253922   1.863   1.424  55.986 -0.5213  0.5409  1.2011
10811TIP3   OH253923   1.886   2.782   1.724 -0.4678  0.1180 -0.3577
10811TIP3    H153924   1.909   2.772   1.631  1.3395 -2.8090  0.2618
10811TIP3    H253925   1.829   2.708   1.742 -1.5827  1.1966  0.7159
10812TIP3   OH253926   0.336   2.640  67.332  0.0504  0.5650  0.5915
10812TIP3    H153927   0.316   2.664  67.423  0.5634 -0.3979  0.9776
10812TIP3    H253928   0.421   2.597  67.338 -0.0758  0.1862 -0.3073
10813TIP3   OH253929   2.570   0.799  16.099 -0.4531  0.5279 -0.4454
10813TIP3    H153930   2.621   0.810  16.019 -0.3260  0.5567 -0.3618
10813TIP3    H253931   2.513   0.725  16.082  0.9939 -0.7807  0.1606
10814TIP3   OH253932   1.127   1.934  48.589 -0.2029 -0.4235  0.0210
10814TIP3    H153933   1.077   1.921  48.669 -2.1305  0.4826 -0.9722
10814TIP3    H253934   1.147   2.027  48.588 -0.1926 -0.4315 -0.5601
10815TIP3   OH253935   3.365   0.951  28.325  0.0762  0.8170 -0.2447
10815TIP3    H153936   3.422   0.915  28.257 -0.8479 -0.9762 -0.1177
10815TIP3    H253937   3.322   0.875  28.363 -1.8249  2.0573  0.2018
10816TIP3   OH253938   1.386   0.546   2.039  0.4220 -0.4690  0.0156
10816TIP3    H153939   1.390   0.576   1.948  0.3784 -0.4470  0.0204
10816TIP3    H253940   1.380   0.627   2.090 -0.3964 -0.5005 -0.0139
10817TIP3   OH253941   2.773   1.712  18.575 -0.0776  0.0543  0.5363
10817TIP3    H153942   2.701   1.725  18.638 -0.5105 -0.4771  0.1642
10817TIP3    H253943   2.815   1.630  18.604  0.3725  0.3535  0.7401
10818TIP3   OH253944   1.775   1.661   3.190 -0.1464 -0.1323  0.3248
10818TIP3    H153945   1.714   1.706   3.132  0.7626  2.7257  1.4322
10818TIP3    H253946   1.725   1.646   3.270  0.4777  2.1683  1.2159
10819TIP3   OH253947   2.422   1.244  13.868  0.1190  0.3296  0.5371
10819TIP3    H153948   2.467   1.191  13.802  0.6575  0.8178  0.5034
10819TIP3    H253949   2.405   1.327  13.823 -1.2913 -0.0290  0.3840
10820TIP3   OH253950   1.228   0.071   5.518  0.0891 -0.4524 -0.0744
10820TIP3    H153951   1.284   0.149   5.513  0.5685 -0.7473  0.6071
10820TIP3    H253952   1.245   0.034   5.605 -1.5841 -0.2468  0.3647
10821TIP3   OH253953   2.778   1.096  12.907 -0.6842  0.2012 -0.0768
10821TIP3    H153954   2.740   1.022  12.955 -1.3870  0.4920 -0.1708
10821TIP3    H253955   2.730   1.098  12.824  0.0542  0.1260 -0.5203
10822TIP3   OH253956   1.396   2.828  65.818 -0.6933 -0.8398  0.5125
10822TIP3    H153957   1.357   2.913  65.799 -0.3822 -0.8823 -0.3402
10822TIP3    H253958   1.477   2.848  65.865 -0.4430 -0.6523  0.0006
10823TIP3   OH253959   3.382   0.235  47.347 -0.2824  0.0503 -0.0766
10823TIP3    H153960   3.337   0.179  47.409 -0.5762  1.3101  0.8992
10823TIP3    H253961   3.448   0.179  47.306  1.3009 -0.3917  2.8197
10824TIP3   OH253962   2.682   2.306  63.362 -0.3625 -0.3207 -0.1652
10824TIP3    H153963   2.618   2.366  63.323 -0.3916  1.2897  2.1347
10824TIP3    H253964   2.765   2.354  63.357 -0.2887 -0.2606  1.2342
10825TIP3   OH253965   2.593   2.102  14.787 -0.2775  0.2904 -0.0881
10825TIP3    H153966   2.689   2.096  14.780  0.3157 -0.3801  4.9592
10825TIP3    H253967   2.570   2.179  14.735  3.2169  1.3800 -0.2986
10826TIP3   OH253968   3.023   3.268  60.146 -0.0120 -0.3806  0.2804
10826TIP3    H153969   3.094   3.326  60.174  0.6957 -0.2668 -1.6160
10826TIP3    H253970   3.010   3.208  60.220  0.1052  1.3543  1.7786
10827TIP3   OH253971   2.656   0.414  56.453 -0.6440  0.6297  0.1576
10827TIP3    H153972   2.723   0.471  56.414 -0.8941  0.4992 -0.4798
10827TIP3    H253973   2.601   0.388  56.379 -0.1556 -0.9629  0.3059
10828TIP3   OH253974   0.349   1.813  48.548  0.0869 -0.3946 -0.4893
10828TIP3    H153975   0.418   1.870  48.513 -0.1373 -0.2603 -0.7201
10828TIP3    H253976   0.367   1.727  48.510  1.4662 -0.9201  1.2421
10829TIP3   OH253977   1.885   0.260  66.260 -0.0767  0.1551  0.2778
10829TIP3    H153978   1.953   0.232  66.199 -0.3992  0.0442 -0.0354
10829TIP3    H253979   1.928   0.326  66.315  1.2721 -2.2543  2.3238
10830TIP3   OH253980   0.907   1.453  15.359 -0.0047  0.0225 -0.0953
10830TIP3    H153981   0.914   1.360  15.379 -0.5780 -0.3296 -1.4122
10830TIP3    H253982   0.813   1.470  15.357  0.1050  0.7550  0.6554
10831TIP3   OH253983   2.458   2.080  53.411 -0.1234 -0.2700 -0.3450
10831TIP3    H153984   2.469   2.167  53.452 -2.0989  0.0819 -0.4676
10831TIP3    H253985   2.503   2.088  53.327  1.5570 -0.0878  0.5124
10832TIP3   OH253986   0.013   1.937  63.672 -0.1177  0.0297 -0.2160
10832TIP3    H153987   0.068   1.954  63.595  2.0976 -0.5544  1.1339
10832TIP3    H253988   0.060   1.978  63.745 -2.4181  1.0152  0.8044
10833TIP3   OH253989   0.388   1.439  65.481  0.5003 -0.0129  0.1353
10833TIP3    H153990   0.434   1.365  65.442  1.5955  0.7276 -0.0141
10833TIP3    H253991   0.312   1.399  65.523  3.0414 -1.8779  3.5454
10834TIP3   OH253992   0.010   3.004  58.792 -0.0206 -0.3247  0.1136
10834TIP3    H153993  -0.065   3.002  58.732  0.2402 -1.0519 -0.1998
10834TIP3    H253994   0.086   3.002  58.734  0.2432 -1.9678  0.4600
10835TIP3   OH253995   3.225   0.905  17.830  0.3359  0.1335 -0.4885
10835TIP3    H153996   3.207   0.860  17.912  1.6876  1.7418  0.7716
10835TIP3    H253997   3.183   0.851  17.763 -2.6562 -0.1401  1.4299
10836TIP3   OH253998   0.641   2.031  57.844 -0.2878 -0.3961 -0.3997
10836TIP3    H153999   0.616   1.963  57.780  0.7772  0.1056 -1.4015
10836TIP3    H254000   0.579   2.020  57.916 -1.2611 -1.2804 -1.3237
10837TIP3   OH254001   3.333   2.536  53.530 -0.6371  0.0622  0.1726
10837TIP3    H154002   3.288   2.460  53.494  2.2971 -2.1149  0.7409
10837TIP3    H254003   3.304   2.539  53.621 -1.4396  0.2081 -0.0745
10838TIP3   OH254004   2.974   1.917  10.304  0.4535 -0.2892 -0.4378
10838TIP3    H154005   3.016   1.938  10.388 -0.1405 -1.1482  0.0972
10838TIP3    H254006   3.037   1.943  10.238  1.0521  0.1478  0.2929
10839TIP3   OH254007   2.814   3.132   3.083  0.4049  0.1424  0.2171
10839TIP3    H154008   2.875   3.177   3.025  2.1675 -3.4564 -1.0262
10839TIP3    H254009   2.727   3.156   3.048  1.2685  1.2231 -1.3480
10840TIP3   OH254010   0.604   1.455  62.506  0.1511 -0.2454 -0.4472
10840TIP3    H154011   0.673   1.520  62.511 -0.3745  0.3240 -0.4199
10840TIP3    H254012   0.595   1.421  62.595  1.0446 -1.0235 -0.6423
10841TIP3   OH254013   1.996   1.042  14.767 -0.1301 -0.5068  0.0907
10841TIP3    H154014   2.028   1.007  14.851  0.1302  0.0307  0.2233
10841TIP3    H254015   1.903   1.058  14.782  0.0334  0.1289  0.4741
10842TIP3   OH254016   1.658   0.277   6.253 -0.1436  0.1698  0.0202
10842TIP3    H154017   1.636   0.234   6.335  1.1703 -0.7441 -0.0887
10842TIP3    H254018   1.754   0.276   6.249 -0.1841 -0.7262 -1.9909
10843TIP3   OH254019   0.203   1.028  13.327  0.1669  0.2891 -0.3749
10843TIP3    H154020   0.156   0.988  13.401  1.8615  0.0306  0.6138
10843TIP3    H254021   0.292   0.996  13.335  0.9909  2.2562 -1.0559
10844TIP3   OH254022   3.108   1.100  49.752 -0.3405  0.4678 -0.0883
10844TIP3    H154023   3.020   1.069  49.775  0.2867  0.0209  1.9429
10844TIP3    H254024   3.156   1.020  49.729 -0.4402  0.7117 -1.1935
10845TIP3   OH254025   2.444   1.656   0.266  0.3924 -0.4084 -0.0523
10845TIP3    H154026   2.417   1.739   0.226 -1.5002 -1.1957 -0.4860
10845TIP3    H254027   2.373   1.634   0.326  1.3659 -1.2135  0.8425
10846TIP3   OH254028   2.145   2.013  59.678  0.7430 -0.3296 -0.0499
10846TIP3    H154029   2.069   2.015  59.620  0.9897 -0.8630 -0.3954
10846TIP3    H254030   2.112   2.046  59.762  0.3630  0.3573 -0.4614
10847TIP3   OH254031   2.258   3.160   4.505  0.7155 -0.4871  0.2411
10847TIP3    H154032   2.232   3.094   4.440  0.7807 -0.8999  0.6362
10847TIP3    H254033   2.205   3.140   4.582  0.6757 -0.0254  0.3356
10848TIP3   OH254034   1.478   2.199  49.211 -0.0249  0.4246 -0.3343
10848TIP3    H154035   1.432   2.128  49.166 -1.5353  0.4479  1.0892
10848TIP3    H254036   1.545   2.155  49.263  0.7425  0.2749 -1.4328
10849TIP3   OH254037   0.503   0.827  11.166  0.2138 -0.2611 -0.4170
10849TIP3    H154038   0.445   0.879  11.110  0.2683  0.2493 -0.0148
10849TIP3    H254039   0.449   0.755  11.197  0.2932 -0.7684 -1.4307
10850TIP3   OH254040   1.855   1.760  48.585 -0.4525  0.2438 -0.3736
10850TIP3    H154041   1.850   1.835  48.524 -2.0836  1.4893  1.1909
10850TIP3    H254042   1.790   1.698  48.552 -0.4594  0.3638 -0.5875
10851TIP3   OH254043   1.121   0.926   9.148 -1.0036 -0.0196  0.7856
10851TIP3    H154044   1.178   0.850   9.151 -2.7412 -1.4032  0.3833
10851TIP3    H254045   1.032   0.890   9.149 -1.8905  2.0008  0.4818
10852TIP3   OH254046   0.488   3.227  55.185  0.3340  0.4246 -0.3427
10852TIP3    H154047   0.550   3.271  55.126  0.8528  0.1575  0.0099
10852TIP3    H254048   0.440   3.167  55.128  0.9779  0.0175 -0.4538
10853TIP3   OH254049   0.745   1.460  11.153 -0.4117 -0.0729  0.1384
10853TIP3    H154050   0.791   1.411  11.084  0.6269  0.8370  0.1671
10853TIP3    H254051   0.787   1.546  11.154  0.8152 -0.5595  3.0409
10854TIP3   OH254052   1.947   2.772   8.773  0.2103 -0.5175 -0.3414
10854TIP3    H154053   1.949   2.829   8.850  0.8598 -1.6825  0.5208
10854TIP3    H254054   2.021   2.713   8.784  0.5321 -0.4907 -2.0496
10855TIP3   OH254055   0.583   3.339  17.404 -0.1636 -0.0692 -0.4239
10855TIP3    H154056   0.586   3.373  17.493 -3.1636 -1.4716  0.3299
10855TIP3    H254057   0.657   3.278  17.399 -0.4569 -0.6290  1.4110
10856TIP3   OH254058   0.064   2.379   5.617 -0.4976 -0.0236 -0.0313
10856TIP3    H154059   0.142   2.344   5.661 -1.5158 -0.5514  1.4413
10856TIP3    H254060   0.058   2.469   5.648 -1.1887 -0.3810  0.9094
10857TIP3   OH254061   0.231   0.433  16.000 -0.2023  0.5203 -0.4738
10857TIP3    H154062   0.274   0.516  16.022  0.8448 -0.2611  0.5066
10857TIP3    H254063   0.302   0.372  15.983 -0.9156 -0.5406  0.1977
10858TIP3   OH254064   1.518   2.921  57.337  0.2837  0.1311  0.1905
10858TIP3    H154065   1.459   2.996  57.331  0.4308  0.1819 -0.8071
10858TIP3    H254066   1.462   2.849  57.367  0.1464  0.6287  1.1736
10859TIP3   OH254067   3.178   0.652  11.962 -0.1733  0.1861 -0.3018
10859TIP3    H154068   3.227   0.720  11.915 -1.2489  0.6884 -0.7329
10859TIP3    H254069   3.231   0.634  12.040  0.7843  0.5670 -0.8501
10860TIP3   OH254070   3.018   0.551  20.043 -0.2196  0.3155 -0.3175
10860TIP3    H154071   2.953   0.493  20.005 -0.6145  1.0231 -0.7297
10860TIP3    H254072   3.018   0.628  19.987  1.3833  0.1066 -0.6777
10861TIP3   OH254073   2.795   1.381  50.306 -0.1506 -0.1231 -0.3846
10861TIP3    H154074   2.757   1.467  50.291 -0.1525 -0.2976 -1.4929
10861TIP3    H254075   2.749   1.323  50.245  0.5266 -0.7073 -0.3594
10862TIP3   OH254076   2.724   0.015  42.534  0.0246 -0.5326 -0.3156
10862TIP3    H154077   2.670  -0.063  42.544 -1.5976  0.7206  1.1660
10862TIP3    H254078   2.725   0.031  42.440  0.0183 -2.0607 -0.6029
10863TIP3   OH254079   2.862   0.785   4.924  0.1753  0.6197 -0.1934
10863TIP3    H154080   2.770   0.767   4.904  0.3439 -1.9054  0.8847
10863TIP3    H254081   2.863   0.808   5.017  0.5848  0.9854 -0.2852
10864TIP3   OH254082   1.053   2.154   7.113  0.2053  0.3285 -0.2872
10864TIP3    H154083   0.993   2.080   7.121 -0.2913  0.3693 -2.8293
10864TIP3    H254084   1.139   2.114   7.103  0.1292  0.1549 -0.2636
10865TIP3   OH254085   1.903   1.445  11.859  0.4927 -0.3007  0.2380
10865TIP3    H154086   1.944   1.500  11.791 -0.1221  0.2210  0.2773
10865TIP3    H254087   1.858   1.376  11.810  0.2377 -0.0541  0.1229
10866TIP3   OH254088   0.696   2.014   8.434 -0.2472  0.8242 -0.4748
10866TIP3    H154089   0.637   2.082   8.402 -1.4957  0.1783  0.3745
10866TIP3    H254090   0.655   1.932   8.406  0.6625  0.3787 -0.5315
10867TIP3   OH254091   0.741   2.781  54.530 -0.1532  0.1898 -0.2612
10867TIP3    H154092   0.802   2.837  54.483  1.7872  0.0581  1.9246
10867TIP3    H254093   0.711   2.718  54.465  1.7805  0.4867 -1.5091
10868TIP3   OH254094   1.060   0.963  18.610  0.2441 -0.5631  0.1099
10868TIP3    H154095   0.985   0.927  18.562  0.0377 -1.2212  0.9072
10868TIP3    H254096   1.024   1.039  18.656 -0.3054 -1.6872  1.6126
10869TIP3   OH254097   1.854   0.335  12.950  0.3134  0.5375 -0.0826
10869TIP3    H154098   1.802   0.258  12.926 -0.0326  0.6293  0.3615
10869TIP3    H254099   1.945   0.307  12.940  0.1859  0.1781 -0.2564
10870TIP3   OH254100   0.587   0.020  47.816 -0.4985 -0.0464 -0.1914
10870TIP3    H154101   0.524  -0.050  47.803 -2.2926  1.7529 -1.7789
10870TIP3    H254102   0.572   0.050  47.906 -0.8215 -0.6553 -0.0406
10871TIP3   OH254103   2.436   0.343  56.987 -0.0627 -0.2860  0.6709
10871TIP3    H154104   2.407   0.399  57.058 -0.4503 -0.8935  0.9923
10871TIP3    H254105   2.358   0.297  56.958  0.2214 -0.5524  0.3064
10872TIP3   OH254106   2.860   0.996  49.891  0.4177  0.5913  0.4331
10872TIP3    H154107   2.787   0.942  49.921  2.4893 -2.2510  0.7786
10872TIP3    H254108   2.839   1.017  49.800 -0.8970  0.0153  0.5795
10873TIP3   OH254109   2.612   0.607  53.825 -0.5510  0.2668  0.3825
10873TIP3    H154110   2.651   0.557  53.897  0.1337 -0.9535 -0.7922
10873TIP3    H254111   2.523   0.570  53.817  0.2588 -1.5316 -1.0955
10874TIP3   OH254112   2.326   0.297   8.604 -0.3798  0.2312 -0.3511
10874TIP3    H154113   2.258   0.304   8.672 -0.5172  0.0281 -0.4659
10874TIP3    H254114   2.394   0.358   8.632 -1.0452  1.1812 -0.7370
10875TIP3   OH254115   0.226   2.203  43.509 -0.1154  0.5831 -0.1352
10875TIP3    H154116   0.138   2.174  43.531  0.4779  0.4608  2.4570
10875TIP3    H254117   0.215   2.262  43.434 -2.4296  0.8885  0.3809
10876TIP3   OH254118   3.059   1.363   5.745  0.2763 -0.7522 -0.4694
10876TIP3    H154119   3.041   1.324   5.830  1.8540  0.7018  0.5910
10876TIP3    H254120   2.988   1.425   5.731 -0.6154 -1.8160 -0.7806
10877TIP3   OH254121   0.827   1.921  16.538 -0.0889 -0.1659  0.1900
10877TIP3    H154122   0.884   1.853  16.503 -1.0359 -1.0317  0.2855
10877TIP3    H254123   0.782   1.879  16.612  1.9062  1.5965  2.6066
10878TIP3   OH254124   1.577   1.238  45.291 -0.2937 -0.3205 -0.2513
10878TIP3    H154125   1.666   1.230  45.324  0.3472 -0.3795 -1.8892
10878TIP3    H254126   1.522   1.225  45.368  1.1066  0.1496  0.8745
10879TIP3   OH254127   0.247   2.504  11.628  0.5103 -0.2315 -0.8015
10879TIP3    H154128   0.322   2.561  11.613  1.2091 -0.8014  0.3523
10879TIP3    H254129   0.278   2.440  11.692 -1.5361  0.7330  1.3087
10880TIP3   OH254130   0.995   0.373   7.120 -0.0540 -0.1648 -0.1113
10880TIP3    H154131   0.999   0.373   7.024 -0.5533 -0.7283 -0.1376
10880TIP3    H254132   0.967   0.462   7.142 -0.0087 -0.0537 -0.4896
10881TIP3   OH254133   2.960   2.459  61.989  0.1519  0.4707 -0.1491
10881TIP3    H154134   2.919   2.399  62.051  0.4394  0.5024  0.0741
10881TIP3    H254135   3.054   2.445  62.001  0.2259 -0.9639 -1.9523
10882TIP3   OH254136   1.009   0.242  21.299  0.2212 -0.7347  0.1431
10882TIP3    H154137   1.043   0.329  21.320  0.9272 -1.1483  0.7769
10882TIP3    H254138   0.919   0.243  21.330 -0.1501  0.1319 -0.8780
10883TIP3   OH254139   0.846   0.815  53.474 -0.2637 -0.4543 -0.4064
10883TIP3    H154140   0.897   0.736  53.459 -1.1235 -1.3007  0.9752
10883TIP3    H254141   0.819   0.810  53.566 -0.7405  1.2045 -0.4212
10884TIP3   OH254142   1.454   1.975  10.795  0.0911  0.0766 -0.2801
10884TIP3    H154143   1.362   1.951  10.797  0.1944 -0.3082  0.2909
10884TIP3    H254144   1.500   1.895  10.771  0.2995  0.1704 -0.2064
10885TIP3   OH254145   1.631   0.103  60.513  0.3178  0.5363 -0.5100
10885TIP3    H154146   1.672   0.106  60.599 -0.0498  0.8331 -0.3438
10885TIP3    H254147   1.541   0.075  60.530  0.4624 -0.1812 -0.8780
10886TIP3   OH254148   2.867   3.281   2.452  0.1765 -0.5900 -0.3808
10886TIP3    H154149   2.895   3.206   2.506  0.4577 -0.8364 -0.8630
10886TIP3    H254150   2.926   3.352   2.478 -1.2473  0.0295  1.4156
10887TIP3   OH254151   1.375   3.059  11.902  0.2741 -0.0915 -0.2943
10887TIP3    H154152   1.436   3.131  11.888  0.3286 -0.4140 -2.0538
10887TIP3    H254153   1.362   3.022  11.814 -2.8609  0.2912 -0.1116
10888TIP3   OH254154   1.020   3.309  21.651 -0.2059  0.1589  0.2021
10888TIP3    H154155   1.091   3.338  21.593 -0.4480 -0.2460 -0.3005
10888TIP3    H254156   1.055   3.324  21.739 -0.2842  1.8992 -0.0167
10889TIP3   OH254157   3.102   2.661  27.162  0.3447  0.2676 -0.0661
10889TIP3    H154158   3.111   2.753  27.135 -0.2043  0.2105 -0.4769
10889TIP3    H254159   3.160   2.652  27.237  1.4675  0.5965 -0.8749
10890TIP3   OH254160   0.816   2.739  66.763  0.3598 -0.0584 -0.2785
10890TIP3    H154161   0.786   2.829  66.757  0.0947 -0.2002 -1.3519
10890TIP3    H254162   0.896   2.744  66.816  0.1370  0.7403  0.0020
10891TIP3   OH254163   0.052   2.529  43.136 -0.0587  0.8194  0.0324
10891TIP3    H154164  -0.040   2.547  43.118 -1.1705 -2.6209  1.3330
10891TIP3    H254165   0.096   2.540  43.052 -2.1771  0.0257 -1.2634
10892TIP3   OH254166   1.915   3.238   8.372 -0.2946 -0.0663 -0.4995
10892TIP3    H154167   2.008   3.238   8.349 -0.2430 -1.4810 -0.3890
10892TIP3    H254168   1.877   3.171   8.315 -0.9297 -0.6921  0.6333
10893TIP3   OH254169   0.585   1.982  45.314  0.3459 -0.4448 -1.0316
10893TIP3    H154170   0.601   2.070  45.281  0.0166  0.2086  0.4306
10893TIP3    H254171   0.493   1.965  45.294  0.4357 -0.5021 -1.4046
10894TIP3   OH254172   2.749   1.811  16.915  0.2735 -0.1538 -0.1199
10894TIP3    H154173   2.700   1.827  16.996 -0.6121  0.0124 -0.6723
10894TIP3    H254174   2.817   1.748  16.940 -1.0542 -1.4619  0.4043
10895TIP3   OH254175   1.922   1.807  60.463  0.4644  0.4423  0.3720
10895TIP3    H154176   1.860   1.776  60.397  0.6666  2.0408 -0.6053
10895TIP3    H254177   2.007   1.804  60.419  0.5938  1.5767  0.5161
10896TIP3   OH254178   0.138   3.214  60.999  0.2581 -0.0829 -0.3431
10896TIP3    H154179   0.050   3.181  61.013  0.0355  0.4656 -0.4205
10896TIP3    H254180   0.182   3.145  60.949 -0.3607 -0.0384 -0.9755
10897TIP3   OH254181   0.286   2.395  15.940  0.2758  0.0635  0.2266
10897TIP3    H154182   0.352   2.405  16.009  1.3490  1.9979 -0.9585
10897TIP3    H254183   0.227   2.470  15.952 -0.4314 -0.4407 -0.0377
10898TIP3   OH254184   1.776   0.509  11.702 -0.7740 -0.1677 -0.1454
10898TIP3    H154185   1.855   0.560  11.683 -0.4590 -1.4613 -2.8667
10898TIP3    H254186   1.797   0.463  11.783  0.2390  1.4273  0.5577
10899TIP3   OH254187   2.842   2.827  44.290 -0.0553  0.0059 -0.0943
10899TIP3    H154188   2.930   2.802  44.264 -0.1560 -0.4556  0.0005
10899TIP3    H254189   2.840   2.922  44.279  0.3055 -0.0345 -0.5273
10900TIP3   OH254190   2.044   3.050  45.521  0.1554  0.2697 -0.0106
10900TIP3    H154191   1.993   3.120  45.564  1.7828  0.6778  1.3603
10900TIP3    H254192   1.981   2.978  45.511 -0.4187  0.1924  3.0057
10901TIP3   OH254193   0.133   0.439  17.895 -0.4770 -0.7199 -0.1493
10901TIP3    H154194   0.094   0.438  17.983  1.1834 -0.5078  0.6171
10901TIP3    H254195   0.212   0.492  17.904  0.5862 -2.0033 -1.3967
10902TIP3   OH254196   2.795   1.642  52.539 -0.0262  0.2510  0.0458
10902TIP3    H154197   2.727   1.605  52.483 -0.2559  1.4134 -0.4947
10902TIP3    H254198   2.863   1.672  52.478 -0.0584  1.1091  0.4068
10903TIP3   OH254199   1.846   2.050  50.920  0.3418 -0.5524 -0.1613
10903TIP3    H154200   1.847   1.979  50.984  0.0276 -1.4280 -1.1022
10903TIP3    H254201   1.876   2.009  50.839 -0.6626  0.1838 -0.9209
10904TIP3   OH254202   3.106   2.053  65.687  0.4727  0.0117 -0.4164
10904TIP3    H154203   3.055   2.134  65.690 -0.5735 -0.6280 -0.5762
10904TIP3    H254204   3.189   2.079  65.646  0.5733  1.2182  0.5069
10905TIP3   OH254205   2.927   0.443  49.126 -0.3826 -0.6513  0.5580
10905TIP3    H154206   2.899   0.446  49.035  0.5841 -0.5793  0.2465
10905TIP3    H254207   2.882   0.367  49.163  0.4766 -1.6783 -0.4331
10906TIP3   OH254208   2.159   2.441   7.195  0.2720 -0.0002  0.1566
10906TIP3    H154209   2.206   2.461   7.114  0.1570 -0.5184 -0.0407
10906TIP3    H254210   2.116   2.357   7.178  0.8736 -0.4976  1.0207
10907TIP3   OH254211   3.095   1.670   0.979 -0.0918 -0.2485 -0.3027
10907TIP3    H154212   3.129   1.758   0.967  1.6909 -0.1218  3.9312
10907TIP3    H254213   3.159   1.614   0.934 -0.6072  0.4897 -2.0276
10908TIP3   OH254214   1.245   3.122   9.285 -0.2711  0.2987  0.2927
10908TIP3    H154215   1.264   3.130   9.191  0.9956 -1.3762  0.3532
10908TIP3    H254216   1.231   3.212   9.314 -2.0498  0.7807 -1.7362
10909TIP3   OH254217   0.799   1.864  58.881  0.7586 -0.3613  0.0560
10909TIP3    H154218   0.889   1.896  58.875  0.5505  0.2403  0.0828
10909TIP3    H254219   0.772   1.884  58.971 -0.1058  1.3971 -0.5537
10910TIP3   OH254220   3.186   2.971  22.306  0.3393 -0.5125 -0.2137
10910TIP3    H154221   3.154   3.023  22.380 -0.0011  0.2217 -0.8590
10910TIP3    H254222   3.231   3.035  22.250 -0.1496 -0.8830 -1.0600
10911TIP3   OH254223   2.927   0.994  51.047 -0.3279  0.2977 -0.4170
10911TIP3    H154224   2.981   1.032  51.116  0.9349 -0.8497 -0.7228
10911TIP3    H254225   2.954   1.041  50.968  1.5341 -1.3658 -0.8685
10912TIP3   OH254226   0.249   0.144  63.476 -0.6526  0.3943 -0.5991
10912TIP3    H154227   0.230   0.157  63.383 -2.3124  0.9993 -0.2094
10912TIP3    H254228   0.174   0.183  63.521 -0.3341 -0.7367  0.9747
10913TIP3   OH254229   3.270   0.847   9.287 -0.2687 -0.3657 -0.2723
10913TIP3    H154230   3.309   0.933   9.270  0.1238 -0.6966 -1.1392
10913TIP3    H254231   3.282   0.799   9.205 -1.5161 -0.8626 -0.1919
10914TIP3   OH254232   0.640   2.213  58.330 -0.0276 -0.1171 -0.1505
10914TIP3    H154233   0.571   2.146  58.335 -0.4378  0.3657  0.9419
10914TIP3    H254234   0.593   2.296  58.338  0.6824  0.2166  0.5872
10915TIP3   OH254235   2.861   3.220   3.714  0.5256  0.3560 -0.0058
10915TIP3    H154236   2.795   3.286   3.693 -0.4064 -0.3409  0.6474
10915TIP3    H254237   2.859   3.215   3.810 -0.9389 -2.0971 -0.0895
10916TIP3   OH254238   1.291   1.888  18.995 -0.4143  0.2477  0.1036
10916TIP3    H154239   1.332   1.960  19.042 -0.2561  1.4198 -1.7206
10916TIP3    H254240   1.278   1.921  18.906  0.6085 -2.2949 -1.1156
10917TIP3   OH254241   1.584   3.381  33.845 -0.5933  0.5959 -0.0508
10917TIP3    H154242   1.580   3.436  33.923 -1.6885  2.5852 -1.4277
10917TIP3    H254243   1.673   3.345  33.846 -0.3335  1.1890  1.6843
10918TIP3   OH254244   1.346   2.532   4.561 -0.4849 -0.2436  0.3987
10918TIP3    H154245   1.426   2.580   4.581 -0.0081 -0.7917 -0.1600
10918TIP3    H254246   1.275   2.591   4.586  0.0893 -0.0089  1.5267
10919TIP3   OH254247   1.529   1.019  55.736 -0.3678  0.4179 -0.0481
10919TIP3    H154248   1.451   0.965  55.728 -1.0078  1.4214 -0.8881
10919TIP3    H254249   1.548   1.047  55.646  2.2213 -1.5034 -0.2054
10920TIP3   OH254250   3.420   0.632  63.439  0.1681 -0.4485  0.2354
10920TIP3    H154251   3.372   0.703  63.480  0.0259 -1.2427  1.5041
10920TIP3    H254252   3.353   0.582  63.392  0.3153  0.3974 -0.9245
10921TIP3   OH254253   1.940   2.267  15.521  0.2576 -0.2679  0.1778
10921TIP3    H154254   1.877   2.209  15.563  2.5167 -1.6405  1.9041
10921TIP3    H254255   1.890   2.311  15.452 -1.9323 -3.1960 -0.2867
10922TIP3   OH254256   3.433   3.432  17.294  0.2057  0.2105 -0.0498
10922TIP3    H154257   3.514   3.452  17.342 -0.7072  0.4994  1.4250
10922TIP3    H254258   3.371   3.405  17.362 -1.4630  1.6279 -0.9492
10923TIP3   OH254259   1.542   2.032  19.501 -0.2967 -0.2568 -0.6132
10923TIP3    H154260   1.577   2.031  19.589 -1.4775 -1.6574 -0.1127
10923TIP3    H254261   1.543   2.124  19.475 -0.1418  0.2026  0.9484
10924TIP3   OH254262   1.485   0.408  17.916  0.5005  0.5499  0.2773
10924TIP3    H154263   1.479   0.453  17.832 -1.4639  1.0159  0.6264
10924TIP3    H254264   1.557   0.346  17.904 -0.4756 -0.2501 -2.1844
10925TIP3   OH254265   2.119   0.398  19.363 -0.2629  0.1482 -0.2935
10925TIP3    H154266   2.195   0.341  19.353 -1.4704 -1.3247 -1.4468
10925TIP3    H254267   2.097   0.425  19.275 -1.1500  0.4563  0.0122
10926TIP3   OH254268   3.419   1.011  55.692 -0.0647  0.9121 -0.2104
10926TIP3    H154269   3.402   1.059  55.773  0.1480  1.4722 -0.4875
10926TIP3    H254270   3.512   0.988  55.696 -0.3397 -0.1998  0.2926
10927TIP3   OH254271   0.087   3.278  54.290 -0.1545  0.0082 -0.1616
10927TIP3    H154272   0.001   3.320  54.294  0.4687  1.3475 -0.2613
10927TIP3    H254273   0.101   3.262  54.197  0.5445  1.6797 -0.3826
10928TIP3   OH254274   0.177   1.844  55.269 -0.0069 -0.1279  0.1280
10928TIP3    H154275   0.264   1.866  55.304 -0.1320 -0.3202  0.5702
10928TIP3    H254276   0.117   1.861  55.341 -0.4654  0.9709 -0.4956
10929TIP3   OH254277   3.375   1.703   3.373 -0.6593 -0.8463 -0.0024
10929TIP3    H154278   3.378   1.635   3.441 -0.6182 -0.5716  0.2690
10929TIP3    H254279   3.467   1.726   3.358 -0.7208 -0.1940  0.5664
10930TIP3   OH254280   1.303   0.920   6.224 -0.1068  0.1889 -0.3773
10930TIP3    H154281   1.282   0.870   6.303  0.3729  0.7254  0.1001
10930TIP3    H254282   1.302   1.012   6.252 -1.3514  0.4939 -1.3251
10931TIP3   OH254283   2.828   3.125   0.979  0.0734 -0.0036  0.0345
10931TIP3    H154284   2.848   3.087   0.893 -0.3132 -0.4617  0.1393
10931TIP3    H254285   2.783   3.054   1.025  0.1163  0.3049  0.5487
10932TIP3   OH254286   2.144   2.587   8.034  0.6186  0.2396 -0.0925
10932TIP3    H154287   2.153   2.641   7.956 -0.5602 -0.8064 -0.9848
10932TIP3    H254288   2.081   2.634   8.089  1.4525  0.9760  0.2646
10933TIP3   OH254289   0.136   3.194  51.671  0.3420 -0.7598  0.3356
10933TIP3    H154290   0.104   3.271  51.718  2.3601 -0.3808  1.2059
10933TIP3    H254291   0.124   3.122  51.732  0.9036 -0.6566  0.5743
10934TIP3   OH254292   0.211   0.111  33.606  0.3619 -0.1932 -0.0475
10934TIP3    H154293   0.304   0.129  33.619  0.2035  0.0141  0.8731
10934TIP3    H254294   0.169   0.140  33.688 -0.1436 -3.0429  0.8288
10935TIP3   OH254295   1.891   2.485  18.871  0.6180  0.2264  0.1478
10935TIP3    H154296   1.867   2.479  18.778  1.5042  0.2572 -0.0959
10935TIP3    H254297   1.867   2.574  18.896 -1.1182 -0.2702  0.4052
10936TIP3   OH254298   1.696   3.065  51.162  0.0488 -0.0196  0.2262
10936TIP3    H154299   1.679   2.972  51.149  2.3846 -0.6098  0.8739
10936TIP3    H254300   1.660   3.084  51.248 -0.3043 -0.3597  0.1569
10937TIP3   OH254301   2.637   2.199  50.984 -0.2166 -0.6966  0.1731
10937TIP3    H154302   2.690   2.120  50.974  0.1826 -0.4561  0.3801
10937TIP3    H254303   2.617   2.226  50.894  0.5080 -0.4615  0.0783
10938TIP3   OH254304   0.999   0.537  13.899 -0.4495  0.0585  0.4156
10938TIP3    H154305   0.909   0.519  13.928 -0.4618  0.5075  0.6691
10938TIP3    H254306   1.011   0.630  13.917 -0.3116  0.2582 -0.6308
10939TIP3   OH254307   0.738   1.378  57.762 -0.2116  0.2102  0.5402
10939TIP3    H154308   0.704   1.384  57.851  0.5101 -0.3394  0.8559
10939TIP3    H254309   0.714   1.461  57.722  0.3332  0.8749  1.5548
10940TIP3   OH254310   1.600   2.964  22.869  0.8206  0.4415  0.0117
10940TIP3    H154311   1.598   3.019  22.790 -2.0751  0.8637  0.2691
10940TIP3    H254312   1.593   3.026  22.941 -0.2879 -0.0965  0.3925
10941TIP3   OH254313   0.115   0.074  57.214  0.1435  0.3909 -0.0756
10941TIP3    H154314   0.071   0.082  57.130  1.1940 -1.2834 -0.8449
10941TIP3    H254315   0.175   0.000  57.202  0.3676  0.1628  2.1265
10942TIP3   OH254316   1.215   0.979   1.115  0.2829 -0.0761 -0.3462
10942TIP3    H154317   1.178   1.020   1.036 -0.2185  0.2238  0.0375
10942TIP3    H254318   1.141   0.934   1.155  0.2614  0.7234  0.5589
10943TIP3   OH254319   0.801   1.347  53.355  0.3587 -0.7900  0.5675
10943TIP3    H154320   0.851   1.295  53.292 -1.7677 -1.6610 -0.4865
10943TIP3    H254321   0.727   1.291  53.378  0.7260 -0.2589  3.4305
10944TIP3   OH254322   2.760   0.737  46.455  0.5639  0.4908  0.5515
10944TIP3    H154323   2.711   0.727  46.536 -1.6055  0.3321 -0.6913
10944TIP3    H254324   2.840   0.783  46.480 -0.3197  0.9697  2.6691
10945TIP3   OH254325   0.476   0.058  49.662 -0.6907 -0.0196  0.1159
10945TIP3    H154326   0.385   0.043  49.687  0.2418 -2.9136  2.3850
10945TIP3    H254327   0.492  -0.003  49.590 -0.9435  1.8403 -1.6142
10946TIP3   OH254328   0.234   1.195  12.940  0.4105 -0.4025 -0.5461
10946TIP3    H154329   0.241   1.262  12.872  0.9041  0.3337  0.2046
10946TIP3    H254330   0.325   1.170  12.958  0.4419  0.7085  1.0689
10947TIP3   OH254331   1.917   2.539  15.162  0.3523 -0.5724  0.2618
10947TIP3    H154332   1.983   2.606  15.181 -0.1554 -0.6399  2.6289
10947TIP3    H254333   1.833   2.583  15.178  0.0179 -1.7734  2.1576
10948TIP3   OH254334   2.247   2.201  65.182  0.3886  0.3557 -0.7027
10948TIP3    H154335   2.211   2.286  65.157  1.4727  0.5745 -1.5628
10948TIP3    H254336   2.207   2.182  65.267 -1.8927  0.4830 -1.6774
10949TIP3   OH254337   1.538   2.111  51.796  0.1801  0.0167 -0.5628
10949TIP3    H154338   1.509   2.025  51.824  1.0978 -0.8061 -2.0416
10949TIP3    H254339   1.465   2.146  51.744  0.0668 -0.1286 -0.4996
10950TIP3   OH254340   3.252   0.153  60.604  0.0470  0.0824  0.2518
10950TIP3    H154341   3.346   0.135  60.603  0.1223  0.3872  0.9936
10950TIP3    H254342   3.230   0.160  60.697 -0.7648 -0.2676  0.0916
10951TIP3   OH254343   3.375   0.111  53.851 -0.0004  0.2396 -0.1858
10951TIP3    H154344   3.308   0.055  53.891  0.3943  0.0434  0.2067
10951TIP3    H254345   3.331   0.196  53.840  0.6361  1.2099  3.3063
10952TIP3   OH254346   1.636   1.207  63.494 -0.1869  0.3927  0.6735
10952TIP3    H154347   1.667   1.228  63.582  1.7412  0.3199  0.0745
10952TIP3    H254348   1.582   1.282  63.470  0.7132  1.2742  1.2796
10953TIP3   OH254349   3.394   2.960  52.299  0.1128  0.0048 -1.0079
10953TIP3    H154350   3.431   3.043  52.268  0.0232  0.9350  1.1662
10953TIP3    H254351   3.354   2.921  52.221  0.7597  1.6564 -2.2416
10954TIP3   OH254352   3.020   2.363  65.661 -0.0807  0.1409  0.0552
10954TIP3    H154353   2.963   2.362  65.738  0.8736 -0.8431  0.7869
10954TIP3    H254354   2.961   2.356  65.586 -1.0315  1.1685  0.6866
10955TIP3   OH254355   2.227   2.176   4.164  0.1860  0.1945  0.2823
10955TIP3    H154356   2.145   2.170   4.212  0.0441 -0.8272 -0.0591
10955TIP3    H254357   2.202   2.210   4.078  0.3891  1.6629  0.7774
10956TIP3   OH254358   2.809   2.162  52.860  0.1640  0.4242 -0.0521
10956TIP3    H154359   2.830   2.104  52.787  0.0682  1.1820 -0.6950
10956TIP3    H254360   2.890   2.164  52.912  0.3032  0.0497 -0.2445
10957TIP3   OH254361   1.573   1.832  54.629 -0.5279 -0.6606  0.0615
10957TIP3    H154362   1.494   1.836  54.682 -0.6876 -0.2213 -0.2069
10957TIP3    H254363   1.606   1.743  54.641 -0.0324 -0.2865  1.6507
10958TIP3   OH254364   0.683   3.132  49.149 -0.2091  0.0884  0.2298
10958TIP3    H154365   0.692   3.164  49.239 -0.6952 -0.5585  0.5257
10958TIP3    H254366   0.627   3.055  49.158 -0.6146  0.2673 -0.6868
10959TIP3   OH254367   2.669   3.436   3.623 -0.5256  0.2516  0.3636
10959TIP3    H154368   2.698   3.527   3.630 -1.2472  0.4487  0.9363
10959TIP3    H254369   2.574   3.441   3.621 -0.6005 -0.5208  1.0451
10960TIP3   OH254370   1.025   1.321  56.141 -0.6116  0.2033 -0.0039
10960TIP3    H154371   0.977   1.395  56.103 -0.6150 -0.1987 -0.8105
10960TIP3    H254372   0.996   1.245  56.091  0.8175 -0.0594 -0.4984
10961TIP3   OH254373   2.048   1.037  16.942 -0.0954  0.4795 -0.7045
10961TIP3    H154374   2.107   1.103  16.979 -0.2305 -0.5300  1.4859
10961TIP3    H254375   2.082   1.021  16.854  1.2928  1.8265 -0.4587
10962TIP3   OH254376   1.919   3.135  47.713 -0.4100 -0.0151  0.3509
10962TIP3    H154377   1.882   3.080  47.643  0.5519  0.7319 -0.7811
10962TIP3    H254378   2.013   3.132  47.698 -0.3195  1.8171  0.3229
10963TIP3   OH254379   1.261   0.272  61.435  0.4336  0.1121  0.3278
10963TIP3    H154380   1.245   0.280  61.341  0.6572  0.2405  0.2970
10963TIP3    H254381   1.331   0.335  61.453  0.3640  0.1194  0.5879
10964TIP3   OH254382   2.204   2.783  64.900 -0.0986 -0.2647  0.1035
10964TIP3    H154383   2.251   2.710  64.940  1.7687  0.5179 -0.5515
10964TIP3    H254384   2.129   2.742  64.856  0.2242 -1.6230  0.7812
10965TIP3   OH254385   0.655   3.367  11.162  0.1830  0.2434 -0.4552
10965TIP3    H154386   0.614   3.409  11.086 -1.3224  0.7191  0.5764
10965TIP3    H254387   0.651   3.433  11.231 -1.2209 -1.1789  0.8926
10966TIP3   OH254388   3.028   3.078  28.336 -0.7067 -0.5682  0.5284
10966TIP3    H154389   3.069   3.004  28.380  0.3592 -0.5611 -0.3966
10966TIP3    H254390   3.064   3.075  28.247 -0.1742  1.3901  0.6262
10967TIP3   OH254391   2.658   2.358   5.686 -0.1667  0.2899  0.1874
10967TIP3    H154392   2.704   2.415   5.747 -1.3810  0.6495  0.7919
10967TIP3    H254393   2.646   2.276   5.734 -1.1974  0.6016  0.4844
10968TIP3   OH254394   1.838   0.971  44.905 -0.3547 -0.0034  0.3417
10968TIP3    H154395   1.805   0.928  44.984 -1.1573 -0.3283 -0.1702
10968TIP3    H254396   1.816   1.063  44.918 -0.5984 -0.0740  0.4422
10969TIP3   OH254397   1.080   0.426   9.892  0.1005 -0.5295 -0.3987
10969TIP3    H154398   0.999   0.389   9.855 -0.5561  0.8215 -0.3832
10969TIP3    H254399   1.066   0.521   9.889  0.8744 -0.3202  1.4278
10970TIP3   OH254400   0.242   2.232  48.860  0.5444  0.0291  0.1355
10970TIP3    H154401   0.212   2.144  48.883 -1.2548  0.9920  1.7651
10970TIP3    H254402   0.202   2.250  48.775  0.9716 -0.7206 -0.2329
10971TIP3   OH254403   2.351   2.320  47.624  0.1405 -0.5040 -0.0668
10971TIP3    H154404   2.301   2.290  47.548 -1.5214  1.9704 -0.0491
10971TIP3    H254405   2.293   2.308  47.698  0.2589  0.6234  0.2367
10972TIP3   OH254406   0.821   0.937   7.004 -0.1105  0.7858 -0.1177
10972TIP3    H154407   0.833   0.963   6.913  1.0319 -0.1969 -0.2640
10972TIP3    H254408   0.888   0.986   7.052  1.6234 -1.2890 -0.3072
10973TIP3   OH254409   0.065   2.345  59.945  0.4451 -0.0958  0.3395
10973TIP3    H154410   0.029   2.268  59.901  0.4369  1.1201 -1.9915
10973TIP3    H254411   0.138   2.312  59.997 -0.1775 -1.7913  0.1887
10974TIP3   OH254412   1.970   3.200  20.793  0.4918  0.5423  0.2739
10974TIP3    H154413   2.042   3.183  20.855  1.6307 -0.2840 -1.2025
10974TIP3    H254414   2.014   3.214  20.709 -1.0918 -0.5134 -0.7767
10975TIP3   OH254415   1.897   2.211  17.440 -0.2104  0.1570  0.3017
10975TIP3    H154416   1.979   2.162  17.433 -0.4366 -0.6131  2.3545
10975TIP3    H254417   1.924   2.303  17.443  0.2357  0.3030 -3.4073
10976TIP3   OH254418   2.027   2.202   3.398 -0.1643 -0.2558  0.1372
10976TIP3    H154419   1.972   2.259   3.453  0.0446  0.0209  0.0634
10976TIP3    H254420   2.056   2.133   3.457 -0.9956 -0.6806  0.0580
10977TIP3   OH254421   0.272   2.613  16.094 -0.2589  0.0942 -0.1023
10977TIP3    H154422   0.314   2.579  16.173  1.8569 -2.0620 -1.9925
10977TIP3    H254423   0.338   2.668  16.053 -1.6033  1.8231 -0.0658
10978TIP3   OH254424   2.376   0.390   8.953 -0.3839  0.2932  0.0189
10978TIP3    H154425   2.459   0.362   8.991 -0.8148 -1.1389 -0.0279
10978TIP3    H254426   2.334   0.309   8.924 -0.8147  1.1629 -2.0191
10979TIP3   OH254427   1.984   1.998  12.969  0.3999 -0.2057 -0.0193
10979TIP3    H154428   2.062   1.953  13.001  0.6748  0.6338  0.5266
10979TIP3    H254429   1.962   1.954  12.887 -0.4711 -2.6034  1.4088
10980TIP3   OH254430   2.260   0.779   7.879 -0.0500  0.0349  0.0098
10980TIP3    H154431   2.200   0.726   7.932 -0.7370 -1.1462 -1.8092
10980TIP3    H254432   2.206   0.851   7.847  0.2293  0.4714  0.5187
10981TIP3   OH254433   2.183   3.027  19.043 -0.1868 -0.6466 -0.2482
10981TIP3    H154434   2.095   2.989  19.040 -1.0637  1.2857 -0.4494
10981TIP3    H254435   2.171   3.118  19.018  2.0883 -0.6300 -1.6000
10982TIP3   OH254436   2.498   0.361  21.314  0.6316  0.2107  0.2353
10982TIP3    H154437   2.488   0.445  21.360  0.7540  0.9726 -1.0583
10982TIP3    H254438   2.534   0.302  21.379  0.4419  1.1374  1.2194
10983TIP3   OH254439   0.804   0.506   2.475 -0.0081  0.4846 -0.6609
10983TIP3    H154440   0.849   0.425   2.497 -0.9768  0.1773  0.2665
10983TIP3    H254441   0.866   0.553   2.420  1.0695 -0.3236 -0.1857
10984TIP3   OH254442   1.589   1.083   2.627  0.5386  0.1880 -0.4440
10984TIP3    H154443   1.510   1.069   2.576  0.3008 -0.1867  0.0188
10984TIP3    H254444   1.577   1.169   2.668  0.6058  0.3626 -0.7910
10985TIP3   OH254445   0.080   2.406   2.587 -0.0787  0.4650 -0.0169
10985TIP3    H154446   0.051   2.384   2.675  0.2046  0.5143  0.0884
10985TIP3    H254447   0.160   2.456   2.599 -0.0604  0.5088 -0.3011
10986TIP3   OH254448   0.957   0.754  62.504  0.0637 -0.1629 -0.1467
10986TIP3    H154449   0.952   0.692  62.432  1.2182 -0.6543  0.1816
10986TIP3    H254450   0.906   0.714  62.574  1.8141 -1.3853  0.4982
10987TIP3   OH254451   1.895   2.871  52.431 -0.1668 -0.0285 -0.3957
10987TIP3    H154452   1.898   2.857  52.337 -0.7678 -0.1582 -0.3989
10987TIP3    H254453   1.874   2.964  52.441 -1.4210 -0.2917 -0.4079
10988TIP3   OH254454   0.836   0.276  59.669  0.2297  0.4572 -0.2192
10988TIP3    H154455   0.896   0.335  59.714 -0.5468 -0.1302  1.7045
10988TIP3    H254456   0.769   0.332  59.633 -1.2738  0.8016  2.7751
10989TIP3   OH254457   1.363   3.137  45.075 -0.2789 -0.2057 -0.6671
10989TIP3    H154458   1.423   3.198  45.032 -1.2627  0.6734 -0.8385
10989TIP3    H254459   1.419   3.067  45.108  0.8839  0.8169 -0.4165
10990TIP3   OH254460   1.792   0.458  63.620 -0.0941  0.0371  0.4656
10990TIP3    H154461   1.765   0.531  63.676 -1.7579  1.2862 -1.7852
10990TIP3    H254462   1.836   0.500  63.546 -0.1123 -1.3249 -0.3507
10991TIP3   OH254463   0.149   1.610  59.935  0.2330  0.5792 -0.3604
10991TIP3    H154464   0.192   1.666  60.000  1.1285  0.2870 -0.6845
10991TIP3    H254465   0.144   1.524  59.977  0.3623  0.5074 -0.4919
10992TIP3   OH254466   0.211   2.077  18.569  0.0929 -0.3504 -0.6773
10992TIP3    H154467   0.131   2.053  18.616 -0.0502 -0.1327 -0.8103
10992TIP3    H254468   0.199   2.041  18.481 -0.9668  1.8354 -1.4726
10993TIP3   OH254469   0.630   2.639  50.166  0.0888 -0.1584 -0.7105
10993TIP3    H154470   0.570   2.580  50.119  0.1058 -0.0260 -0.9007
10993TIP3    H254471   0.694   2.665  50.100  1.1880 -1.3949 -0.1848
10994TIP3   OH254472   0.909   1.497  42.774  0.5340  0.7129  0.1752
10994TIP3    H154473   0.943   1.408  42.764 -0.8364  0.1280  0.5220
10994TIP3    H254474   0.857   1.511  42.695  0.2135  0.9544  0.4284
10995TIP3   OH254475   0.474   0.737  63.847  0.3657 -0.3337 -0.3890
10995TIP3    H154476   0.558   0.701  63.820  1.3925  0.2641  1.7764
10995TIP3    H254477   0.478   0.829  63.821 -0.0353 -0.5114 -1.1141
10996TIP3   OH254478   1.188   0.078  46.197  0.2170 -0.1462  0.4761
10996TIP3    H154479   1.120   0.047  46.137 -0.5037  1.5402  0.3498
10996TIP3    H254480   1.260   0.105  46.139 -0.8887  2.4794  0.1963
10997TIP3   OH254481   0.838   3.234  34.639 -0.3801 -0.2679 -0.5060
10997TIP3    H154482   0.835   3.194  34.727  0.5123  0.3113 -0.1982
10997TIP3    H254483   0.919   3.200  34.600 -1.3612 -1.4572 -1.5826
10998TIP3   OH254484   1.715   2.510  52.659  0.4275  0.1254 -0.2121
10998TIP3    H154485   1.736   2.417  52.666  0.1661  0.1737  1.6806
10998TIP3    H254486   1.626   2.517  52.693  0.3668  1.0468 -0.5251
10999TIP3   OH254487   1.674   2.615  56.600  0.0897 -0.1442 -0.2563
10999TIP3    H154488   1.755   2.568  56.578 -1.6572 -2.8691 -1.3111
10999TIP3    H254489   1.670   2.613  56.696  2.2466  1.9814 -0.0150
11000TIP3   OH254490   1.623   2.916  44.407 -0.3232 -0.0917 -0.3039
11000TIP3    H154491   1.719   2.925  44.403 -0.3561 -0.3240 -2.2461
11000TIP3    H254492   1.607   2.873  44.491  1.2248  0.4253  0.3019
11001TIP3   OH254493   0.491   1.983  44.387  0.1590  0.6528 -0.3043
11001TIP3    H154494   0.467   1.938  44.306  1.7014  3.4119 -2.4828
11001TIP3    H254495   0.409   1.991  44.436 -0.5063 -2.6238 -0.6830
11002TIP3   OH254496   3.318   3.374  12.065 -0.2833 -0.5027 -0.2010
11002TIP3    H154497   3.229   3.343  12.048 -0.3284 -0.9563  0.7571
11002TIP3    H254498   3.374   3.322  12.008 -0.4235 -1.9598  0.9313
11003TIP3   OH254499   2.012   0.641  60.172 -0.0466  0.1165  0.1900
11003TIP3    H154500   1.923   0.665  60.146 -0.8687 -1.1827  1.6102
11003TIP3    H254501   2.040   0.712  60.229  0.1586  0.9223 -0.8891
11004TIP3   OH254502   1.380   2.937  55.376  0.2458 -0.0327 -0.2474
11004TIP3    H154503   1.449   2.872  55.365  1.7428  1.0992  1.7948
11004TIP3    H254504   1.352   2.929  55.467 -0.7911  0.9916 -0.4390
11005TIP3   OH254505   2.951   0.054  12.208 -0.0279  0.1751 -0.2748
11005TIP3    H154506   2.958  -0.024  12.152 -2.1901  0.4519 -1.0332
11005TIP3    H254507   3.032   0.054  12.259 -0.1806 -2.8848  0.1616
11006TIP3   OH254508   2.813   2.055  63.981  0.4976  0.3457  0.3008
11006TIP3    H154509   2.805   2.132  63.925 -0.3859 -1.1750 -1.7931
11006TIP3    H254510   2.866   1.994  63.929 -0.4691 -1.1795  1.0533
11007TIP3   OH254511   3.351   2.772   7.353 -0.4534  0.3601 -0.0272
11007TIP3    H154512   3.385   2.851   7.311 -1.5400  1.2423  0.7042
11007TIP3    H254513   3.334   2.798   7.443  0.8925 -1.2323  0.7300
11008TIP3   OH254514   0.575   3.167  57.363  0.3355 -0.0111  0.4473
11008TIP3    H154515   0.562   3.097  57.299  2.5037 -2.2260  2.1950
11008TIP3    H254516   0.616   3.238  57.314 -0.2944 -0.6460 -1.0578
11009TIP3   OH254517   0.361   2.573  21.428 -0.5470 -0.3313  0.5195
11009TIP3    H154518   0.428   2.578  21.497  0.2350 -1.0761 -0.1599
11009TIP3    H254519   0.285   2.618  21.466  0.0197 -0.2923  1.6770
11010TIP3   OH254520   1.539   2.752  34.376  0.7074 -0.0590 -0.0558
11010TIP3    H154521   1.451   2.740  34.341  0.6522 -2.6837  0.8044
11010TIP3    H254522   1.597   2.728  34.303  0.6409 -1.3202  0.2871
11011TIP3   OH254523   2.594   2.148   0.585  0.2879  0.0201 -0.5127
11011TIP3    H154524   2.639   2.166   0.502  0.9735  0.2844 -0.0950
11011TIP3    H254525   2.507   2.117   0.559  0.9136 -1.1152 -1.3715
11012TIP3   OH254526   0.298   1.318  62.711  0.8306 -0.0661 -0.3039
11012TIP3    H154527   0.320   1.259  62.638  0.6782 -1.8266  1.0152
11012TIP3    H254528   0.378   1.320  62.764 -0.2284 -1.9905  1.5271
11013TIP3   OH254529   1.062   0.316  11.632 -0.3207 -0.6308 -0.7261
11013TIP3    H154530   1.031   0.322  11.542  0.2182 -0.4352 -0.9044
11013TIP3    H254531   1.136   0.255  11.628  1.5694  1.5512 -0.9504
11014TIP3   OH254532   2.689   3.363   5.925 -0.0511  0.0888  0.3075
11014TIP3    H154533   2.640   3.422   5.868  0.5266  1.3105  1.0377
11014TIP3    H254534   2.673   3.276   5.890  0.3163  0.8048 -1.7478
11015TIP3   OH254535   1.389   1.925   9.318 -0.2302 -0.0266 -0.4834
11015TIP3    H154536   1.422   2.013   9.337 -1.4770  0.5595 -0.9388
11015TIP3    H254537   1.359   1.930   9.227  1.0204 -1.3569 -1.0212
11016TIP3   OH254538   0.428   2.377  54.960 -0.0180  0.0634  0.5745
11016TIP3    H154539   0.439   2.283  54.943  0.8623  0.4455 -1.1186
11016TIP3    H254540   0.347   2.400  54.913  0.4848  0.4012 -0.1447
11017TIP3   OH254541   2.936   2.124  57.377 -0.2440  0.4692  0.0320
11017TIP3    H154542   2.966   2.037  57.404  0.0740  1.0203  1.5935
11017TIP3    H254543   3.011   2.162  57.331 -0.4326 -0.1240 -0.7775
11018TIP3   OH254544   0.219   2.580  15.650  0.2080 -0.0641  0.1134
11018TIP3    H154545   0.231   2.491  15.683  1.6631 -0.1804 -0.6641
11018TIP3    H254546   0.129   2.581  15.617  0.8591 -2.0142 -1.9996
11019TIP3   OH254547   1.120   3.094  37.223 -0.1786 -0.4293  0.4288
11019TIP3    H154548   1.135   3.028  37.155  1.6020  0.7515 -0.3879
11019TIP3    H254549   1.125   3.177  37.176 -2.0340  0.3404  1.4991
11020TIP3   OH254550   1.767   2.861  64.896  0.2485  0.2654 -0.4867
11020TIP3    H154551   1.742   2.913  64.973 -0.0278 -1.8187  0.8858
11020TIP3    H254552   1.685   2.847  64.849  0.2714  0.7461 -0.6839
11021TIP3   OH254553   0.463   2.000  14.406  0.5548 -0.9321 -0.0722
11021TIP3    H154554   0.471   2.090  14.440 -0.1634 -0.8835 -0.0147
11021TIP3    H254555   0.517   2.000  14.327 -1.5792  0.3567 -1.6176
11022TIP3   OH254556   0.310   3.107  61.787 -0.4872  0.5581 -0.0799
11022TIP3    H154557   0.295   3.153  61.869 -1.0730  1.0601 -0.4575
11022TIP3    H254558   0.304   3.175  61.720  1.1067  0.3624 -0.4595
11023TIP3   OH254559   2.784   2.089  44.355  0.2233  0.1186  0.1903
11023TIP3    H154560   2.717   2.020  44.360  0.1776  0.2102  0.9012
11023TIP3    H254561   2.738   2.169  44.381  0.8546  0.0014  1.7740
11024TIP3   OH254562   1.631   2.740  21.042  0.0195 -0.1019  0.3297
11024TIP3    H154563   1.603   2.669  21.100 -1.0429 -0.2215 -0.2959
11024TIP3    H254564   1.715   2.710  21.006  0.0705 -0.5897  0.8364
11025TIP3   OH254565   3.085   2.976  61.786 -0.3910 -0.0570  0.6049
11025TIP3    H154566   3.144   3.004  61.716 -1.3835  1.8336  0.4363
11025TIP3    H254567   3.115   3.024  61.864 -0.7156 -0.3185  0.8931
11026TIP3   OH254568   2.492   2.961  42.906  0.2051 -0.0825  0.1525
11026TIP3    H154569   2.487   2.898  42.978  0.7327 -0.2066  0.0826
11026TIP3    H254570   2.402   2.991  42.894  0.0040 -0.5808  0.4032
11027TIP3   OH254571   0.471   1.698  22.297 -0.5808  0.3825  0.3903
11027TIP3    H154572   0.511   1.616  22.268 -1.1989  0.2532 -0.1121
11027TIP3    H254573   0.439   1.739  22.217  0.1694  1.3679  0.5733
11028TIP3   OH254574   2.913   2.762  48.530  0.5744 -1.0437  0.2411
11028TIP3    H154575   2.893   2.671  48.552  0.4307 -1.0903 -0.0784
11028TIP3    H254576   2.879   2.773  48.441 -0.9383 -0.1891  0.8909
11029TIP3   OH254577   0.990   0.496  58.775  0.1226 -0.4100 -0.1219
11029TIP3    H154578   0.971   0.581  58.814  1.2825 -1.4338  3.0087
11029TIP3    H254579   1.080   0.504  58.742 -0.1361 -0.1519 -0.7872
11030TIP3   OH254580   0.372   0.181  60.151  0.3034 -0.5364  0.2233
11030TIP3    H154581   0.327   0.157  60.070 -1.1420  2.6850 -0.0937
11030TIP3    H254582   0.314   0.151  60.221 -0.1416 -0.3029 -0.0468
11031TIP3   OH254583   2.981   3.025  19.206 -0.7105 -0.2524  0.5853
11031TIP3    H154584   2.903   2.970  19.195 -0.5637 -0.2846 -0.4422
11031TIP3    H254585   3.009   3.045  19.116  2.5594 -3.1651  0.7650
11032TIP3   OH254586   1.508   3.425   3.141  0.6485 -0.5076  0.4009
11032TIP3    H154587   1.527   3.334   3.118  1.8378 -0.0596 -0.4867
11032TIP3    H254588   1.467   3.420   3.228  0.5138 -1.8934  0.2762
11033TIP3   OH254589   1.333   0.317  56.185  0.5101  0.0584 -0.0233
11033TIP3    H154590   1.428   0.325  56.192  0.9293 -2.4588 -1.3795
11033TIP3    H254591   1.310   0.372  56.110  1.3046 -1.1904 -1.2284
11034TIP3   OH254592   0.442   1.777   9.985 -0.3461 -0.1854 -0.3434
11034TIP3    H154593   0.431   1.687   9.956 -0.6282 -0.6103  0.9988
11034TIP3    H254594   0.380   1.787  10.057  1.9987  0.0191  1.7804
11035TIP3   OH254595   0.804   3.076   8.464 -1.1475  0.4387 -0.1861
11035TIP3    H154596   0.787   3.113   8.377  1.5924  1.1772 -0.5012
11035TIP3    H254597   0.868   3.006   8.447 -1.4632 -0.1903  1.1325
11036TIP3   OH254598   2.483   0.976  57.813  0.4654 -0.4174  0.1449
11036TIP3    H154599   2.559   0.946  57.764 -0.5576 -0.9147 -1.1963
11036TIP3    H254600   2.458   1.058  57.771  1.0400  0.4531  1.4442
11037TIP3   OH254601   0.309   0.468  53.118 -0.5718 -0.6816 -0.2290
11037TIP3    H154602   0.358   0.452  53.038 -0.4955  0.8179 -0.5201
11037TIP3    H254603   0.371   0.515  53.175 -1.6062  1.3124 -0.6275
11038TIP3   OH254604   1.223   1.145  53.474  0.3329 -0.0474  0.2708
11038TIP3    H154605   1.190   1.083  53.410 -0.8896 -0.9683  1.7260
11038TIP3    H254606   1.173   1.225  53.459 -1.0567 -0.7382  1.0081
11039TIP3   OH254607   0.086   2.771   8.288 -0.1993 -0.6022 -0.2564
11039TIP3    H154608   0.098   2.733   8.375  0.8061 -1.1080 -0.6001
11039TIP3    H254609   0.172   2.804   8.264 -0.3718 -0.8083 -1.2126
11040TIP3   OH254610   2.308   2.166  22.467 -0.1774  0.4839  0.6087
11040TIP3    H154611   2.219   2.129  22.473 -0.3209  0.6737 -0.3241
11040TIP3    H254612   2.319   2.213  22.550 -0.7800  0.1010  0.9206
11041TIP3   OH254613   1.002   1.699  37.852  0.3367  0.0421  0.1876
11041TIP3    H154614   0.935   1.732  37.911  1.7195 -1.6529  2.8815
11041TIP3    H254615   1.072   1.765  37.857  1.2328 -0.9941  2.0171
11042TIP3   OH254616   0.788   0.141  57.923 -0.8998  0.0244  0.0615
11042TIP3    H154617   0.749   0.143  58.011 -0.0319  0.2825  0.4547
11042TIP3    H254618   0.876   0.106  57.937 -1.5329 -2.1116 -1.0347
11043TIP3   OH254619   1.687   3.389   6.272  0.4908 -0.1143 -0.0594
11043TIP3    H154620   1.717   3.463   6.219  2.5490 -0.1490  0.9430
11043TIP3    H254621   1.700   3.418   6.362  0.5779 -1.4040  0.3563
11044TIP3   OH254622   1.271   0.594   3.121 -0.6468 -0.5035 -0.3171
11044TIP3    H154623   1.226   0.536   3.183  1.0539 -0.4466  1.0419
11044TIP3    H254624   1.250   0.682   3.150  1.2731 -0.4601  1.1388
11045TIP3   OH254625   1.619   0.969  15.029 -0.2210 -0.3516 -0.1365
11045TIP3    H154626   1.591   0.909  15.098  0.8672 -0.2791  0.4063
11045TIP3    H254627   1.546   0.973  14.968 -1.8011  0.6558  1.7228
11046TIP3   OH254628   1.541   2.398  66.765 -0.5822  0.2207 -0.2503
11046TIP3    H154629   1.520   2.306  66.746  0.0968  0.0520 -0.1938
11046TIP3    H254630   1.494   2.417  66.846  0.1745 -0.4222  0.3596
11047TIP3   OH254631   0.959   0.568  53.094  0.5895  0.2899  0.3187
11047TIP3    H154632   0.985   0.582  53.185 -0.7738  1.9919  0.4835
11047TIP3    H254633   0.887   0.629  53.079  1.3259  0.6642 -2.1635
11048TIP3   OH254634   0.903   1.183  57.961  0.0031 -0.2031  0.3988
11048TIP3    H154635   0.934   1.096  57.984  0.1589 -0.3977 -0.4977
11048TIP3    H254636   0.908   1.186  57.865 -0.6790  0.5325  0.3702
11049TIP3   OH254637   2.598   0.511   7.078  0.6118  0.3581 -0.0124
11049TIP3    H154638   2.623   0.512   6.986 -0.5427  0.8911 -0.3374
11049TIP3    H254639   2.537   0.585   7.088 -3.2605 -2.5332  0.0038
11050TIP3   OH254640   1.221   2.221  55.071 -0.1290 -0.1389  0.3163
11050TIP3    H154641   1.307   2.191  55.099 -0.4907 -0.5246  1.0496
11050TIP3    H254642   1.162   2.191  55.140 -0.8362  0.2074 -0.1305
11051TIP3   OH254643   0.021   2.066   4.466 -0.0569 -0.0237  0.4212
11051TIP3    H154644   0.093   2.010   4.494  0.3871 -0.0364 -0.6898
11051TIP3    H254645   0.023   2.062   4.370  0.0530  1.9946  0.3033
11052TIP3   OH254646   1.117   3.078  63.513  0.2738 -0.0606 -0.2507
11052TIP3    H154647   1.082   3.140  63.448  0.0930  1.6342  1.3595
11052TIP3    H254648   1.092   2.992  63.480 -2.2915  0.8791 -1.0400
11053TIP3   OH254649   2.873   2.381  49.278 -0.3903  0.3208 -0.2222
11053TIP3    H154650   2.868   2.298  49.231 -0.6481  0.7257 -0.9284
11053TIP3    H254651   2.956   2.377  49.325 -0.3044 -0.2499 -0.4157
11054TIP3   OH254652   2.263   2.578  14.646 -0.3372 -0.0424 -0.0072
11054TIP3    H154653   2.246   2.490  14.680 -1.2202  0.3012  0.4878
11054TIP3    H254654   2.352   2.574  14.613 -0.3389 -1.1067  0.0670
11055TIP3   OH254655   1.872   1.360  44.556 -0.2348 -0.4352  0.1734
11055TIP3    H154656   1.842   1.382  44.644  0.7064 -1.9619  0.9299
11055TIP3    H254657   1.967   1.350  44.564 -0.2038 -1.2000 -0.8635
11056TIP3   OH254658   3.224   0.904  43.331 -0.5707 -0.0970  0.3415
11056TIP3    H154659   3.179   0.861  43.258  0.1733 -0.3223  0.0036
11056TIP3    H254660   3.275   0.834  43.371  0.4728  0.4152 -0.0715
11057TIP3   OH254661   1.911   3.054  12.660  0.1755 -0.8318 -0.4022
11057TIP3    H154662   1.883   3.000  12.733  0.6106  0.6662  0.9288
11057TIP3    H254663   2.000   3.025  12.641  0.5563 -0.3444  0.5714
11058TIP3   OH254664   0.021   2.167  21.392  0.2751  0.1164 -0.4757
11058TIP3    H154665  -0.046   2.171  21.325  0.6355  0.8291 -0.8115
11058TIP3    H254666   0.019   2.077  21.424 -0.5312  0.0209 -0.7905
11059TIP3   OH254667   0.963   2.365   5.363 -0.7525 -0.3672  0.1050
11059TIP3    H154668   0.903   2.419   5.415  2.0528  0.5671  2.6090
11059TIP3    H254669   0.985   2.419   5.287  0.1242  1.0777  1.3422
11060TIP3   OH254670   0.781   0.687  51.694  0.0224 -0.0791  0.3081
11060TIP3    H154671   0.761   0.683  51.787  1.8887  0.5346  0.7814
11060TIP3    H254672   0.842   0.761  51.686  1.7160 -1.5253 -1.0146
11061TIP3   OH254673   2.295   0.618  46.699  0.6171 -0.0194  0.6861
11061TIP3    H154674   2.309   0.711  46.712  1.3467 -0.0759  0.3910
11061TIP3    H254675   2.200   0.607  46.696  0.4717  1.1304 -2.0855
11062TIP3   OH254676   2.166   0.222   8.386 -0.3028 -0.7313 -0.3902
11062TIP3    H154677   2.234   0.203   8.451 -0.4270  0.5128  0.1389
11062TIP3    H254678   2.092   0.255   8.438 -0.7749 -0.6747 -1.0854
11063TIP3   OH254679   0.071   1.704  21.279 -0.0478 -0.0119 -0.1679
11063TIP3    H154680   0.089   1.625  21.230 -0.7766 -0.2295 -0.1003
11063TIP3    H254681   0.012   1.676  21.349 -1.1113  0.7490 -0.7248
11064TIP3   OH254682   1.296   1.726  12.571  0.2303 -0.4816 -0.3721
11064TIP3    H154683   1.300   1.632  12.555  0.5429 -0.4271 -0.6605
11064TIP3    H254684   1.323   1.737  12.662  1.7292 -0.5619 -0.7779
11065TIP3   OH254685   0.039   0.807  16.082  0.4020  0.0832 -0.0898
11065TIP3    H154686  -0.043   0.852  16.103 -0.3465 -0.5466 -1.5234
11065TIP3    H254687   0.022   0.715  16.100  0.5807 -0.1318 -0.9799
11066TIP3   OH254688   2.826   1.474   1.512  0.1624  0.1057 -0.2201
11066TIP3    H154689   2.766   1.547   1.531 -0.4840  0.0722 -1.9462
11066TIP3    H254690   2.786   1.428   1.439  1.4995 -0.9025 -0.3651
11067TIP3   OH254691   1.756   2.345  54.004  0.4682 -0.2349 -0.2098
11067TIP3    H154692   1.818   2.415  54.023  0.4687 -0.0702 -0.7864
11067TIP3    H254693   1.745   2.348  53.909  0.0593 -0.6710 -0.1826
11068TIP3   OH254694   1.615   1.775  49.661  0.0887  0.3888  0.2366
11068TIP3    H154695   1.545   1.730  49.613  0.4213 -1.6294  1.5018
11068TIP3    H254696   1.572   1.814  49.737  0.1536  0.1147  0.4188
11069TIP3   OH254697   1.533   2.952  34.135  0.3756 -0.2680  0.2707
11069TIP3    H154698   1.465   3.010  34.170  0.8611  0.3295  0.2385
11069TIP3    H254699   1.605   2.959  34.197  0.5050 -0.7106  0.1742
11070TIP3   OH254700   3.078   0.370   9.281  0.3361 -0.2399  0.2430
11070TIP3    H154701   3.067   0.275   9.280 -1.7780 -0.0373 -0.0012
11070TIP3    H254702   3.015   0.401   9.345  1.7426  0.9577  1.1176
11071TIP3   OH254703   1.968   0.140  54.329 -0.1640  0.1412 -0.3332
11071TIP3    H154704   2.046   0.086  54.340  1.5837  2.4346 -0.4662
11071TIP3    H254705   1.950   0.138  54.235 -0.3468 -0.5003 -0.2830
11072TIP3   OH254706   0.885   0.617   7.172 -0.6415  0.1666 -0.4989
11072TIP3    H154707   0.925   0.626   7.259 -1.6534  4.6259 -0.2670
11072TIP3    H254708   0.794   0.594   7.189 -0.4489 -0.6313 -0.5107
11073TIP3   OH254709   2.056   3.447  48.154 -0.5150  0.2742 -0.0856
11073TIP3    H154710   2.012   3.381  48.100 -0.0533 -0.6960  0.6874
11073TIP3    H254711   2.112   3.396  48.212 -2.1931  1.1680  2.4651
11074TIP3   OH254712   3.048   0.772  20.663  0.4913  0.0335 -0.4275
11074TIP3    H154713   3.110   0.702  20.641 -0.0323 -0.7061  0.3746
11074TIP3    H254714   3.019   0.807  20.579  0.3331 -1.0992 -0.8563
11075TIP3   OH254715   2.681   2.015  50.457  0.3234 -0.0971  0.6161
11075TIP3    H154716   2.738   2.085  50.424  1.0310 -0.4602  1.0388
11075TIP3    H254717   2.631   1.988  50.380  1.3781 -0.3784 -0.0010
11076TIP3   OH254718   1.344   2.602  53.208  0.0984  0.2605  0.9317
11076TIP3    H154719   1.286   2.558  53.146 -1.4719  0.0052  2.5173
11076TIP3    H254720   1.314   2.693  53.209  0.9041  0.5366  0.4323
11077TIP3   OH254721   1.583   2.402  66.293 -0.7171 -0.1620  0.2661
11077TIP3    H154722   1.558   2.470  66.355 -0.0159 -0.0003  0.3762
11077TIP3    H254723   1.568   2.320  66.341 -0.9843 -0.0678  0.3467
11078TIP3   OH254724   2.695   1.614  11.970  0.4901 -0.5179 -0.0539
11078TIP3    H154725   2.609   1.611  12.011  0.2315  1.6571 -0.3021
11078TIP3    H254726   2.710   1.525  11.938 -0.5997 -1.5378  2.0545
11079TIP3   OH254727   2.867   0.641   4.468  0.3320  0.4331 -0.5250
11079TIP3    H154728   2.886   0.730   4.439 -0.7851  0.4697 -1.1983
11079TIP3    H254729   2.885   0.586   4.391 -0.4618  0.2654 -0.6009
11080TIP3   OH254730   2.397   2.128  48.204 -0.2840  0.7200  0.2828
11080TIP3    H154731   2.475   2.174  48.233  0.1081  0.7784 -0.7855
11080TIP3    H254732   2.405   2.126  48.108 -0.5020 -1.1561  0.2606
11081TIP3   OH254733   1.050   1.733  19.715 -0.2638 -0.1281 -0.1912
11081TIP3    H154734   1.032   1.650  19.670  1.7499 -0.4770 -0.4632
11081TIP3    H254735   1.072   1.794  19.644 -1.3399  0.5419  0.0367
11082TIP3   OH254736   1.656   2.048  62.238  0.0058  0.0675  0.1037
11082TIP3    H154737   1.655   1.955  62.218 -0.3140 -0.0121  0.4654
11082TIP3    H254738   1.592   2.086  62.177  0.8062  0.1901 -0.6672
11083TIP3   OH254739   2.001   3.396  55.090 -0.0195 -0.4192 -0.6316
11083TIP3    H154740   1.984   3.302  55.092 -1.7822 -0.2398 -2.6095
11083TIP3    H254741   1.919   3.435  55.120  0.2307  0.4870 -1.1075
11084TIP3   OH254742   0.689   0.743  52.520 -0.6317  0.0838  0.3655
11084TIP3    H154743   0.611   0.696  52.547 -0.0989 -0.8105  0.4064
11084TIP3    H254744   0.761   0.682  52.538  0.1021  0.9959  0.6017
11085TIP3   OH254745   2.330   3.394   4.148 -0.2813 -0.4445 -0.1208
11085TIP3    H154746   2.372   3.335   4.086  2.8269  1.6967 -0.3017
11085TIP3    H254747   2.322   3.477   4.100 -0.4502  0.4726  1.4248
11086TIP3   OH254748   3.322   3.096  13.643 -0.4200 -0.2045  0.5409
11086TIP3    H154749   3.290   3.148  13.569  2.3010  1.0102  0.1054
11086TIP3    H254750   3.249   3.096  13.705 -1.3042  2.3894 -0.3579
11087TIP3   OH254751   2.960   2.978  46.929 -0.1030 -0.1435  0.2384
11087TIP3    H154752   2.883   2.927  46.903 -0.4291  1.6450 -2.9354
11087TIP3    H254753   2.931   3.027  47.006 -1.5713 -0.7583  0.1117
11088TIP3   OH254754   2.363   0.173  16.736  0.5702 -0.2160  0.0166
11088TIP3    H154755   2.337   0.237  16.803  0.1301 -0.0856 -0.2726
11088TIP3    H254756   2.384   0.094  16.786  0.4628 -0.0529  0.3260
11089TIP3   OH254757   2.546   3.390  18.391 -0.0149  0.0980  0.5127
11089TIP3    H154758   2.605   3.377  18.466  0.5521 -0.3394  0.0018
11089TIP3    H254759   2.462   3.413  18.431  0.6859  1.5563  1.2443
11090TIP3   OH254760   2.827   2.993  17.133 -0.0637  0.3871  0.3642
11090TIP3    H154761   2.781   3.040  17.064 -1.3777 -0.4420  0.6285
11090TIP3    H254762   2.759   2.974  17.198  0.6436 -0.9309  0.7562
11091TIP3   OH254763   3.175   0.210  27.699  0.4604  0.3749  0.4153
11091TIP3    H154764   3.214   0.123  27.708  1.9004  0.7468 -1.5434
11091TIP3    H254765   3.081   0.193  27.691  0.8612 -1.2033 -1.7240
11092TIP3   OH254766   1.454   0.071   1.489  0.0700 -0.2649 -0.1170
11092TIP3    H154767   1.371   0.072   1.536 -0.9396 -2.4226 -1.7215
11092TIP3    H254768   1.430   0.053   1.398  2.2767 -0.6208 -0.6772
11093TIP3   OH254769   0.586   1.913  16.735 -0.2310 -0.1955  0.1486
11093TIP3    H154770   0.604   1.993  16.785  2.3530 -0.3769 -0.3315
11093TIP3    H254771   0.564   1.847  16.801 -0.8087  0.5205  0.6773
11094TIP3   OH254772   2.548   1.188  29.581  0.5552  0.4821  0.5523
11094TIP3    H154773   2.463   1.196  29.625 -0.3260 -1.5521 -0.6508
11094TIP3    H254774   2.597   1.126  29.635  1.0620  1.1384  0.8705
11095TIP3   OH254775   3.102   2.473  62.246 -0.0806 -0.0265 -0.0641
11095TIP3    H154776   3.171   2.463  62.312  0.2063 -0.0200 -0.3602
11095TIP3    H254777   3.021   2.480  62.297  0.0438 -0.8644  0.2625
11096TIP3   OH254778   1.704   2.260  11.564  0.4417  0.0425 -0.6126
11096TIP3    H154779   1.683   2.344  11.524 -0.6564  1.3911  2.4891
11096TIP3    H254780   1.620   2.221  11.583  0.7619  0.5992  2.4001
11097TIP3   OH254781   1.574   3.410   5.616 -0.0052  0.1339 -0.2982
11097TIP3    H154782   1.537   3.436   5.532  0.7437  1.2808 -0.2948
11097TIP3    H254783   1.538   3.473   5.679  0.7133  0.2998 -0.0397
11098TIP3   OH254784   2.569   0.424  59.834  0.4412  0.1557  0.3602
11098TIP3    H154785   2.546   0.332  59.818 -1.3025  0.8294 -1.3548
11098TIP3    H254786   2.485   0.468  59.846  1.1669  1.7245 -0.0448
11099TIP3   OH254787   2.012   1.143  46.586  0.1008  0.3558 -0.5622
11099TIP3    H154788   1.940   1.167  46.644  1.7638  0.5806  1.5655
11099TIP3    H254789   2.002   1.049  46.572  0.0793  0.1487  0.7606
11100TIP3   OH254790   1.466   2.868  59.471  0.4841  0.4865  0.2876
11100TIP3    H154791   1.532   2.842  59.407 -1.5641 -1.0192 -1.3576
11100TIP3    H254792   1.463   2.796  59.534 -2.5674 -1.8006 -2.1732
11101TIP3   OH254793   2.705   2.212  18.000 -0.1781 -0.1297 -0.3958
11101TIP3    H154794   2.748   2.213  17.915  2.1795 -2.0173  0.6503
11101TIP3    H254795   2.665   2.299  18.008 -0.8750 -0.0533 -3.5516
11102TIP3   OH254796   1.610   2.689  19.426  0.0032 -0.2471 -0.1713
11102TIP3    H154797   1.690   2.638  19.421 -0.3919 -0.8931 -0.1274
11102TIP3    H254798   1.634   2.768  19.474  0.2055 -1.2989  1.5454
11103TIP3   OH254799   3.112   3.052  50.327 -1.0597 -0.2655 -0.0810
11103TIP3    H154800   3.114   2.956  50.333 -1.1286 -0.2549  0.1159
11103TIP3    H254801   3.126   3.082  50.416 -0.7813 -0.0856 -0.1867
11104TIP3   OH254802   0.542   2.783  12.553 -0.6037  0.1237 -0.3499
11104TIP3    H154803   0.529   2.843  12.627  0.5505  0.9769 -0.8049
11104TIP3    H254804   0.618   2.731  12.578 -1.1332 -0.6338 -0.2990
11105TIP3   OH254805   0.362   3.153  15.768  0.3507  0.5722 -0.1027
11105TIP3    H154806   0.336   3.137  15.859 -1.3443 -0.4430 -0.7165
11105TIP3    H254807   0.396   3.068  15.738  0.7149  0.8470 -0.4783
11106TIP3   OH254808   2.971   2.434  67.309  0.0594 -0.2023 -0.2021
11106TIP3    H154809   2.880   2.457  67.292 -0.1933 -1.1375 -0.1758
11106TIP3    H254810   2.990   2.473  67.395 -0.0514  0.7012 -0.5786
11107TIP3   OH254811   3.172   0.756  18.048  0.0445  0.2190 -0.1526
11107TIP3    H154812   3.081   0.727  18.051 -0.1721  0.9564  1.7984
11107TIP3    H254813   3.214   0.710  18.121  0.5115  2.0678  0.8019
11108TIP3   OH254814   1.260   1.132  45.301  0.0055  0.7729  0.0543
11108TIP3    H154815   1.263   1.220  45.264 -1.5533  1.0119  0.4258
11108TIP3    H254816   1.167   1.114  45.314  0.2471 -1.1195 -0.4244
11109TIP3   OH254817   3.283   2.548   3.419 -0.2221 -0.0807  0.2818
11109TIP3    H154818   3.243   2.479   3.471 -2.2799  1.2962  0.6639
11109TIP3    H254819   3.375   2.548   3.444 -0.2421 -2.3928  0.5330
11110TIP3   OH254820   3.068   2.121   8.217  0.1903  0.7305  0.3407
11110TIP3    H154821   3.043   2.213   8.228 -1.4672  0.4241 -0.6020
11110TIP3    H254822   3.153   2.114   8.260  0.7172  2.8789 -0.2472
11111TIP3   OH254823   2.560   2.337  57.380  0.9202 -0.1549  0.5013
11111TIP3    H154824   2.596   2.255  57.413 -2.1420 -0.9778  2.2098
11111TIP3    H254825   2.581   2.402  57.447  1.8901  0.1014 -0.0403
11112TIP3   OH254826   2.007   1.771  57.108 -0.1998 -0.0820  0.4424
11112TIP3    H154827   1.918   1.743  57.090 -0.2626 -0.0190  0.6498
11112TIP3    H254828   1.997   1.857  57.149 -0.0500 -0.1122  0.5428
11113TIP3   OH254829   1.091   1.239  56.960  0.2236  0.6629 -0.6592
11113TIP3    H154830   1.032   1.172  56.925 -0.2844  0.2168  0.9797
11113TIP3    H254831   1.170   1.192  56.984 -0.0114  0.6926  0.1938
11114TIP3   OH254832   1.410   2.995  17.544 -0.8913 -0.3771  0.7216
11114TIP3    H154833   1.409   2.930  17.474  1.3887 -0.3239  0.5743
11114TIP3    H254834   1.436   2.946  17.622 -0.4950  0.0957  0.8922
11115TIP3   OH254835   1.709   1.754   1.257  0.5641  0.2514  0.1776
11115TIP3    H154836   1.667   1.700   1.324 -0.3732 -3.2106 -2.8980
11115TIP3    H254837   1.641   1.816   1.230 -0.4641 -1.0378 -0.2953
11116TIP3   OH254838   2.646   0.632  14.509  0.2820 -0.0594  0.2059
11116TIP3    H154839   2.554   0.645  14.530  0.2492 -0.2259  0.1602
11116TIP3    H254840   2.676   0.718  14.479 -0.3769 -0.4931 -1.8180
11117TIP3   OH254841   0.244   1.938  52.739  0.2479 -0.1896  0.2689
11117TIP3    H154842   0.261   1.884  52.817  0.4505 -1.6818 -0.7546
11117TIP3    H254843   0.331   1.961  52.707  0.1730  0.1061  0.2811
11118TIP3   OH254844   1.298   0.096  20.524 -0.1385 -0.3376 -0.2133
11118TIP3    H154845   1.313   0.031  20.593 -0.3600  0.5809  0.7228
11118TIP3    H254846   1.213   0.072  20.486 -0.4740 -0.2848  0.4885
11119TIP3   OH254847   3.421   2.807   6.555  0.2045  0.0334  0.2820
11119TIP3    H154848   3.412   2.755   6.635  1.7189  0.2597  0.6456
11119TIP3    H254849   3.511   2.840   6.559  0.4744 -0.3630 -1.7663
11120TIP3   OH254850   1.126   1.640  50.260  0.1001 -0.0550  0.6478
11120TIP3    H154851   1.088   1.599  50.183 -1.2912 -0.2869  1.4331
11120TIP3    H254852   1.188   1.704  50.224 -1.8943  1.2112 -0.7440
11121TIP3   OH254853   2.794   1.940  26.644 -0.3828 -0.0598  0.2607
11121TIP3    H154854   2.722   1.922  26.583 -1.8934 -0.3823  2.0490
11121TIP3    H254855   2.859   1.873  26.625 -0.2548  0.5551 -1.7529
11122TIP3   OH254856   0.773   0.843  66.563 -0.3890 -0.9976  0.0584
11122TIP3    H154857   0.764   0.757  66.605  0.1839  0.0441  2.4418
11122TIP3    H254858   0.738   0.905  66.627  0.8995  0.7384 -0.8441
11123TIP3   OH254859   2.147   2.894  67.490  0.3434  0.3329 -0.2539
11123TIP3    H154860   2.106   2.808  67.495  0.1761  0.4242 -0.0801
11123TIP3    H254861   2.237   2.875  67.463  0.3705  0.0852  0.0049
11124TIP3   OH254862   0.538   2.921  63.749 -0.4390  0.4771  0.0141
11124TIP3    H154863   0.585   2.944  63.669 -0.6822 -0.1751 -0.3255
11124TIP3    H254864   0.605   2.920  63.818 -0.0484  0.0714 -0.3640
11125TIP3   OH254865   0.942   1.198  15.454 -0.0262 -0.1864 -0.5328
11125TIP3    H154866   0.941   1.114  15.408 -0.2931 -0.3324 -0.2581
11125TIP3    H254867   1.022   1.196  15.506  0.9846  0.5211 -1.9900
11126TIP3   OH254868   0.500   2.960  39.093 -0.0206 -0.9721 -0.0207
11126TIP3    H154869   0.571   3.016  39.061 -0.1387  0.5060  2.0907
11126TIP3    H254870   0.423   3.016  39.092  0.1523 -0.4424  3.6040
11127TIP3   OH254871   1.954   2.894  17.751  0.1629 -0.4355 -0.4448
11127TIP3    H154872   1.970   2.886  17.846  1.3256  0.5574 -0.5402
11127TIP3    H254873   1.859   2.903  17.744  0.0615 -0.4648  0.6311
11128TIP3   OH254874   2.466   0.527  45.313  0.1076  0.3507  0.8318
11128TIP3    H154875   2.469   0.496  45.404  2.1087 -1.4082  0.2549
11128TIP3    H254876   2.557   0.522  45.283 -0.4945  0.9534 -1.2511
11129TIP3   OH254877   1.788   3.091  44.851  0.2690  0.2197  0.4000
11129TIP3    H154878   1.827   3.166  44.805  0.3185 -0.2220 -0.2892
11129TIP3    H254879   1.825   3.096  44.939  0.9614  0.5026  0.1018
11130TIP3   OH254880   1.469   2.099  62.058  0.3426  0.1469 -0.1861
11130TIP3    H154881   1.411   2.064  61.991 -4.6843  1.3364  2.9777
11130TIP3    H254882   1.502   2.181  62.021 -0.1678 -0.4295 -2.0167
11131TIP3   OH254883   0.965   1.636  61.252  0.5608  0.0413 -0.6223
11131TIP3    H154884   0.891   1.656  61.309 -0.8941 -1.3489 -1.9001
11131TIP3    H254885   1.042   1.671  61.297 -0.7199  0.4158  1.3550
11132TIP3   OH254886   1.495   0.368   9.645 -0.4743 -0.4945 -0.1587
11132TIP3    H154887   1.434   0.361   9.719 -1.2353  0.4366 -0.6742
11132TIP3    H254888   1.531   0.280   9.635 -0.7202 -0.7387  1.0171
11133TIP3   OH254889   1.408   3.175  52.760 -0.5687  0.2582 -0.1547
11133TIP3    H154890   1.461   3.251  52.738  0.8218 -1.0639 -1.6766
11133TIP3    H254891   1.330   3.184  52.705 -0.8926  1.0849  0.4293
11134TIP3   OH254892   0.574   2.059  51.970 -1.1168  0.5349  0.0157
11134TIP3    H154893   0.515   1.989  52.000  0.5750 -1.2693 -0.6155
11134TIP3    H254894   0.618   2.089  52.050 -0.0605 -0.9373  0.0471
11135TIP3   OH254895   0.736   2.063  45.852  0.7305  0.2702  0.2193
11135TIP3    H154896   0.777   2.120  45.787  2.4360 -0.5744  0.5227
11135TIP3    H254897   0.687   2.123  45.908  2.1633  1.4076  0.3040
11136TIP3   OH254898   2.584   1.037  16.276 -0.0016  0.4713  0.1356
11136TIP3    H154899   2.545   1.095  16.211  0.0548  0.5435  0.1660
11136TIP3    H254900   2.581   0.950  16.235 -0.7656  0.3670  0.3874
11137TIP3   OH254901   3.325   1.166  11.417  0.0875  0.8546  0.1112
11137TIP3    H154902   3.325   1.241  11.476  1.4504  1.1613 -0.2477
11137TIP3    H254903   3.411   1.167  11.376 -1.1274  1.2494 -2.6569
11138TIP3   OH254904   1.954   1.765  65.403 -0.0334 -0.0419 -0.7709
11138TIP3    H154905   2.002   1.683  65.405  0.7459  0.3669 -1.7236
11138TIP3    H254906   1.862   1.740  65.413  0.1177 -1.0990 -1.7886
11139TIP3   OH254907   2.651   1.835  54.143  0.0954  0.0794 -0.4377
11139TIP3    H154908   2.620   1.906  54.198 -0.1001  0.8086 -1.4643
11139TIP3    H254909   2.638   1.866  54.054  1.1102 -0.7627 -0.9043
11140TIP3   OH254910   2.028   0.225  58.093  0.3207  0.0243  0.0749
11140TIP3    H154911   2.037   0.167  58.017  1.4093 -2.5519  2.0421
11140TIP3    H254912   1.953   0.191  58.141  1.7884 -0.6952  1.9783
11141TIP3   OH254913   1.811   2.325  22.945 -0.4182 -0.2791 -0.2896
11141TIP3    H154914   1.826   2.415  22.915  0.3242 -1.1578 -2.8668
11141TIP3    H254915   1.892   2.279  22.923  0.0290 -1.2193  2.8752
11142TIP3   OH254916   0.516   0.975  18.855  0.3490 -0.5473 -0.1047
11142TIP3    H154917   0.603   0.965  18.818  0.9887 -1.7718  1.6041
11142TIP3    H254918   0.469   0.895  18.828  0.0986 -0.4016 -0.1102
11143TIP3   OH254919   2.563   0.558   1.452 -0.3642 -0.1231  0.2305
11143TIP3    H154920   2.606   0.532   1.533 -2.0222  0.9273  1.5263
11143TIP3    H254921   2.551   0.476   1.404  1.4499 -0.6459  0.5881
11144TIP3   OH254922   2.132   2.289  42.284 -0.3572 -0.3241 -0.4725
11144TIP3    H154923   2.200   2.319  42.224  0.7816 -0.5955  0.6394
11144TIP3    H254924   2.052   2.290  42.232  0.4332  0.3171 -1.7233
11145TIP3   OH254925   1.147   0.680  47.530 -0.0257 -0.7285  0.1159
11145TIP3    H154926   1.166   0.756  47.474 -1.6695  0.5866  1.2463
11145TIP3    H254927   1.209   0.613  47.501 -0.7870 -0.1616 -3.2782
11146TIP3   OH254928   1.693   2.651   0.982 -0.2206 -0.1137 -0.5618
11146TIP3    H154929   1.638   2.578   0.951  0.9713 -2.1347  1.7439
11146TIP3    H254930   1.646   2.685   1.058 -0.1862  0.7967 -0.9361
11147TIP3   OH254931   1.474   2.549  66.524  0.2553 -0.0185 -0.1810
11147TIP3    H154932   1.519   2.511  66.599  1.0490 -0.3164 -0.7976
11147TIP3    H254933   1.392   2.582  66.560  0.8051  0.2295  0.9030
11148TIP3   OH254934   2.109   0.188  27.930  0.5010  0.6998 -0.3438
11148TIP3    H154935   2.098   0.190  28.025  2.6684 -0.4062  0.0112
11148TIP3    H254936   2.031   0.229  27.895  0.4763  2.8525  1.9853
11149TIP3   OH254937   3.275   0.438  44.164 -0.4613 -0.9781  0.1769
11149TIP3    H154938   3.271   0.435  44.069 -0.2891  1.8852 -0.0035
11149TIP3    H254939   3.184   0.449  44.191 -0.5702 -2.2841  0.4262
11150TIP3   OH254940   3.377   0.419  54.236 -0.4433  0.3866  0.1373
11150TIP3    H154941   3.405   0.346  54.181  3.0845  2.1812 -0.7719
11150TIP3    H254942   3.398   0.391  54.325 -0.8454 -0.3777 -0.0003
11151TIP3   OH254943   0.887   1.813   9.501 -0.6850  0.0583  0.3249
11151TIP3    H154944   0.950   1.867   9.548  3.5162 -1.4012 -2.9349
11151TIP3    H254945   0.891   1.845   9.411 -2.5530 -1.9250 -0.5563
11152TIP3   OH254946   2.006   0.014  45.169 -0.1136 -0.0131 -0.5110
11152TIP3    H154947   2.042   0.067  45.241 -0.5259 -1.0756  0.5113
11152TIP3    H254948   2.053  -0.069  45.175 -1.8698 -1.0079  0.1126
11153TIP3   OH254949   2.299   2.033  51.703 -0.4135  0.2592  0.1407
11153TIP3    H154950   2.352   2.061  51.628  2.4524  0.2751  2.0389
11153TIP3    H254951   2.295   1.937  51.695 -0.7336  0.3101 -0.3832
11154TIP3   OH254952   3.391   2.293   5.361  0.1854 -0.2871  0.1708
11154TIP3    H154953   3.418   2.337   5.442  0.2720  0.0209 -0.0265
11154TIP3    H254954   3.418   2.352   5.291 -2.4745  0.8467  0.0175
11155TIP3   OH254955   3.168   0.696  31.125  0.0154  0.5807  0.4516
11155TIP3    H154956   3.112   0.622  31.146  2.7330 -1.8914 -0.3226
11155TIP3    H254957   3.108   0.764  31.094 -2.5443 -1.7052  0.0552
11156TIP3   OH254958   3.449   0.379   1.201  0.1010  0.0319  0.4893
11156TIP3    H154959   3.493   0.294   1.202 -0.2247 -0.1540 -0.0683
11156TIP3    H254960   3.366   0.364   1.246 -0.8865 -0.5009 -1.3843
11157TIP3   OH254961   1.408   1.783  61.570 -0.4047 -0.1770 -0.1258
11157TIP3    H154962   1.356   1.727  61.627  0.7051 -2.0125 -0.8394
11157TIP3    H254963   1.459   1.838  61.629 -0.8697 -0.5328  0.6151
11158TIP3   OH254964   2.788   1.498  46.310 -0.1933  0.0925 -0.5733
11158TIP3    H154965   2.745   1.468  46.230 -0.9761 -1.4026  0.3593
11158TIP3    H254966   2.846   1.426  46.334  0.1785  0.6064  0.1049
11159TIP3   OH254967   3.119   1.558  48.894  0.0958 -0.3770  0.2049
11159TIP3    H154968   3.091   1.519  48.977 -2.7251  0.7313 -0.1353
11159TIP3    H254969   3.148   1.483  48.842  1.3576 -1.1589  1.9407
11160TIP3   OH254970   0.801   2.125  21.419  0.3631 -0.5164  0.4489
11160TIP3    H154971   0.760   2.060  21.362  3.0807 -1.3599 -0.7103
11160TIP3    H254972   0.793   2.088  21.507 -0.3398 -1.1883  0.1160
11161TIP3   OH254973   2.544   2.717  12.533  0.5560  0.6994 -0.6814
11161TIP3    H154974   2.460   2.737  12.575  1.5510 -1.0117  2.4278
11161TIP3    H254975   2.590   2.801  12.530  0.1754  1.0173  1.1643
11162TIP3   OH254976   2.587   2.497  53.016  0.0140  0.4987 -0.3079
11162TIP3    H154977   2.552   2.447  52.942  1.4563 -0.8982 -0.1186
11162TIP3    H254978   2.681   2.476  53.016  0.2358  1.3446  1.2617
11163TIP3   OH254979   1.152   1.137  14.598  0.2942  0.1772 -0.0995
11163TIP3    H154980   1.144   1.231  14.580  0.5566  0.4568  1.1755
11163TIP3    H254981   1.229   1.109  14.549 -0.1572  0.4864 -0.9970
11164TIP3   OH254982   0.336   0.717  18.165 -0.1167  0.1738  0.0268
11164TIP3    H154983   0.335   0.639  18.222 -0.3055 -0.9738 -1.4832
11164TIP3    H254984   0.255   0.710  18.114  0.5534  0.5847 -1.1234
11165TIP3   OH254985   0.195   0.882  55.503  0.8962 -0.7008 -0.0289
11165TIP3    H154986   0.128   0.926  55.449  0.1842  0.6868  1.8838
11165TIP3    H254987   0.274   0.933  55.488  0.8848 -0.7483 -0.2686
11166TIP3   OH254988   2.516   1.410  43.182 -0.1310 -0.5262  0.0559
11166TIP3    H154989   2.492   1.379  43.269  0.6033 -0.9051  0.1272
11166TIP3    H254990   2.512   1.506  43.189  0.9886 -0.5172  0.8299
11167TIP3   OH254991   1.106   0.827  54.826 -0.2064 -0.1010  0.1072
11167TIP3    H154992   1.202   0.822  54.825 -0.1840 -0.3393  1.4804
11167TIP3    H254993   1.087   0.920  54.820  0.1644  0.0578  1.1536
11168TIP3   OH254994   0.237   2.452  65.466  0.0910  0.5039 -0.1333
11168TIP3    H154995   0.266   2.370  65.424  0.0648  0.6425 -0.4262
11168TIP3    H254996   0.294   2.519  65.429 -1.3993  0.9841 -1.6970
11169TIP3   OH254997   0.352   2.481  11.177  0.2078  0.0141  0.2739
11169TIP3    H154998   0.371   2.573  11.163  0.4933 -0.2814 -1.4861
11169TIP3    H254999   0.267   2.480  11.221  0.4001  1.1123  0.6891
11170TIP3   OH255000   2.752   1.175  30.126 -0.1085 -0.1811  0.5775
11170TIP3    H155001   2.827   1.233  30.139 -0.6337  0.9406 -1.0745
11170TIP3    H255002   2.700   1.184  30.206  1.9240 -1.6854  2.1521
11171TIP3   OH255003   2.331   2.234  12.098  0.2525  0.6055  0.0289
11171TIP3    H155004   2.258   2.272  12.049  0.2433  0.6350  0.0652
11171TIP3    H255005   2.306   2.244  12.189  0.4405  0.8927  0.0490
11172TIP3   OH255006   1.440   1.897   8.528  0.2595  0.4860  0.0506
11172TIP3    H155007   1.478   1.916   8.614  1.3503  0.9917 -0.5120
11172TIP3    H255008   1.495   1.947   8.467 -0.0716 -0.4071 -0.9967
11173TIP3   OH255009   2.811   0.278  12.150 -0.1841 -0.4112 -0.4907
11173TIP3    H155010   2.805   0.343  12.220  1.4939  0.4437 -1.0838
11173TIP3    H255011   2.858   0.204  12.190  1.4153  0.3600 -0.8356
11174TIP3   OH255012   2.825   0.579  55.844 -0.1827  0.1193 -0.7280
11174TIP3    H155013   2.824   0.674  55.841 -1.7342  0.1567  0.0454
11174TIP3    H255014   2.739   0.553  55.813 -0.3416 -0.9661  0.5362
11175TIP3   OH255015   0.025   0.894  27.947 -0.1704  0.4708 -0.0101
11175TIP3    H155016  -0.041   0.825  27.949  1.4911 -1.1755 -0.0878
11175TIP3    H255017   0.028   0.920  27.854 -1.5241  1.4378  0.1796
11176TIP3   OH255018   1.235   2.929   2.315  0.8798  0.5015  0.1781
11176TIP3    H155019   1.244   2.870   2.390  2.5783  0.2265 -0.2234
11176TIP3    H255020   1.237   2.872   2.238  0.6658  0.9238 -0.1517
11177TIP3   OH255021   2.116   2.934  51.697  0.2624  0.1139 -0.1523
11177TIP3    H155022   2.153   2.868  51.755  0.2007 -0.6069 -0.9081
11177TIP3    H255023   2.085   2.884  51.621 -2.9660  0.5560  0.7353
11178TIP3   OH255024   1.454   2.644  64.027  0.4406 -0.4223  0.1243
11178TIP3    H155025   1.498   2.558  64.026 -0.5283 -0.9404  0.6617
11178TIP3    H255026   1.513   2.700  64.078  2.0591 -0.2034 -1.8589
11179TIP3   OH255027   0.067   1.749   0.373  0.0410  0.2651  0.2450
11179TIP3    H155028   0.066   1.653   0.365  1.2779  0.0630  1.9904
11179TIP3    H255029   0.160   1.772   0.364 -0.3191  1.3925 -0.7878
11180TIP3   OH255030   2.293   2.851  11.462 -0.0095  0.3042 -0.2041
11180TIP3    H155031   2.298   2.839  11.367 -0.5703  0.0818 -0.2102
11180TIP3    H255032   2.212   2.901  11.475  0.2887  0.7076  0.1236
11181TIP3   OH255033   2.219   0.767  63.829 -0.1702  0.7401  0.5315
11181TIP3    H155034   2.157   0.699  63.799  0.2734  0.4735  0.2073
11181TIP3    H255035   2.297   0.752  63.777 -0.1902  1.7378  0.1975
11182TIP3   OH255036   1.872   0.170  58.544  0.0569  0.1751  0.0269
11182TIP3    H155037   1.785   0.157  58.582  0.5954 -0.0257  1.2501
11182TIP3    H255038   1.856   0.208  58.458 -1.2410  0.0522  0.2034
11183TIP3   OH255039   0.037   1.289  64.940  0.6863  0.0961  0.0165
11183TIP3    H155040   0.078   1.203  64.941  0.6262  0.0333 -1.2625
11183TIP3    H255041   0.073   1.332  64.862 -0.4838  0.6106 -0.2643
11184TIP3   OH255042   0.797   1.691  48.602  0.6195 -0.4028 -0.0601
11184TIP3    H155043   0.735   1.630  48.641 -0.4701 -0.4088 -1.7297
11184TIP3    H255044   0.787   1.772  48.652  0.4540 -0.8933  0.7127
11185TIP3   OH255045   2.080   0.781  66.201 -0.0000  0.6603  0.4299
11185TIP3    H155046   2.108   0.853  66.258  1.5210 -0.9004  1.7911
11185TIP3    H255047   2.146   0.713  66.215 -0.3739 -0.3402 -2.1735
11186TIP3   OH255048   2.874   1.958  60.514 -0.1809 -0.1949  0.3917
11186TIP3    H155049   2.936   1.892  60.485  0.3375 -0.1084  1.2555
11186TIP3    H255050   2.921   2.007  60.582 -0.9841  0.2627  0.6323
11187TIP3   OH255051   2.762   3.032  67.439 -0.7141 -0.0613 -0.1955
11187TIP3    H155052   2.748   2.967  67.371  0.0876 -0.8741  0.3872
11187TIP3    H255053   2.699   3.101  67.420 -1.0483 -0.6454 -1.2763
11188TIP3   OH255054   1.190   3.118  11.395 -0.3427 -0.3300  0.3185
11188TIP3    H155055   1.220   3.121  11.486  1.0930  0.7197 -0.1591
11188TIP3    H255056   1.204   3.028  11.368 -2.5677 -1.1648  1.6699
11189TIP3   OH255057   1.776   0.872  42.368 -0.3618 -0.0558  0.2924
11189TIP3    H155058   1.781   0.866  42.463 -0.4303  2.8618  0.5613
11189TIP3    H255059   1.856   0.919  42.342 -0.2355 -0.9796 -1.1319
11190TIP3   OH255060   1.123   2.087  15.970  0.5949 -0.5423 -0.4182
11190TIP3    H155061   1.208   2.069  15.929  0.3805  0.2736 -1.2555
11190TIP3    H255062   1.122   2.032  16.048  0.9921 -2.1769 -1.5146
11191TIP3   OH255063   1.638   0.190  18.394 -0.1664  0.2615  0.4944
11191TIP3    H155064   1.592   0.265  18.431  1.4234  0.8868  1.3213
11191TIP3    H255065   1.569   0.131  18.364 -1.5106  0.6277  2.6836
11192TIP3   OH255066   1.483   0.429  62.229 -0.1541  0.1549  0.3253
11192TIP3    H155067   1.462   0.475  62.310 -0.1749 -0.3438  0.6081
11192TIP3    H255068   1.465   0.337  62.248 -2.0188  0.2278 -0.8548
11193TIP3   OH255069   0.465   3.128  62.215  0.7299 -0.2986 -0.1255
11193TIP3    H155070   0.503   3.126  62.127  0.3003 -2.5573 -0.3338
11193TIP3    H255071   0.422   3.213  62.222  3.6277  1.3341 -0.7953
11194TIP3   OH255072   3.330   2.959  12.997 -0.2536  0.1806  0.4072
11194TIP3    H155073   3.372   2.895  12.939 -0.2760  0.2829  0.2784
11194TIP3    H255074   3.389   3.034  12.998 -0.8867  0.7100 -0.5351
11195TIP3   OH255075   1.798   2.980  55.463 -0.0735  0.1004  0.7862
11195TIP3    H155076   1.882   2.943  55.492  0.4275  0.1659 -0.5408
11195TIP3    H255077   1.740   2.904  55.459  0.5093 -0.3188 -0.3273
11196TIP3   OH255078   0.997   0.179  42.833 -0.0330  0.2818  0.5357
11196TIP3    H155079   1.071   0.201  42.776  0.9971 -2.7092  0.5804
11196TIP3    H255080   0.941   0.123  42.779  1.4068 -3.3896  2.5285
11197TIP3   OH255081   2.421   1.537  10.726  0.2161 -0.5529  0.3124
11197TIP3    H155082   2.478   1.478  10.676  0.1953 -0.1503 -0.1950
11197TIP3    H255083   2.369   1.478  10.781  0.2605 -1.0082 -0.1185
11198TIP3   OH255084   0.145   0.149  15.906  0.9048 -0.0670  0.5164
11198TIP3    H155085   0.083   0.085  15.872  0.6618 -1.2030  2.9238
11198TIP3    H255086   0.205   0.099  15.962  1.1686  1.6493  1.8812
11199TIP3   OH255087   0.675   0.187  12.830 -0.3544 -0.1895  0.3318
11199TIP3    H155088   0.716   0.192  12.744  1.2353 -1.0342  1.0046
11199TIP3    H255089   0.592   0.234  12.820  0.2307  0.5344 -1.3895
11200TIP3   OH255090   1.039   2.360  43.832 -0.1453 -0.4339 -0.1796
11200TIP3    H155091   1.081   2.287  43.878  1.0266 -0.1583 -0.7654
11200TIP3    H255092   0.964   2.320  43.788 -1.6397 -0.6263  2.3047
11201TIP3   OH255093   0.639   2.897  62.214 -0.5603 -0.0684  0.3932
11201TIP3    H155094   0.596   2.812  62.206 -0.6598  0.1241 -1.6881
11201TIP3    H255095   0.567   2.959  62.225 -0.8263  0.1189 -1.8984
11202TIP3   OH255096   0.831   2.804  52.834 -0.7485  0.2819 -0.2305
11202TIP3    H155097   0.804   2.802  52.742 -0.9530  2.2273 -0.2663
11202TIP3    H255098   0.926   2.815  52.831 -0.8635  1.4074 -0.2575
11203TIP3   OH255099   1.881   3.155  20.322  1.0328  0.1623  0.4002
11203TIP3    H155100   1.810   3.205  20.363 -0.6068 -1.2361 -0.6110
11203TIP3    H255101   1.892   3.196  20.236  3.6850  2.3569  1.6314
11204TIP3   OH255102   0.604   0.756  67.085 -0.2434  0.2038 -0.4189
11204TIP3    H155103   0.544   0.830  67.097  0.3610  0.8158 -1.1170
11204TIP3    H255104   0.615   0.749  66.990 -0.1951 -0.7123 -0.3531
11205TIP3   OH255105   3.229   1.896  60.795 -0.0198  0.1813  0.0156
11205TIP3    H155106   3.242   1.961  60.726  0.4271 -1.2282 -1.2946
11205TIP3    H255107   3.301   1.912  60.856 -1.1699  2.3033  0.9458
11206TIP3   OH255108   1.862   2.484  62.466 -0.3914 -0.1763 -0.7124
11206TIP3    H155109   1.828   2.522  62.385 -0.5681  1.5911  0.1306
11206TIP3    H255110   1.860   2.556  62.529  0.0074 -1.4193  0.7999
11207TIP3   OH255111   3.078   2.379  10.884 -0.4228  0.0865  0.2376
11207TIP3    H155112   3.090   2.371  10.790  0.1129  0.3315  0.2842
11207TIP3    H255113   3.062   2.290  10.914 -0.7650  0.0310 -0.1071
11208TIP3   OH255114   2.300   0.589  50.338  0.5707  0.4781 -0.0636
11208TIP3    H155115   2.241   0.525  50.378  0.7019 -0.5164 -1.3848
11208TIP3    H255116   2.280   0.585  50.244  2.1400  0.7140 -0.4493
11209TIP3   OH255117   2.541   3.450  62.591 -0.1432 -0.1111 -0.2227
11209TIP3    H155118   2.504   3.525  62.544 -1.4202 -1.0316 -0.7168
11209TIP3    H255119   2.570   3.391  62.523  1.2972  0.1006  0.1682
11210TIP3   OH255120   1.384   2.756   0.939 -0.1729 -0.3008  0.3633
11210TIP3    H155121   1.447   2.747   1.010 -0.9283 -1.9327  0.8740
11210TIP3    H255122   1.329   2.678   0.945 -0.5396 -0.2737 -1.7518
11211TIP3   OH255123   1.379   0.025  52.372  0.0765  0.5471  0.4035
11211TIP3    H155124   1.397   0.040  52.465  0.3670  0.2915  0.3866
11211TIP3    H255125   1.461  -0.010  52.337  0.0426  0.8797 -0.0027
11212TIP3   OH255126   3.338   0.842  63.925 -0.2497 -0.2447 -0.1153
11212TIP3    H155127   3.367   0.753  63.947  0.1767 -0.3510 -1.0856
11212TIP3    H255128   3.260   0.830  63.872 -0.7289 -0.0058  0.5189
11213TIP3   OH255129   2.923   1.419   9.341  0.4348  0.4331 -0.3200
11213TIP3    H155130   3.000   1.397   9.290  0.3046 -0.8561  0.0209
11213TIP3    H255131   2.932   1.370   9.422 -0.1223  1.2655  0.2685
11214TIP3   OH255132   1.546   3.327  20.138  0.2441  0.5267  0.1834
11214TIP3    H155133   1.603   3.361  20.207 -0.4524  1.1133  0.4906
11214TIP3    H255134   1.514   3.406  20.093 -0.6957  0.2391  0.3279
11215TIP3   OH255135   2.652   2.090  59.865 -0.6302 -0.3594  0.2592
11215TIP3    H155136   2.711   2.140  59.809 -0.7910  0.2589  0.6292
11215TIP3    H255137   2.569   2.090  59.818 -0.1192 -2.0430 -0.7163
11216TIP3   OH255138   0.685   1.316   8.361 -0.1135 -0.1552  0.1836
11216TIP3    H155139   0.741   1.239   8.362  1.1114  0.6887 -0.8417
11216TIP3    H255140   0.731   1.379   8.306 -1.8168  0.7737 -0.2553
11217TIP3   OH255141   1.573   1.425  11.665  0.0977  0.3989 -0.6038
11217TIP3    H155142   1.498   1.365  11.663 -1.7512  2.1907  3.1766
11217TIP3    H255143   1.645   1.373  11.701 -1.5844  0.2556  3.0292
11218TIP3   OH255144   2.779   0.699  51.097  0.1480 -0.3338  0.3841
11218TIP3    H155145   2.684   0.715  51.099  0.2678  0.3239  1.2327
11218TIP3    H255146   2.801   0.703  51.004 -0.3467  1.4850  0.3006
11219TIP3   OH255147   2.969   0.313  28.437 -0.0030 -0.2607 -0.3311
11219TIP3    H155148   3.055   0.356  28.445 -0.5771  0.8717 -0.0929
11219TIP3    H255149   2.946   0.323  28.345 -1.0145  1.7382  0.0862
11220TIP3   OH255150   1.366   1.648  38.353  0.4718  0.7965  0.5538
11220TIP3    H155151   1.392   1.674  38.441 -0.2270 -0.7170  1.2279
11220TIP3    H255152   1.281   1.691  38.340  0.7757  1.3709  0.4412
11221TIP3   OH255153   2.720   0.390  49.918  0.0518 -0.1814 -0.4588
11221TIP3    H155154   2.778   0.354  49.851  0.9663 -1.2541  0.8709
11221TIP3    H255155   2.704   0.318  49.978 -0.6253  0.8014  0.5814
11222TIP3   OH255156   1.804   2.554  12.582 -0.2054 -0.0007 -0.0095
11222TIP3    H155157   1.765   2.641  12.592 -2.2080 -0.5135 -2.3810
11222TIP3    H255158   1.731   2.493  12.594  0.4333 -1.1565 -1.6086
11223TIP3   OH255159   2.514   2.100  67.200 -0.0762  0.6740  0.2195
11223TIP3    H155160   2.576   2.047  67.250  0.2632  1.7542  0.9820
11223TIP3    H255161   2.503   2.052  67.118  1.3491  0.1903  0.2767
11224TIP3   OH255162   1.268   1.381  61.503  0.3118 -0.0443  0.1211
11224TIP3    H155163   1.244   1.322  61.432  0.9372 -1.4021  0.9971
11224TIP3    H255164   1.218   1.350  61.578  1.2850 -0.0056  0.8077
11225TIP3   OH255165   0.267   1.850  22.147  0.9787 -0.0063 -0.0199
11225TIP3    H155166   0.240   1.913  22.080  1.3751  1.5851  1.2484
11225TIP3    H255167   0.200   1.782  22.143  1.5862 -0.5522 -2.7378
11226TIP3   OH255168   2.837   3.354  20.130  0.0652  0.3844 -0.4903
11226TIP3    H155169   2.798   3.440  20.146  0.8178  0.3758  1.7319
11226TIP3    H255170   2.763   3.294  20.129 -0.1804  0.5054  2.6140
11227TIP3   OH255171   2.988   2.518  55.214 -0.3478  0.6799 -0.2651
11227TIP3    H155172   2.915   2.466  55.249  1.0136 -1.9610 -1.1102
11227TIP3    H255173   3.064   2.490  55.265  0.2267  3.1260  0.3632
11228TIP3   OH255174   3.336   0.219  49.777 -0.2340  0.7994  0.3254
11228TIP3    H155175   3.400   0.178  49.719  0.7073  1.7003  0.6835
11228TIP3    H255176   3.290   0.283  49.722 -1.0798 -0.0787 -0.0147
11229TIP3   OH255177   1.284   1.013  45.579  0.5521 -0.1860 -0.4739
11229TIP3    H155178   1.202   1.049  45.614  1.4140  1.6759 -0.2437
11229TIP3    H255179   1.318   0.959  45.650 -1.2442 -2.3758 -1.1704
11230TIP3   OH255180   2.257   0.892  42.444 -0.4130  0.0153  0.1233
11230TIP3    H155181   2.346   0.866  42.465  0.0503  0.6850 -0.9325
11230TIP3    H255182   2.266   0.949  42.368 -1.6784  0.6965  0.4574
11231TIP3   OH255183   0.534   2.288   5.228 -0.5343  0.4266 -0.2046
11231TIP3    H155184   0.558   2.198   5.206  1.6792  1.2498 -1.4330
11231TIP3    H255185   0.559   2.297   5.320  1.3179  0.3787 -0.6639
11232TIP3   OH255186   0.799   0.612  21.731 -0.4779 -0.0009  0.8521
11232TIP3    H155187   0.749   0.691  21.749  1.6967  1.1983  2.1128
11232TIP3    H255188   0.865   0.638  21.667 -0.7850 -1.2607 -0.0227
11233TIP3   OH255189   3.224   1.643   1.795  0.1556 -0.4770  0.4103
11233TIP3    H155190   3.147   1.597   1.761  0.7588 -0.0263 -1.7132
11233TIP3    H255191   3.293   1.576   1.796  0.1073 -0.5246  0.9389
11234TIP3   OH255192   1.712   0.245  49.505 -0.0938  0.1290  0.5025
11234TIP3    H155193   1.765   0.314  49.465 -1.5347  0.7261 -0.4622
11234TIP3    H255194   1.624   0.259  49.471 -0.9987 -0.5545  2.3982
11235TIP3   OH255195   1.415   1.897  57.235 -0.0275  0.1442 -0.6544
11235TIP3    H155196   1.483   1.884  57.300 -0.9441 -0.4501  0.2216
11235TIP3    H255197   1.414   1.816  57.184 -0.1829  0.0859 -0.5597
11236TIP3   OH255198   1.112   1.385  22.120  0.2485  0.5595  0.1133
11236TIP3    H155199   1.134   1.364  22.030  0.3155  0.8683  0.0553
11236TIP3    H255200   1.171   1.331  22.173 -1.6795 -1.7724  0.0459
11237TIP3   OH255201   1.991   1.815  58.402 -0.2477 -0.3615  0.0328
11237TIP3    H155202   1.930   1.872  58.355 -1.0390  0.1717  1.6548
11237TIP3    H255203   1.947   1.729  58.404 -0.2747 -0.3504 -0.0672
11238TIP3   OH255204   2.756   3.451   4.155  0.1333 -0.2198  0.1627
11238TIP3    H155205   2.724   3.466   4.066  0.2108  0.9585  0.3078
11238TIP3    H255206   2.729   3.530   4.203  2.1353  0.2489  0.6038
11239TIP3   OH255207   2.909   2.502  59.555 -0.1006 -0.5879 -0.2439
11239TIP3    H155208   2.985   2.445  59.540  0.7748 -0.4942  3.1373
11239TIP3    H255209   2.938   2.588  59.525  0.9673 -0.6580  0.5372
11240TIP3   OH255210   1.809   2.028  49.839  0.1744 -0.5936  0.2497
11240TIP3    H155211   1.900   2.026  49.809 -0.0518 -1.3418 -0.4443
11240TIP3    H255212   1.780   1.936  49.835 -0.8112 -0.2811 -0.2150
11241TIP3   OH255213   1.527   1.907   7.652  0.2680 -0.2594 -0.3542
11241TIP3    H155214   1.574   1.839   7.603  2.3663  1.4073 -0.7848
11241TIP3    H255215   1.461   1.939   7.591  1.1513  0.0079 -1.1985
11242TIP3   OH255216   0.006   3.014  46.427  0.0124  0.0299 -0.5292
11242TIP3    H155217   0.011   2.918  46.427  1.3132  0.0777 -0.3015
11242TIP3    H255218   0.056   3.040  46.349 -1.9833  0.4883 -1.7121
11243TIP3   OH255219   3.429   2.473  15.471 -0.5476 -0.5186 -0.0229
11243TIP3    H155220   3.394   2.437  15.389 -0.8250 -2.1653  0.7727
11243TIP3    H255221   3.353   2.511  15.515 -0.1360  1.8570 -1.1891
11244TIP3   OH255222   3.260   1.758  13.161 -0.5615  0.2614 -0.2551
11244TIP3    H155223   3.225   1.693  13.222  0.9895  0.6800  1.1436
11244TIP3    H255224   3.319   1.812  13.214  1.5675  0.1076 -2.3078
11245TIP3   OH255225   1.928   0.479  61.154  0.5410 -1.0649  0.6545
11245TIP3    H155226   1.896   0.537  61.224  1.7668 -0.3092  0.6140
11245TIP3    H255227   1.972   0.538  61.093  0.8514 -1.9172  0.0450
11246TIP3   OH255228   1.630   2.485  58.809 -0.3165  0.2479 -0.2839
11246TIP3    H155229   1.550   2.519  58.851 -1.1726 -2.7151  0.7598
11246TIP3    H255230   1.600   2.452  58.724 -0.6886 -2.4150  0.7872
11247TIP3   OH255231   3.027   3.441  28.261  0.0435 -0.4829 -0.3355
11247TIP3    H155232   3.061   3.352  28.262 -1.2417 -1.0181 -1.6010
11247TIP3    H255233   2.983   3.451  28.346 -1.1811 -1.6385 -0.8003
11248TIP3   OH255234   2.537   0.524  59.555  0.3288 -0.4360  0.6317
11248TIP3    H155235   2.472   0.513  59.626 -1.6134  1.8799 -0.6523
11248TIP3    H255236   2.535   0.440  59.509 -0.4390 -1.0371  1.7043
11249TIP3   OH255237   2.655   1.696  17.587  0.0506 -0.7050  0.0950
11249TIP3    H155238   2.731   1.651  17.626 -0.8157 -1.5394  0.8668
11249TIP3    H255239   2.692   1.774  17.546  1.4175 -1.4058 -0.0749
11250TIP3   OH255240   2.573   3.209  42.830  0.7664 -0.3285 -0.1253
11250TIP3    H155241   2.584   3.214  42.735 -0.8514  0.5695 -0.3175
11250TIP3    H255242   2.569   3.115  42.848 -1.1875 -0.5502 -1.3178
11251TIP3   OH255243   1.751   3.157  60.617  0.3320  0.0984 -0.2868
11251TIP3    H155244   1.720   3.185  60.703 -0.5673 -0.8435 -0.2748
11251TIP3    H255245   1.796   3.074  60.633 -2.3756 -1.6638 -0.9994
11252TIP3   OH255246   3.354   0.673   2.945 -0.2187  0.2835 -0.2120
11252TIP3    H155247   3.393   0.642   2.863  1.6517  0.7685  0.4371
11252TIP3    H255248   3.332   0.592   2.993 -1.6248 -0.0034 -1.2785
11253TIP3   OH255249   1.925   0.839   5.601  0.0754 -0.3506  0.2469
11253TIP3    H155250   1.854   0.836   5.665 -0.4637 -2.4815 -0.3977
11253TIP3    H255251   1.882   0.826   5.517  1.1391 -0.7238 -0.2509
11254TIP3   OH255252   0.175   1.241  57.629  0.2952  0.2967 -0.4513
11254TIP3    H155253   0.219   1.272  57.550 -1.1371 -0.9444 -1.8082
11254TIP3    H255254   0.230   1.169  57.661 -0.2109 -0.6450 -1.6157
11255TIP3   OH255255   2.969   2.590  66.650  0.1993 -0.2156  0.4937
11255TIP3    H155256   2.884   2.548  66.662  0.3301 -2.0046 -3.4242
11255TIP3    H255257   3.029   2.518  66.628  1.2241  1.4978 -3.0376
11256TIP3   OH255258   1.643   0.733   0.490 -0.7618  0.7746 -0.2837
11256TIP3    H155259   1.735   0.735   0.464 -0.4412 -0.2652  0.7091
11256TIP3    H255260   1.628   0.819   0.529 -0.4674  1.2744 -1.2163
11257TIP3   OH255261   1.099   2.459  56.948  0.0380 -0.3415  0.7098
11257TIP3    H155262   1.075   2.472  56.857  0.7124  1.9595  0.7759
11257TIP3    H255263   1.016   2.461  56.996 -0.1306  2.0319  0.4298
11258TIP3   OH255264   1.251   2.019  58.913 -0.0128 -0.5664 -0.0243
11258TIP3    H155265   1.167   1.998  58.872 -0.7660 -0.2753  1.3209
11258TIP3    H255266   1.315   1.970  58.862 -0.9604 -0.5872 -1.2432
11259TIP3   OH255267   2.914   2.771  49.710 -0.1573  0.9789  0.3763
11259TIP3    H155268   2.820   2.783  49.719 -0.5610 -0.8414 -0.7833
11259TIP3    H255269   2.953   2.831  49.773 -2.0968  1.6788  0.9551
11260TIP3   OH255270   3.115   2.977  42.348 -0.0037 -0.6415 -0.4405
11260TIP3    H155271   3.143   3.068  42.337 -2.5845  0.2691 -0.1998
11260TIP3    H255272   3.113   2.964  42.443  0.8497 -1.1395 -0.4833
11261TIP3   OH255273   3.151   1.934   4.798  0.5419  0.5294  0.1370
11261TIP3    H155274   3.104   2.014   4.773 -1.3989 -0.2409  1.1470
11261TIP3    H255275   3.097   1.895   4.867  1.4908 -1.6160 -0.2562
11262TIP3   OH255276   1.975   3.241  15.706 -0.0275  0.4278  0.0129
11262TIP3    H155277   1.989   3.289  15.625 -1.4071 -1.6775 -1.6055
11262TIP3    H255278   2.008   3.153  15.687  1.2731  0.3208  2.4054
11263TIP3   OH255279   2.549   3.313  54.754 -0.1494  0.2374  0.3479
11263TIP3    H155280   2.639   3.338  54.736  0.9912 -3.3178  0.3071
11263TIP3    H255281   2.507   3.308  54.668  0.6196 -1.2808  0.0376
11264TIP3   OH255282   3.412   0.413   7.297  0.2217 -0.5065 -0.7612
11264TIP3    H155283   3.333   0.466   7.288 -0.8286 -1.9238 -0.2145
11264TIP3    H255284   3.390   0.329   7.256  1.9094 -0.4997 -1.7629
11265TIP3   OH255285   0.144   3.118  12.949  0.1024  0.2114 -0.0863
11265TIP3    H155286   0.165   3.025  12.940 -2.5713 -0.4763 -0.0876
11265TIP3    H255287   0.193   3.147  13.025  1.3779 -1.0564 -0.3870
11266TIP3   OH255288   2.212   0.298  48.827  0.5087  0.2229 -0.4709
11266TIP3    H155289   2.264   0.329  48.901  1.7113  0.8712 -1.5517
11266TIP3    H255290   2.192   0.207  48.848  2.7982 -0.3116 -0.3601
11267TIP3   OH255291   1.745   2.875  67.258 -0.4148 -0.0834 -0.0012
11267TIP3    H155292   1.664   2.869  67.207 -0.1703  0.9608 -0.5409
11267TIP3    H255293   1.814   2.884  67.192 -0.0133  0.4756  0.4823
11268TIP3   OH255294   0.147   2.686  48.963 -0.4363 -0.1494 -0.4371
11268TIP3    H155295   0.226   2.659  48.916  1.1427  1.6872  1.0059
11268TIP3    H255296   0.169   2.772  48.999 -2.2125 -0.6486  2.0784
11269TIP3   OH255297   1.712   3.328  47.786  0.2308 -0.1271  0.0082
11269TIP3    H155298   1.747   3.250  47.744 -0.4353 -0.7365  0.5615
11269TIP3    H255299   1.702   3.391  47.715 -1.7524 -1.4318 -0.9470
11270TIP3   OH255300   0.640   2.997  10.215  0.1455  0.3966 -0.8415
11270TIP3    H155301   0.694   2.981  10.137  0.0121  0.0547 -0.8677
11270TIP3    H255302   0.652   2.919  10.268  3.0826  2.0402  1.1992
11271TIP3   OH255303   2.747   3.326  11.340 -0.1449 -0.0029  0.5885
11271TIP3    H155304   2.760   3.232  11.353 -0.2984 -0.0563  0.3590
11271TIP3    H255305   2.743   3.337  11.245  1.5631  0.4638  0.5484
11272TIP3   OH255306   2.050   2.914   2.892 -0.1442  0.3594  0.3297
11272TIP3    H155307   2.144   2.908   2.874 -0.3830 -0.0575 -0.8865
11272TIP3    H255308   2.023   2.824   2.911 -0.4426  0.3365 -0.1727
11273TIP3   OH255309   2.347   1.889   0.991 -0.7211  0.3585  0.1836
11273TIP3    H155310   2.323   1.816   0.935  2.4552 -1.7715  1.3160
11273TIP3    H255311   2.393   1.950   0.934 -0.6815 -0.0320 -0.2018
11274TIP3   OH255312   0.138   3.250  22.254 -0.3881 -0.5292  0.1555
11274TIP3    H155313   0.059   3.305  22.257 -0.8094 -1.1321  0.2594
11274TIP3    H255314   0.111   3.170  22.209  0.0726 -0.8880  0.5017
11275TIP3   OH255315   2.946   1.450  62.366 -0.7690 -0.4288 -0.4071
11275TIP3    H155316   2.870   1.443  62.423 -0.0805 -1.6490  0.4058
11275TIP3    H255317   2.975   1.541  62.375 -0.0179 -0.8419  2.1251
11276TIP3   OH255318   1.314   1.902   2.275  0.1831 -0.3433 -0.4586
11276TIP3    H155319   1.381   1.957   2.316 -0.2341 -0.0760 -0.1215
11276TIP3    H255320   1.236   1.957   2.272 -0.6282 -1.3162  1.0876
11277TIP3   OH255321   2.124   3.383  53.813 -0.2678  0.0608 -0.2378
11277TIP3    H155322   2.211   3.418  53.829 -0.2101 -0.6192  1.0967
11277TIP3    H255323   2.124   3.359  53.721  0.8885  0.2660 -0.3042
11278TIP3   OH255324   1.233   0.786   2.472 -0.0223  0.0898 -0.2435
11278TIP3    H155325   1.276   0.850   2.529  1.1567  0.3119 -1.3438
11278TIP3    H255326   1.165   0.748   2.527  0.6676  0.7347  1.1188
11279TIP3   OH255327   0.463   1.129   3.409  0.3666  0.1114 -0.1496
11279TIP3    H155328   0.478   1.046   3.365  0.2656 -0.7180  1.3347
11279TIP3    H255329   0.466   1.108   3.502 -1.9593  1.3370  0.2815
11280TIP3   OH255330   1.089   0.489  22.572  0.1761 -0.6635  0.0237
11280TIP3    H155331   1.059   0.399  22.580 -0.1556 -0.4567  1.2700
11280TIP3    H255332   1.014   0.536  22.536 -0.5097 -0.4538  1.6316
11281TIP3   OH255333   0.355   0.467  14.368 -0.1458 -0.2817 -0.1843
11281TIP3    H155334   0.363   0.554  14.329 -0.1332  0.0062  0.4435
11281TIP3    H255335   0.358   0.406  14.294  1.2622  0.1708 -0.5201
11282TIP3   OH255336   0.627   1.923   6.049 -0.5300  0.0470 -0.3632
11282TIP3    H155337   0.558   1.876   6.096  0.1189 -0.2886  0.2676
11282TIP3    H255338   0.580   1.990   5.999 -1.2370  0.4538  0.8055
11283TIP3   OH255339   3.132   2.546  67.111  0.1625  0.0898 -0.4204
11283TIP3    H155340   3.074   2.554  67.034  0.5320 -1.5120 -0.8933
11283TIP3    H255341   3.078   2.505  67.178  0.3621 -0.1614 -0.4137
11284TIP3   OH255342   1.342   0.966  14.367 -0.7405 -0.5238 -0.4725
11284TIP3    H155343   1.388   0.938  14.288 -0.3560 -1.4751  0.0735
11284TIP3    H255344   1.382   0.914  14.437 -1.9522 -0.6268  0.1578
11285TIP3   OH255345   2.437   0.356  51.759 -0.8920  0.1615 -0.2666
11285TIP3    H155346   2.455   0.378  51.850 -0.9086  0.0986 -0.2493
11285TIP3    H255347   2.378   0.426  51.729  0.0889  0.8610 -0.5940
11286TIP3   OH255348   1.005   1.827  10.174 -0.1953 -0.4866 -0.2852
11286TIP3    H155349   1.028   1.768  10.246 -1.1294 -1.4550 -0.7473
11286TIP3    H255350   1.081   1.826  10.116 -0.1071 -1.0400 -0.1623
11287TIP3   OH255351   1.658   3.122  18.422 -0.3233 -0.2936 -0.5589
11287TIP3    H155352   1.580   3.106  18.369 -1.8532  1.1302  1.1501
11287TIP3    H255353   1.702   3.037  18.426 -2.0996 -1.2912 -1.0440
11288TIP3   OH255354   1.090   0.838  65.967  0.7152 -0.5322  0.2489
11288TIP3    H155355   1.063   0.821  65.877  1.7377 -1.6220  0.1212
11288TIP3    H255356   1.035   0.781  66.020  1.2333 -1.1186  0.1658
11289TIP3   OH255357   0.777   3.134  56.308  0.0825  0.0144  0.7169
11289TIP3    H155358   0.745   3.073  56.242  0.7112 -0.6916  1.0480
11289TIP3    H255359   0.733   3.109  56.388  0.6661 -0.2904  0.9488
11290TIP3   OH255360   3.431   2.920  11.696  0.6588 -0.7157 -0.1729
11290TIP3    H155361   3.354   2.966  11.730  0.1866 -1.5163 -0.1512
11290TIP3    H255362   3.396   2.840  11.656  1.6273 -2.0024  1.4284
11291TIP3   OH255363   0.301   3.363  18.386  0.1847  0.0917 -0.4093
11291TIP3    H155364   0.371   3.306  18.420  0.3219  0.3761 -0.2088
11291TIP3    H255365   0.304   3.440  18.443  1.9324  1.6203 -2.3871
11292TIP3   OH255366   0.972   0.714  66.936 -0.2351  0.0909  0.6658
11292TIP3    H155367   0.905   0.650  66.960 -0.0931 -0.2516  0.1615
11292TIP3    H255368   1.050   0.662  66.917  0.1735  0.4822  1.2129
11293TIP3   OH255369   1.856   0.578  21.554 -0.2538  0.9568  0.4912
11293TIP3    H155370   1.877   0.629  21.475 -0.8467  1.8288  0.8787
11293TIP3    H255371   1.779   0.622  21.591  0.1092  0.6584  1.6461
11294TIP3   OH255372   2.526   1.499  55.557  0.7699  0.0299 -0.5315
11294TIP3    H155373   2.527   1.573  55.497 -0.7821  0.8099  0.3540
11294TIP3    H255374   2.558   1.534  55.640  0.6540 -0.4584 -0.2690
11295TIP3   OH255375   2.224   0.439  58.008 -0.3677  0.2570  0.4330
11295TIP3    H155376   2.291   0.379  57.977 -1.7489 -0.4745 -1.3363
11295TIP3    H255377   2.155   0.383  58.044 -1.1169  0.8177 -0.0778
11296TIP3   OH255378   0.360   0.464  36.257  0.6181 -0.4095  0.5814
11296TIP3    H155379   0.376   0.453  36.351  2.4021  0.6531  0.4426
11296TIP3    H255380   0.418   0.401  36.215  0.6091 -0.1435  0.1699
11297TIP3   OH255381   2.768   0.554  63.177 -0.0095 -0.1055 -0.2158
11297TIP3    H155382   2.790   0.555  63.270 -0.5080  0.7540 -0.0924
11297TIP3    H255383   2.685   0.505  63.172 -0.5131  0.7052 -0.0618
11298TIP3   OH255384   1.964   3.284  61.635  0.1077  0.1139  0.8638
11298TIP3    H155385   1.883   3.313  61.592  0.2567 -0.4794  0.1646
11298TIP3    H255386   1.948   3.193  61.658  1.5146 -0.9057 -1.7629
11299TIP3   OH255387   1.453   0.603   2.545 -0.7533 -0.1491  0.2946
11299TIP3    H155388   1.362   0.615   2.517 -1.0630  0.1998  1.4094
11299TIP3    H255389   1.503   0.663   2.488 -1.1828 -0.4845 -0.4536
11300TIP3   OH255390   3.421   1.842  44.200  0.3380 -0.3915  0.7057
11300TIP3    H155391   3.469   1.925  44.194  0.5279 -0.5903 -1.0448
11300TIP3    H255392   3.490   1.775  44.195 -0.0046 -0.6677 -1.1658
11301TIP3   OH255393   1.403   0.413  54.595  0.1659 -0.5317  0.3982
11301TIP3    H155394   1.309   0.432  54.599 -0.2320 -1.0571 -3.1132
11301TIP3    H255395   1.408   0.322  54.565  1.8772 -1.1196  2.2745
11302TIP3   OH255396   2.982   0.792  15.504 -0.0153 -0.2287  0.0621
11302TIP3    H155397   2.927   0.731  15.551 -0.8764 -0.0135 -0.6450
11302TIP3    H255398   2.928   0.825  15.433  0.1208  1.9731  0.8691
11303TIP3   OH255399   0.901   2.622   5.894  0.0417 -0.2653 -0.2279
11303TIP3    H155400   0.944   2.610   5.810  0.7499  3.8590 -0.6634
11303TIP3    H255401   0.810   2.643   5.872 -0.0144 -0.1251  0.1226
11304TIP3   OH255402   1.198   0.528   5.582  0.3767 -0.3247 -0.0073
11304TIP3    H155403   1.257   0.453   5.580  0.5539 -0.2115  0.6974
11304TIP3    H255404   1.169   0.539   5.491  3.3278  1.1015 -0.9026
11305TIP3   OH255405   0.335   0.345  13.740  0.2989  0.4121  0.1031
11305TIP3    H155406   0.418   0.374  13.701  1.1157  0.0058  1.4513
11305TIP3    H255407   0.272   0.412  13.717  0.6233 -0.0282 -2.2708
11306TIP3   OH255408   3.325   0.470  21.561 -0.1284 -0.4509  0.0630
11306TIP3    H155409   3.357   0.533  21.625 -1.0072  0.5853 -0.4804
11306TIP3    H255410   3.276   0.406  21.612 -2.1712  1.2243  0.3482
11307TIP3   OH255411   0.805   2.640  36.702  0.0024  0.2887 -0.1896
11307TIP3    H155412   0.860   2.678  36.633  1.1954  0.0158  0.5765
11307TIP3    H255413   0.850   2.559  36.726 -0.8157 -0.0097  0.3779
11308TIP3   OH255414   0.791   2.927   1.907 -0.3779 -0.5833 -0.2225
11308TIP3    H155415   0.790   3.009   1.957  0.5106 -0.9003  0.3479
11308TIP3    H255416   0.879   2.925   1.868 -1.4586  0.2687 -2.8725
11309TIP3   OH255417   0.127   2.670   8.528 -0.1331  0.3316  0.1784
11309TIP3    H155418   0.220   2.663   8.548 -0.4057  0.6093  1.6081
11309TIP3    H255419   0.083   2.647   8.610 -1.3404 -0.3799 -0.6374
11310TIP3   OH255420   3.009   1.559  18.434  0.6067 -0.2369 -0.4491
11310TIP3    H155421   3.099   1.528  18.426 -0.2821 -2.5173 -3.4259
11310TIP3    H255422   2.967   1.495  18.492  0.3918 -0.5752 -0.9675
11311TIP3   OH255423   1.609   0.269  36.038  0.2588 -0.0282  0.0501
11311TIP3    H155424   1.521   0.304  36.023  0.6363  0.5960 -0.7402
11311TIP3    H255425   1.625   0.212  35.963  2.4784  3.7417 -2.6855
11312TIP3   OH255426   2.285   2.212  10.119 -0.5965  0.2595  0.2084
11312TIP3    H155427   2.230   2.275  10.166 -1.2240  0.2448 -0.4930
11312TIP3    H255428   2.362   2.201  10.175 -1.0944  0.6309  0.9842
11313TIP3   OH255429   3.416   1.053  64.083  0.3370  0.2942 -0.4789
11313TIP3    H155430   3.360   0.979  64.058 -0.4745  0.9376 -0.5804
11313TIP3    H255431   3.407   1.115  64.012  0.3050  0.8805  0.0294
11314TIP3   OH255432   0.093   2.570  50.011  0.1111 -0.0766 -0.1033
11314TIP3    H155433   0.039   2.501  49.972 -0.5213 -0.3665  1.2193
11314TIP3    H255434   0.115   2.536  50.098  1.1754  0.6991 -0.0588
11315TIP3   OH255435   2.448   1.633  13.144 -0.4454  0.8541  0.4195
11315TIP3    H155436   2.504   1.704  13.112  0.7427 -0.6140 -0.8923
11315TIP3    H255437   2.393   1.610  13.069 -0.5329  0.0997  0.7094
11316TIP3   OH255438   3.387   1.635  65.454  0.2937 -0.1540 -0.1575
11316TIP3    H155439   3.454   1.640  65.523  0.0786  1.2219 -0.0142
11316TIP3    H255440   3.308   1.605  65.499  0.3371  0.0455  0.0484
11317TIP3   OH255441   1.162   0.784  15.253  0.0043 -0.3627 -0.2404
11317TIP3    H155442   1.116   0.700  15.247 -0.3618 -0.4072  2.0814
11317TIP3    H255443   1.210   0.778  15.336 -1.9576  2.5746  1.2921
11318TIP3   OH255444   2.682   0.642  11.743  0.2562  0.4599  0.5486
11318TIP3    H155445   2.661   0.647  11.836  0.3983 -0.0758  0.6133
11318TIP3    H255446   2.767   0.685  11.735  0.0353  0.9045  0.5948
11319TIP3   OH255447   2.858   0.568  60.428  0.1957 -0.0886  0.3262
11319TIP3    H155448   2.886   0.611  60.509  2.0348 -0.1376 -0.2263
11319TIP3    H255449   2.764   0.555  60.439  0.0810  1.4904  1.7049
11320TIP3   OH255450   2.967   0.945  53.839 -0.0617 -0.5054  0.3266
11320TIP3    H155451   2.955   0.872  53.899 -1.5444 -0.6851 -0.1464
11320TIP3    H255452   2.941   1.022  53.889 -1.1164 -0.6341  0.0065
11321TIP3   OH255453   2.886   1.934   9.943  0.1623 -0.0674  0.0810
11321TIP3    H155454   2.832   1.931   9.864  1.2155  0.5706 -0.6841
11321TIP3    H255455   2.933   2.017   9.937  2.5281 -1.3471 -0.1549
11322TIP3   OH255456   2.719   2.944  48.626 -0.1075 -0.0549  0.2392
11322TIP3    H155457   2.794   2.986  48.668 -0.1116  0.2663 -0.0673
11322TIP3    H255458   2.757   2.871  48.577  0.3592  1.5576 -1.9394
11323TIP3   OH255459   2.180   2.307   8.636 -0.4179 -0.1904  0.1396
11323TIP3    H155460   2.132   2.229   8.608  1.8171 -1.1468 -1.3401
11323TIP3    H255461   2.255   2.273   8.685  1.2495  0.8704 -1.5252
11324TIP3   OH255462   3.278   0.471  63.249  0.4758 -0.1517  0.5656
11324TIP3    H155463   3.255   0.390  63.203 -3.4014  1.4729 -0.7395
11324TIP3    H255464   3.307   0.530  63.181 -1.2255  0.9350  0.7133
11325TIP3   OH255465   1.553   2.883  62.883 -0.2587  0.2150 -0.5154
11325TIP3    H155466   1.592   2.820  62.822  3.2193  1.5872  0.0805
11325TIP3    H255467   1.544   2.835  62.965  1.2346  0.1230 -0.3852
11326TIP3   OH255468   2.739   2.002   9.683  0.3029  0.1016 -0.4153
11326TIP3    H155469   2.698   2.010   9.597  2.1983  1.7004 -1.2331
11326TIP3    H255470   2.683   2.054   9.741 -1.3641 -1.5306 -0.4520
11327TIP3   OH255471   1.977   1.029  13.336  0.6593 -0.6304  0.7612
11327TIP3    H155472   1.937   1.116  13.338  0.5071 -0.6417 -0.5596
11327TIP3    H255473   2.071   1.047  13.324  0.5681 -0.6326 -0.0423
11328TIP3   OH255474   1.155   1.838  65.126 -0.2427  0.6983  0.3802
11328TIP3    H155475   1.113   1.895  65.062 -0.3632 -1.0119 -1.1651
11328TIP3    H255476   1.084   1.782  65.159 -0.1357  1.3832  1.8848
11329TIP3   OH255477   3.142   0.086  54.534  0.2312 -0.2607  0.0204
11329TIP3    H155478   3.143  -0.010  54.532  1.0781 -0.2456 -0.5190
11329TIP3    H255479   3.055   0.108  54.568 -0.2118 -1.2129 -0.4535
11330TIP3   OH255480   0.723   0.142  66.032 -0.3086  0.4460 -0.2224
11330TIP3    H155481   0.664   0.135  66.107 -0.9989  0.1273 -0.7728
11330TIP3    H255482   0.743   0.051  66.008 -0.9630  0.5059 -1.0697
11331TIP3   OH255483   2.589   2.233  44.091 -0.3430 -0.1005 -0.4761
11331TIP3    H155484   2.629   2.289  44.158 -1.0106 -0.3936  0.1771
11331TIP3    H255485   2.497   2.227  44.117 -0.4293 -0.9076 -0.9444
11332TIP3   OH255486   0.179   1.992   8.767  0.1994  0.0451  0.3039
11332TIP3    H155487   0.103   2.015   8.714 -0.2798 -0.6739  0.6577
11332TIP3    H255488   0.242   2.063   8.751 -1.0223  1.3376  0.9783
11333TIP3   OH255489   0.478   2.215   2.497  0.0147 -0.2066  0.8141
11333TIP3    H155490   0.431   2.140   2.533  2.2656 -2.7445 -1.1538
11333TIP3    H255491   0.416   2.256   2.438 -0.7855 -1.5249  0.7008
11334TIP3   OH255492   0.416   1.582   1.516 -0.0366  0.0706  0.1230
11334TIP3    H155493   0.389   1.496   1.547  1.1679 -0.5394 -0.4388
11334TIP3    H255494   0.381   1.588   1.427 -2.7853  1.4824  1.1898
11335TIP3   OH255495   0.333   3.319   0.903  0.6241  0.0645 -0.0557
11335TIP3    H155496   0.283   3.273   0.835  0.5043 -1.2061  0.8615
11335TIP3    H255497   0.305   3.411   0.895  1.9542  0.3467 -2.9103
11336TIP3   OH255498   1.988   1.737  22.534  0.0263  0.2411  0.3714
11336TIP3    H155499   2.008   1.777  22.618 -0.6098  0.6091  0.3519
11336TIP3    H255500   1.929   1.799  22.491  1.5133  0.8049 -0.9832
11337TIP3   OH255501   0.908   1.060   3.460  1.0218  0.2160 -0.5471
11337TIP3    H155502   0.915   0.965   3.452  1.6428  0.2679 -0.6562
11337TIP3    H255503   0.972   1.083   3.527 -1.2618  0.2408  1.7763
11338TIP3   OH255504   1.089   1.512  46.652  0.3124  0.1954 -0.2218
11338TIP3    H155505   1.092   1.551  46.739 -1.3432  0.4695 -0.2401
11338TIP3    H255506   1.005   1.466  46.649  1.4504 -1.9869 -0.8019
11339TIP3   OH255507   0.204   1.235   5.026 -0.1776 -0.3716 -0.3631
11339TIP3    H155508   0.285   1.250   5.075  0.0889  0.4291 -1.0377
11339TIP3    H255509   0.215   1.284   4.944 -0.4014 -2.0627 -1.4675
11340TIP3   OH255510   0.881   0.291  55.151 -0.1719 -0.2970  0.3634
11340TIP3    H155511   0.806   0.233  55.163 -0.2143 -0.1178  1.0122
11340TIP3    H255512   0.939   0.271  55.225  0.0236  0.1609  0.3367
11341TIP3   OH255513   0.543   0.376  49.415 -0.2720 -0.5999  0.4089
11341TIP3    H155514   0.487   0.430  49.360 -1.4169 -1.9246  0.2270
11341TIP3    H255515   0.487   0.305  49.445  1.1764 -1.7074  0.6283
11342TIP3   OH255516   0.182   3.362  63.190 -0.0195 -0.2654  0.1090
11342TIP3    H155517   0.275   3.348  63.209 -0.1877 -0.5767  0.7514
11342TIP3    H255518   0.168   3.456  63.204 -0.5802 -0.7311  3.8371
11343TIP3   OH255519   2.844   1.660  61.408  0.8629  0.0792 -0.4648
11343TIP3    H155520   2.842   1.756  61.403  0.6632  0.0798 -0.3995
11343TIP3    H255521   2.911   1.641  61.472  2.4411  0.1136 -2.0225
11344TIP3   OH255522   1.056   1.410   7.930  0.1133 -0.2291  0.1040
11344TIP3    H155523   1.102   1.358   7.996  2.4022  0.0400 -1.1887
11344TIP3    H255524   1.068   1.501   7.958 -0.9987 -0.2074  0.5656
11345TIP3   OH255525   0.589   3.026  18.536 -0.5519 -0.3488 -1.0309
11345TIP3    H155526   0.678   2.999  18.514 -0.3169  0.4465 -1.0951
11345TIP3    H255527   0.593   3.122  18.538 -1.3745 -0.3102 -0.8990
11346TIP3   OH255528   2.725   2.877   5.210  0.6381 -1.0423  0.2849
11346TIP3    H155529   2.766   2.954   5.172  1.7157 -1.4185  0.6591
11346TIP3    H255530   2.643   2.911   5.248 -0.4473 -0.6436 -2.1902
11347TIP3   OH255531   1.979   0.300  64.739 -0.1093  0.0367  0.1709
11347TIP3    H155532   2.017   0.384  64.762 -0.1139  0.8105 -2.3443
11347TIP3    H255533   2.055   0.243  64.722 -0.0787  0.2668 -0.4901
11348TIP3   OH255534   3.002   2.043   3.064 -0.6666  0.6517  0.2874
11348TIP3    H155535   2.921   1.993   3.054  0.5610 -1.7460  1.3769
11348TIP3    H255536   2.976   2.121   3.113 -2.4123  0.2779  0.0189
11349TIP3   OH255537   1.227   0.253  62.036  0.1701 -0.0831  0.0071
11349TIP3    H155538   1.267   0.174  61.999 -0.9384 -0.7228  0.1133
11349TIP3    H255539   1.254   0.254  62.127 -0.1880 -0.6085  0.1241
11350TIP3   OH255540   1.482   1.804  14.336 -0.3928 -1.0280 -0.6166
11350TIP3    H155541   1.510   1.796  14.245 -2.8249  0.6356 -1.6163
11350TIP3    H255542   1.387   1.813  14.331 -0.4830  0.3382  2.0075
11351TIP3   OH255543   2.613   1.930  47.218  0.5658  0.2373 -0.6484
11351TIP3    H155544   2.644   1.906  47.305 -2.2064 -0.6110  0.1927
11351TIP3    H255545   2.594   2.023  47.224 -0.7055 -0.0442  0.0633
11352TIP3   OH255546   1.593   3.096  13.696  0.3247  0.5965  0.3953
11352TIP3    H155547   1.648   3.028  13.656  0.3389  1.6096 -1.3934
11352TIP3    H255548   1.505   3.060  13.693  0.3621  0.5596 -0.3267
11353TIP3   OH255549   0.104   1.559   8.739 -0.0288 -0.4874  0.1424
11353TIP3    H155550   0.102   1.469   8.771  0.0626  0.0307  1.7214
11353TIP3    H255551   0.196   1.576   8.718 -0.4361 -1.7082 -3.2585
11354TIP3   OH255552   3.159   2.585   1.724 -0.4037 -0.2040  0.0074
11354TIP3    H155553   3.190   2.613   1.810  1.0584 -0.8142 -0.2963
11354TIP3    H255554   3.178   2.659   1.667 -0.1045 -0.3191 -0.0460
11355TIP3   OH255555   1.702   3.096  61.661 -0.3410 -0.5321 -0.2150
11355TIP3    H155556   1.623   3.100  61.607 -0.8204 -2.2981  0.3037
11355TIP3    H255557   1.747   3.016  61.632  0.4903 -0.3574  0.5402
11356TIP3   OH255558   0.377   2.156  44.142 -0.9369 -0.1751 -0.0640
11356TIP3    H155559   0.324   2.185  44.216  0.1475  0.8933  0.3160
11356TIP3    H255560   0.466   2.149  44.177 -0.2418  1.1441 -1.4308
11357TIP3   OH255561   3.431   1.521  20.638  0.5615 -0.0073 -0.1632
11357TIP3    H155562   3.443   1.586  20.707  1.0934 -1.5543  1.2610
11357TIP3    H255563   3.471   1.441  20.672  1.2548 -0.7291 -2.4661
11358TIP3   OH255564   0.378   2.847  22.273 -0.5471 -1.0324 -0.2467
11358TIP3    H155565   0.378   2.917  22.207 -1.1873 -1.1018 -0.3281
11358TIP3    H255566   0.441   2.783  22.241  1.7450  0.5069  0.9141
11359TIP3   OH255567   0.233   0.181  14.963  0.5815 -0.1552 -0.1323
11359TIP3    H155568   0.152   0.137  14.987  0.5331  0.2365  0.4460
11359TIP3    H255569   0.302   0.126  14.999  0.5395 -0.0735  0.0783
11360TIP3   OH255570   1.797   1.234  52.460  0.2224 -0.3991  0.0622
11360TIP3    H155571   1.831   1.150  52.430 -0.2083  0.0198 -1.7752
11360TIP3    H255572   1.719   1.249  52.407  0.0705  0.9714  0.6186
11361TIP3   OH255573   2.307   0.789  16.502 -0.5025 -0.2556  0.1874
11361TIP3    H155574   2.300   0.884  16.510 -0.1846 -0.3656  2.1719
11361TIP3    H255575   2.231   0.763  16.449 -0.3649  1.1162 -0.7203
11362TIP3   OH255576   2.906   0.695   6.229 -0.4261 -0.4944 -0.8044
11362TIP3    H155577   2.891   0.746   6.150  0.3560 -0.7012 -1.1005
11362TIP3    H255578   2.894   0.604   6.202  0.3937 -0.6025 -0.8320
11363TIP3   OH255579   2.592   1.447  63.391  0.2195 -0.2543  1.0025
11363TIP3    H155580   2.615   1.465  63.300 -0.2661 -3.2959  0.1659
11363TIP3    H255581   2.499   1.469  63.397  0.4530  0.7847  1.0589
11364TIP3   OH255582   0.907   0.462  60.702  0.4386 -0.2154 -0.1002
11364TIP3    H155583   0.862   0.528  60.650  0.7656 -0.1153 -0.2603
11364TIP3    H255584   0.837   0.416  60.748  0.1649 -0.1597 -0.4600
11365TIP3   OH255585   1.727   0.941   7.966  0.1071  0.4449  0.7292
11365TIP3    H155586   1.764   1.022   8.002 -0.3081  0.4847  1.0749
11365TIP3    H255587   1.670   0.970   7.895  0.8256  0.3746  0.1027
11366TIP3   OH255588   1.762   2.697  45.752 -0.6057 -0.1861 -0.1767
11366TIP3    H155589   1.776   2.753  45.828  0.9202 -0.4147 -0.2681
11366TIP3    H255590   1.836   2.636  45.753  0.9423  1.4023 -3.2823
11367TIP3   OH255591   2.969   0.775  61.901 -0.2974  0.2975  0.2829
11367TIP3    H155592   3.061   0.747  61.898 -0.9572 -2.1328  0.3582
11367TIP3    H255593   2.970   0.863  61.863  2.1499  0.6634  0.9865
11368TIP3   OH255594   1.252   3.295  19.089 -0.1815 -0.3027  0.0372
11368TIP3    H155595   1.194   3.343  19.029  0.5750 -0.4136 -0.8009
11368TIP3    H255596   1.316   3.252  19.032 -1.8184 -3.8017  0.5563
11369TIP3   OH255597   0.783   1.547   3.126  0.0251 -0.3385  0.0779
11369TIP3    H155598   0.838   1.583   3.195 -1.2027  0.4254  0.6813
11369TIP3    H255599   0.740   1.472   3.166 -1.0406  0.3797  0.3122
11370TIP3   OH255600   0.531   3.323  65.026 -0.1188  0.6953 -0.0704
11370TIP3    H155601   0.509   3.248  64.970  2.0400  0.7001 -1.0430
11370TIP3    H255602   0.522   3.399  64.969  0.4178  0.8720  0.0692
11371TIP3   OH255603   0.274   1.488   3.573  0.3507  0.1562 -0.0327
11371TIP3    H155604   0.307   1.512   3.487 -0.8436 -0.1562 -0.6057
11371TIP3    H255605   0.261   1.571   3.618 -0.1597  0.3989 -0.6092
11372TIP3   OH255606   3.442   0.163  61.099  0.2062  0.2711 -0.4575
11372TIP3    H155607   3.488   0.112  61.033  1.8141  0.6755  0.3166
11372TIP3    H255608   3.491   0.244  61.105  1.6739 -0.7080  2.9953
11373TIP3   OH255609   1.619   2.455  21.684  0.2515 -0.6356  0.6846
11373TIP3    H155610   1.709   2.440  21.656 -0.1623  0.4432 -1.3694
11373TIP3    H255611   1.621   2.540  21.726  0.2584 -0.8142  1.0516
11374TIP3   OH255612   0.262   0.325  54.012 -0.0745 -0.1810 -0.1612
11374TIP3    H155613   0.321   0.283  54.075 -0.3805 -1.3599 -0.6256
11374TIP3    H255614   0.318   0.384  53.961  0.8906 -1.8082 -1.0806
11375TIP3   OH255615   0.314   0.912  11.602  0.4800  0.9555  0.0459
11375TIP3    H155616   0.396   0.920  11.553  0.0640  3.5200 -0.3784
11375TIP3    H255617   0.304   0.997  11.645 -1.3511  0.2537  1.0974
11376TIP3   OH255618   0.509   0.588  54.234  0.0868  0.1992  0.3909
11376TIP3    H155619   0.516   0.681  54.210 -0.4679  0.8267  2.4427
11376TIP3    H255620   0.597   0.565  54.264  0.0780  0.2643  0.4699
11377TIP3   OH255621   0.869   0.399  43.758  0.3139  0.1407  0.1258
11377TIP3    H155622   0.804   0.397  43.688  1.7458 -0.5611 -1.2533
11377TIP3    H255623   0.952   0.381  43.714  1.3724  0.3962  1.9131
11378TIP3   OH255624   1.219   0.742  50.464 -0.3067  0.0528  0.2105
11378TIP3    H155625   1.210   0.691  50.545 -1.3813 -0.6711 -0.3454
11378TIP3    H255626   1.254   0.679  50.400 -0.3228  0.3772 -0.1255
11379TIP3   OH255627   3.314   2.730  49.994  0.0665 -0.3049  0.8128
11379TIP3    H155628   3.280   2.762  50.077 -0.2528  0.9985  0.2046
11379TIP3    H255629   3.388   2.674  50.018 -1.5055 -1.9668  2.0795
11380TIP3   OH255630   3.186   1.503  21.842  0.3444 -0.8876  0.2298
11380TIP3    H155631   3.216   1.535  21.927  1.3726 -2.2043  0.3956
11380TIP3    H255632   3.265   1.469  21.800 -0.5717 -2.6066 -0.1766
11381TIP3   OH255633   3.210   2.448   2.704  0.3380 -0.0615  0.4832
11381TIP3    H155634   3.299   2.427   2.731 -0.2718 -0.4443  2.3730
11381TIP3    H255635   3.168   2.363   2.693  0.4268  0.0991 -1.3162
11382TIP3   OH255636   0.470   3.344  49.444 -0.4631 -0.1789  0.5775
11382TIP3    H155637   0.415   3.353  49.365  2.2313  2.4249 -1.2232
11382TIP3    H255638   0.537   3.281  49.419  0.0150  0.1545  1.0043
11383TIP3   OH255639   1.462   1.880  43.269 -0.4076  0.5351  0.0685
11383TIP3    H155640   1.438   1.801  43.317 -1.7165  0.5207 -0.5626
11383TIP3    H255641   1.473   1.851  43.179 -0.9420  1.0672 -0.1773
11384TIP3   OH255642   2.400   0.052  10.189  0.1713  0.0276  0.2824
11384TIP3    H155643   2.309   0.035  10.164  0.2862 -1.5190  0.8367
11384TIP3    H255644   2.414   0.144  10.165 -1.9778  0.7616  1.4732
11385TIP3   OH255645   2.996   2.412  53.201  0.4914  0.0859  0.0360
11385TIP3    H155646   3.018   2.505  53.197  0.9825 -0.0432 -0.5325
11385TIP3    H255647   2.982   2.388  53.109 -1.8395  0.0980  0.3156
11386TIP3   OH255648   2.961   3.382  60.857 -0.4066  0.2405 -0.3362
11386TIP3    H155649   2.967   3.436  60.778  0.7291 -1.0503 -1.1805
11386TIP3    H255650   3.037   3.324  60.853  0.6258  1.1922  2.5430
11387TIP3   OH255651   2.465   2.030  47.475  0.3838  0.5373 -0.1904
11387TIP3    H155652   2.456   1.935  47.468 -1.0032  0.5709  0.8382
11387TIP3    H255653   2.510   2.043  47.558 -0.2908  0.7963  0.1442
11388TIP3   OH255654   3.070   0.345  58.381 -0.3951 -0.0374  0.3976
11388TIP3    H155655   2.997   0.287  58.405 -0.1515 -1.0673 -1.1995
11388TIP3    H255656   3.076   0.338  58.286  1.3600  0.5762  0.4267
11389TIP3   OH255657   1.998   2.565   9.318 -0.7919  0.4509 -0.3687
11389TIP3    H155658   1.986   2.659   9.334  1.3778  0.5336  1.1282
11389TIP3    H255659   2.079   2.560   9.266  0.2956 -0.6604  1.3604
11390TIP3   OH255660   1.016   3.281  19.267  0.4137  0.4020  0.1666
11390TIP3    H155661   1.016   3.216  19.338  3.3033 -1.0531 -0.9778
11390TIP3    H255662   1.108   3.287  19.241 -0.0287  3.5924 -1.0975
11391TIP3   OH255663   2.930   1.838  58.272 -0.1778 -0.0567  0.2670
11391TIP3    H155664   2.941   1.798  58.358  0.7028 -3.7863 -1.3785
11391TIP3    H255665   3.016   1.831  58.231 -0.6201  1.4426 -1.0427
11392TIP3   OH255666   0.607   2.328  43.338  0.3245  0.3691  0.2447
11392TIP3    H155667   0.653   2.339  43.255  4.7700  1.9732  2.5854
11392TIP3    H255668   0.518   2.304  43.313  1.2339  1.1871 -4.9257
11393TIP3   OH255669   2.044   2.666   4.571 -0.4216 -0.3918  0.1367
11393TIP3    H155670   2.002   2.729   4.512  1.4453  0.6263 -0.1951
11393TIP3    H255671   2.079   2.599   4.513  1.2187  0.4920  0.0433
11394TIP3   OH255672   0.240   2.616  17.935 -0.1171  0.0922 -0.4762
11394TIP3    H155673   0.228   2.602  18.029  0.9326  3.7778  0.3994
11394TIP3    H255674   0.155   2.596  17.897 -0.7618 -0.8801  1.3423
11395TIP3   OH255675   1.724   3.003  65.335  0.0347  0.0324  0.5821
11395TIP3    H155676   1.669   3.006  65.413  1.0742  0.3331  1.3332
11395TIP3    H255677   1.812   2.987  65.368  0.3081 -1.2261 -0.6408
11396TIP3   OH255678   3.131   0.126  55.000  0.1717  0.1227  0.6644
11396TIP3    H155679   3.208   0.078  54.971 -0.2577  0.7600 -1.7701
11396TIP3    H255680   3.061   0.061  55.000 -0.1279  0.3847 -1.3104
11397TIP3   OH255681   0.879   0.398   0.129  0.0527  0.3501 -0.6978
11397TIP3    H155682   0.948   0.388   0.064  1.1790 -0.4932  0.5688
11397TIP3    H255683   0.914   0.462   0.191 -1.4865  2.0389 -1.4858
11398TIP3   OH255684   1.169   2.113  62.526  0.2145  0.2031 -0.4411
11398TIP3    H155685   1.187   2.136  62.617  1.2267  0.4195 -0.6799
11398TIP3    H255686   1.255   2.113  62.484 -0.2819  0.5217 -1.4936
11399TIP3   OH255687   1.478   1.644  47.097  0.1468  0.0983  0.8958
11399TIP3    H155688   1.546   1.580  47.120 -0.6927 -1.0096  0.4369
11399TIP3    H255689   1.480   1.648  47.001  0.1688  0.7358  0.9206
11400TIP3   OH255690   2.749   3.406  56.875  0.0226 -0.2702 -0.2637
11400TIP3    H155691   2.814   3.473  56.856  0.7885 -0.3458  1.8954
11400TIP3    H255692   2.676   3.453  56.916  0.4944 -0.6871  1.1103
11401TIP3   OH255693   2.880   2.651  10.722 -0.3494  0.0580 -0.4023
11401TIP3    H155694   2.899   2.579  10.662 -0.9604 -0.5806  0.1513
11401TIP3    H255695   2.964   2.693  10.739  0.2921 -1.5528  0.5618
11402TIP3   OH255696   0.232   1.894  67.175 -0.3692  0.1573  0.2441
11402TIP3    H155697   0.291   1.959  67.214  1.7829 -1.7854  0.4594
11402TIP3    H255698   0.276   1.867  67.095 -1.3603 -0.8063  0.0051
11403TIP3   OH255699   0.715   3.237   7.923  0.3076 -0.2440  0.3191
11403TIP3    H155700   0.790   3.274   7.876 -0.9676  2.5569  0.2579
11403TIP3    H255701   0.672   3.181   7.858  0.1790  1.2946 -0.9884
11404TIP3   OH255702   0.344   1.027   5.361  0.3131 -0.1798  0.3486
11404TIP3    H155703   0.319   1.101   5.416 -1.8550 -0.9978  0.5901
11404TIP3    H255704   0.370   1.065   5.278 -1.9647  0.8806  0.0314
11405TIP3   OH255705   1.464   0.156  43.659  0.4021 -0.6111 -0.3377
11405TIP3    H155706   1.458   0.220  43.588 -0.6340 -0.6213 -0.2722
11405TIP3    H255707   1.396   0.182  43.721 -1.7672 -3.1575 -1.4579
11406TIP3   OH255708   0.270   0.544  57.243  0.5869  0.2169  0.1860
11406TIP3    H155709   0.289   0.454  57.271 -0.8714 -0.6125 -1.3557
11406TIP3    H255710   0.177   0.544  57.223  0.5984  2.0503 -0.0208
11407TIP3   OH255711   2.947   0.557  16.422  0.3728  0.2457  0.2601
11407TIP3    H155712   2.882   0.581  16.357  0.3323  0.0498  0.2290
11407TIP3    H255713   3.029   0.594  16.389  0.5947 -0.9110 -0.5232
11408TIP3   OH255714   2.238   0.548  51.701 -0.3502 -0.3990  0.3077
11408TIP3    H155715   2.173   0.573  51.636  0.2744  1.1578  0.2377
11408TIP3    H255716   2.264   0.630  51.741  1.0547 -1.0786  0.8422
11409TIP3   OH255717   0.162   2.114  66.446 -0.4428  0.5122 -0.4726
11409TIP3    H155718   0.084   2.072  66.411  0.7644 -0.4955 -2.0655
11409TIP3    H255719   0.190   2.175  66.378  0.3961  0.5325 -0.1273
11410TIP3   OH255720   2.161   2.117  15.465 -0.5183  0.7726  0.6794
11410TIP3    H155721   2.091   2.178  15.492  0.5769  1.3772  2.2633
11410TIP3    H255722   2.213   2.104  15.543  0.0207 -1.2713  0.0419
11411TIP3   OH255723   2.989   2.431   5.811 -0.8428 -0.7634  0.3416
11411TIP3    H155724   2.937   2.510   5.825 -1.7516 -1.7268  2.8916
11411TIP3    H255725   3.072   2.464   5.776 -0.7268  1.5028  2.4369
11412TIP3   OH255726   2.107   3.107   9.747 -0.4009  0.0279 -0.0031
11412TIP3    H155727   2.199   3.126   9.765 -0.2032 -0.4947 -0.4299
11412TIP3    H255728   2.065   3.106   9.833  0.1680 -0.6442  0.2733
11413TIP3   OH255729   0.525   0.674  14.111 -0.1633 -0.0701  0.5936
11413TIP3    H155730   0.471   0.610  14.065  1.6171 -0.0242 -1.7886
11413TIP3    H255731   0.609   0.629  14.125  0.6436  1.2449  0.1637
11414TIP3   OH255732   1.433   2.220   5.211  0.0903  0.2027 -0.1848
11414TIP3    H155733   1.448   2.252   5.122 -0.6768  1.4383  0.1060
11414TIP3    H255734   1.480   2.282   5.267 -0.7437  0.3747  0.3474
11415TIP3   OH255735   3.401   2.444  10.682 -0.8316  0.1563 -0.7672
11415TIP3    H155736   3.309   2.422  10.672 -0.4350 -1.6987 -0.6755
11415TIP3    H255737   3.446   2.359  10.683  0.9907  1.0408 -2.0329
11416TIP3   OH255738   2.193   1.109  66.910  0.0756 -0.3048 -0.2342
11416TIP3    H155739   2.271   1.072  66.868  0.6173 -1.3261  1.5207
11416TIP3    H255740   2.210   1.203  66.913  1.4424 -0.5324  0.4036
11417TIP3   OH255741   0.246   2.347   9.915  0.2776 -0.6444  0.2991
11417TIP3    H155742   0.242   2.252   9.929  0.0180 -0.4331  1.8372
11417TIP3    H255743   0.173   2.382   9.965 -0.2401  0.3172 -1.0647
11418TIP3   OH255744   0.216   0.468  11.618 -0.2383 -0.4531  0.1017
11418TIP3    H155745   0.230   0.541  11.557 -2.3247 -1.1006 -1.2505
11418TIP3    H255746   0.300   0.458  11.662  0.9578  0.9297 -1.6904
11419TIP3   OH255747   1.600   3.104  50.014 -0.6588 -0.1420 -0.0003
11419TIP3    H155748   1.676   3.162  50.026  0.6609 -1.9340  0.7196
11419TIP3    H255749   1.565   3.128  49.928  0.4593  1.0267 -0.1548
11420TIP3   OH255750   3.446   1.957  17.645 -0.0143  0.3724 -0.4983
11420TIP3    H155751   3.464   1.945  17.552  0.3024 -0.1440 -0.3725
11420TIP3    H255752   3.455   1.870  17.683  1.2758  0.8022  0.2584
11421TIP3   OH255753   0.146   2.019  64.615 -0.2163  0.0617 -0.3854
11421TIP3    H155754   0.203   1.998  64.540  0.3899 -0.5725  0.2245
11421TIP3    H255755   0.108   2.104  64.594  0.9398  0.4926 -0.8434
11422TIP3   OH255756   1.746   1.140  14.251  0.3430 -0.2974  0.2335
11422TIP3    H155757   1.708   1.191  14.323 -0.2461 -1.0796  0.4831
11422TIP3    H255758   1.706   1.176  14.172  0.9952  0.5676  0.2828
11423TIP3   OH255759   1.935   1.751  14.122 -0.2357 -0.3283 -0.2149
11423TIP3    H155760   1.890   1.824  14.080 -0.5677 -1.0554 -1.1686
11423TIP3    H255761   1.864   1.694  14.152  0.0082 -0.0248  0.9713
11424TIP3   OH255762   2.170   2.936   4.351 -0.1294  0.5504 -0.2749
11424TIP3    H155763   2.111   2.903   4.284 -0.0341  1.8562 -1.0295
11424TIP3    H255764   2.247   2.880   4.346 -0.4478  0.1480 -0.7074
11425TIP3   OH255765   1.917   2.890  18.209 -0.3894 -0.3405 -0.0242
11425TIP3    H155766   2.007   2.921  18.202  0.0662 -1.2932  1.1292
11425TIP3    H255767   1.911   2.854  18.298 -2.3764  1.1233  0.5331
11426TIP3   OH255768   1.888   2.340  42.150  0.1395 -0.6359  0.5494
11426TIP3    H155769   1.851   2.342  42.062  0.8466 -1.7677  0.2185
11426TIP3    H255770   1.812   2.333  42.208 -0.2299 -1.8891 -0.0737
11427TIP3   OH255771   1.619   1.019  16.852 -0.0993 -0.3244  0.5021
11427TIP3    H155772   1.711   1.023  16.826 -0.3658 -0.2891 -0.4854
11427TIP3    H255773   1.570   1.036  16.771 -0.9920  2.6011  1.5269
11428TIP3   OH255774   0.491   3.335  52.753  0.1255 -0.4429 -0.0231
11428TIP3    H155775   0.443   3.371  52.828 -0.5024 -3.1822  1.0064
11428TIP3    H255776   0.583   3.348  52.775 -0.0751  0.0379  0.5542
11429TIP3   OH255777   0.523   2.375  18.025 -0.1382 -0.2152  0.1579
11429TIP3    H155778   0.579   2.316  18.075 -0.4929 -0.6123  0.0984
11429TIP3    H255779   0.451   2.319  17.994 -0.7538  0.3573  0.5302
11430TIP3   OH255780   2.437   0.752  14.643  0.5033  0.3433 -0.6848
11430TIP3    H155781   2.478   0.816  14.701  0.0357  0.3519 -0.3540
11430TIP3    H255782   2.351   0.790  14.623 -0.4326 -0.9018  0.8036
11431TIP3   OH255783   2.056   2.982  57.706 -0.3616  0.2443 -0.0663
11431TIP3    H155784   2.036   3.009  57.795  1.8387  2.6290 -0.1658
11431TIP3    H255785   2.001   2.906  57.690 -4.6071  2.6557  1.5415
11432TIP3   OH255786   2.017   2.719  47.849 -0.0016 -0.0677 -0.4647
11432TIP3    H155787   2.003   2.797  47.903 -0.0848  3.1126 -4.6006
11432TIP3    H255788   2.112   2.706  47.850  0.0159  0.0676  0.2418
11433TIP3   OH255789   1.409   2.611   6.534 -0.1775  0.0568 -0.1916
11433TIP3    H155790   1.359   2.593   6.614  0.9864 -2.1119  0.1513
11433TIP3    H255791   1.402   2.530   6.483  1.2176  0.4516 -1.0717
11434TIP3   OH255792   1.014   0.827  60.004 -0.4685  0.6202 -0.1633
11434TIP3    H155793   1.070   0.750  60.007  0.2371  1.1215 -0.2387
11434TIP3    H255794   1.008   0.849  59.911 -1.4839  0.0806 -0.2373
11435TIP3   OH255795   2.217   2.287  18.146 -0.4452  0.3846  0.8151
11435TIP3    H155796   2.309   2.280  18.171 -0.0841  1.9332  0.0182
11435TIP3    H255797   2.219   2.300  18.052 -1.5210 -0.0737  0.7186
11436TIP3   OH255798   1.815   2.320  62.144 -0.4257 -0.0549  0.4396
11436TIP3    H155799   1.892   2.364  62.110 -0.5734 -1.1142 -1.3593
11436TIP3    H255800   1.807   2.352  62.234  0.1013  2.7125 -0.4116
11437TIP3   OH255801   2.259   1.519  15.488 -0.2854 -0.5216  0.4200
11437TIP3    H155802   2.215   1.603  15.497  0.1923  0.0469 -2.0376
11437TIP3    H255803   2.341   1.530  15.538  1.3412  1.7281 -2.4512
11438TIP3   OH255804   2.538   2.434  26.961  0.4638  0.0593  0.2334
11438TIP3    H155805   2.458   2.381  26.961  0.0291  0.5471 -2.9564
11438TIP3    H255806   2.519   2.505  27.022 -0.7457 -0.9163  1.0340
11439TIP3   OH255807   1.343   2.694  18.436 -0.2031  0.4042  0.3120
11439TIP3    H155808   1.303   2.706  18.349  0.5059 -0.0306 -0.0867
11439TIP3    H255809   1.269   2.686  18.496 -0.8294 -2.4476 -0.6664
11440TIP3   OH255810   2.878   0.423  66.065  0.1140  0.3509 -0.4126
11440TIP3    H155811   2.894   0.487  65.995 -1.2797  0.6977 -0.4373
11440TIP3    H255812   2.951   0.361  66.058  1.4590  1.8645 -0.4567
11441TIP3   OH255813   0.862   0.275  34.616 -0.2244  0.3908  0.0756
11441TIP3    H155814   0.805   0.249  34.689  0.0582 -0.4820 -0.0098
11441TIP3    H255815   0.801   0.303  34.548 -0.5107  4.1795  1.6112
11442TIP3   OH255816   0.470   1.545  15.265  0.3101  0.1043  0.2871
11442TIP3    H155817   0.494   1.592  15.345 -1.4413 -0.3767  1.1400
11442TIP3    H255818   0.528   1.469  15.263  0.4323  0.1737  1.0450
11443TIP3   OH255819   2.219   2.795   9.733 -0.0004 -0.5024 -0.2445
11443TIP3    H155820   2.204   2.711   9.689  0.2833 -0.1939 -0.9305
11443TIP3    H255821   2.298   2.830   9.693 -1.8907  1.6897 -2.4194
11444TIP3   OH255822   1.743   3.015  65.637 -0.1791  0.2181 -0.5384
11444TIP3    H155823   1.772   2.978  65.721  0.5392  0.9603 -0.4425
11444TIP3    H255824   1.720   3.106  65.657  1.0645  0.7409 -1.3285
11445TIP3   OH255825   0.963   0.473  56.957 -0.0397 -0.4836  0.9331
11445TIP3    H155826   1.008   0.551  56.987 -0.3775 -0.0152  0.2368
11445TIP3    H255827   1.012   0.444  56.880 -1.0698  0.1925  0.0028
11446TIP3   OH255828   0.341   2.832  61.802 -0.1473  0.1301 -0.3452
11446TIP3    H155829   0.309   2.922  61.813 -2.5852 -0.7030 -0.0242
11446TIP3    H255830   0.282   2.793  61.737 -0.2980 -1.7255  0.8207
11447TIP3   OH255831   1.084   1.776  38.611 -0.3647 -0.2815  0.1947
11447TIP3    H155832   1.174   1.807  38.601  0.3069 -1.3434  2.3301
11447TIP3    H255833   1.031   1.844  38.569  1.3916  0.4203 -1.0351
11448TIP3   OH255834   0.853   2.135  46.959  0.0959 -0.5266 -0.2670
11448TIP3    H155835   0.790   2.093  46.902  1.4376 -1.3437 -1.2169
11448TIP3    H255836   0.937   2.125  46.914  0.8531  0.9100  0.7208
11449TIP3   OH255837   2.160   1.737  49.687 -0.6270  0.3527  0.5481
11449TIP3    H155838   2.234   1.677  49.676 -1.2829 -0.5680  1.0411
11449TIP3    H255839   2.159   1.756  49.781  0.0564  1.8001  0.3005
11450TIP3   OH255840   1.595   1.926  38.993  0.4619 -0.3183 -0.5372
11450TIP3    H155841   1.517   1.981  39.007  0.7114 -0.3570  1.2145
11450TIP3    H255842   1.669   1.986  39.007  0.7576 -0.5002 -1.2778
11451TIP3   OH255843   1.021   2.811  34.144 -0.2582 -0.1608 -0.2800
11451TIP3    H155844   1.075   2.751  34.195 -1.3608 -0.3112  0.7680
11451TIP3    H255845   0.950   2.757  34.110 -1.4569  0.5494  0.9680
11452TIP3   OH255846   1.641   3.417  59.556  0.5664  0.6761 -0.3489
11452TIP3    H155847   1.713   3.444  59.613  0.2650  1.2644 -0.2400
11452TIP3    H255848   1.658   3.461  59.473 -0.1906  1.6210 -0.0207
11453TIP3   OH255849   0.233   2.995  44.031 -0.5303 -0.2148 -0.2163
11453TIP3    H155850   0.169   3.060  44.001  0.3621  0.6258 -0.3661
11453TIP3    H255851   0.298   3.047  44.079 -1.0748 -1.3095  1.8207
11454TIP3   OH255852   1.695   1.941  57.959 -0.1623 -0.2786  0.2344
11454TIP3    H155853   1.744   1.938  57.877 -0.7607  1.1983 -0.2206
11454TIP3    H255854   1.762   1.946  58.027  0.3311 -0.1284 -0.2539
11455TIP3   OH255855   1.668   2.430  15.922  1.1250 -0.8304  0.7825
11455TIP3    H155856   1.698   2.481  15.846 -0.5106 -1.0136 -0.0253
11455TIP3    H255857   1.748   2.394  15.959  2.1479  0.7656  0.2513
11456TIP3   OH255858   2.620   3.133  52.736  0.4638  0.0034  0.5874
11456TIP3    H155859   2.599   3.072  52.665 -0.9424  1.5802 -0.4136
11456TIP3    H255860   2.680   3.196  52.698  0.3693  0.3736  1.0292
11457TIP3   OH255861   2.662   0.205  12.908  0.4370 -0.0034  0.2149
11457TIP3    H155862   2.695   0.296  12.908  0.7366 -0.1107  0.3685
11457TIP3    H255863   2.606   0.199  12.985  0.4685  0.0323  0.2402
11458TIP3   OH255864   2.515   1.211  18.694  0.5122 -0.0069  0.0604
11458TIP3    H155865   2.535   1.271  18.766 -0.8099  0.7088 -0.1454
11458TIP3    H255866   2.493   1.128  18.737 -2.8623  1.0909  0.7410
11459TIP3   OH255867   1.019   1.892  51.945 -0.1051 -0.0259  0.1972
11459TIP3    H155868   1.005   1.954  52.016  0.5162  1.2366 -0.7494
11459TIP3    H255869   0.936   1.892  51.896  0.4982  1.5710 -0.9155
11460TIP3   OH255870   0.724   2.735   5.543  0.2377 -0.2872 -0.3261
11460TIP3    H155871   0.722   2.748   5.448 -0.4808 -0.5804 -0.3531
11460TIP3    H255872   0.672   2.807   5.578  0.3834 -0.2619 -0.1551
11461TIP3   OH255873   0.083   2.804   8.781  0.1294  0.2997 -0.0387
11461TIP3    H155874   0.178   2.801   8.769 -0.0590 -1.0735 -1.4125
11461TIP3    H255875   0.056   2.886   8.739  0.7752  1.1929  1.2121
11462TIP3   OH255876   1.085   0.003  67.251  0.2757 -0.1038  0.0381
11462TIP3    H155877   1.049   0.058  67.320  1.5196  0.8814 -0.0658
11462TIP3    H255878   1.158   0.054  67.214 -0.0331 -0.8201 -1.6640
11463TIP3   OH255879   1.004   2.142  51.670 -0.1498 -0.2873  0.0364
11463TIP3    H155880   0.939   2.102  51.728  0.1111 -0.2439  0.3564
11463TIP3    H255881   0.961   2.223  51.639 -0.2523 -0.2639  0.2390
11464TIP3   OH255882   1.345   2.375  54.239  0.5223  0.1448 -0.4606
11464TIP3    H155883   1.285   2.406  54.172 -1.1690  1.2856  1.4375
11464TIP3    H255884   1.316   2.286  54.257  0.4611  0.1151 -0.7038
11465TIP3   OH255885   1.211   1.887   9.932 -0.3953  0.3420 -0.1794
11465TIP3    H155886   1.276   1.834   9.885 -0.0907  0.2281  0.3647
11465TIP3    H255887   1.153   1.920   9.863 -0.8114 -0.9928 -0.5108
11466TIP3   OH255888   3.206   2.949   9.349 -0.1185 -0.4277 -0.2009
11466TIP3    H155889   3.131   2.904   9.387  0.9407 -1.6111  0.5622
11466TIP3    H255890   3.262   2.880   9.314  1.1062  0.3286  0.1599
11467TIP3   OH255891   1.846   0.921  56.558 -0.1313 -0.1915  0.8437
11467TIP3    H155892   1.873   0.869  56.634 -1.1326  0.0625  1.3889
11467TIP3    H255893   1.820   1.005  56.595 -2.6342 -0.7311  0.5471
11468TIP3   OH255894   3.164   1.831   1.494 -0.3738 -0.2779 -0.2377
11468TIP3    H155895   3.102   1.822   1.422  0.5939 -0.5646 -1.0618
11468TIP3    H255896   3.113   1.811   1.573 -1.3606 -0.3192 -0.8734
11469TIP3   OH255897   3.427   1.380  11.630 -0.4498  0.1037 -0.5366
11469TIP3    H155898   3.456   1.293  11.658 -1.4093 -0.1591 -0.3390
11469TIP3    H255899   3.415   1.428  11.712 -0.2177  0.3285 -0.6331
11470TIP3   OH255900   2.666   1.358  12.183 -0.5096  0.9302  0.0417
11470TIP3    H155901   2.606   1.427  12.156 -1.6639  0.2369  0.7364
11470TIP3    H255902   2.616   1.277  12.171  0.9931  0.1304 -1.3047
11471TIP3   OH255903   2.588   1.581   9.379  0.3547 -0.3867 -0.0621
11471TIP3    H155904   2.515   1.576   9.441  0.8316 -1.5958  0.4261
11471TIP3    H255905   2.658   1.626   9.427 -0.5420  2.2597 -1.0583
11472TIP3   OH255906   0.061   1.732  50.807  0.4014 -0.1463  0.3401
11472TIP3    H155907   0.102   1.719  50.721 -1.6848 -1.7435 -0.5083
11472TIP3    H255908   0.130   1.770  50.861  1.6714  1.3629 -2.1439
11473TIP3   OH255909   3.206   0.004  20.757 -0.4364  0.5110  0.2907
11473TIP3    H155910   3.221   0.006  20.851 -0.8570  2.4643  0.3666
11473TIP3    H255911   3.293   0.020  20.719 -0.3460  0.1703  0.3491
11474TIP3   OH255912   0.801   3.353  43.062  0.1892 -0.0049 -0.3811
11474TIP3    H155913   0.852   3.359  43.142  0.2963 -0.6110 -0.3998
11474TIP3    H255914   0.791   3.259  43.046  1.2356  0.0811 -1.7500
11475TIP3   OH255915   1.484   3.391  47.313  0.1028  0.2967 -0.4870
11475TIP3    H155916   1.439   3.312  47.343  0.6888  0.3161  0.4706
11475TIP3    H255917   1.426   3.463  47.340 -0.0658  0.2374 -0.6857
11476TIP3   OH255918   2.603   3.053  49.319 -0.6028  0.0281 -0.7627
11476TIP3    H155919   2.549   3.062  49.398  0.3913 -0.3856 -0.0158
11476TIP3    H255920   2.602   2.959  49.300 -1.4479  0.2103 -1.7000
11477TIP3   OH255921   0.858   1.453  55.984 -0.4666 -0.1685 -0.1805
11477TIP3    H155922   0.783   1.471  55.927 -0.2083 -1.7299 -1.0755
11477TIP3    H255923   0.927   1.512  55.954 -1.2574  1.1717  0.5504
11478TIP3   OH255924   1.829   2.093  35.323  0.3473 -0.7808  0.1755
11478TIP3    H155925   1.922   2.113  35.331  0.4938 -1.3888  0.0746
11478TIP3    H255926   1.794   2.161  35.267  0.6767 -0.3950  0.4334
11479TIP3   OH255927   0.872   3.079  62.229  0.4718 -0.7271  0.1003
11479TIP3    H155928   0.864   3.117  62.316  0.3167  0.3172 -0.3515
11479TIP3    H255929   0.800   3.017  62.223 -0.5918  0.4559  0.1148
11480TIP3   OH255930   0.450   2.316   6.830  0.1074 -0.1244 -0.3551
11480TIP3    H155931   0.445   2.339   6.738 -1.0385 -1.8176 -0.7630
11480TIP3    H255932   0.413   2.391   6.876 -1.6507 -0.2510 -1.4760
11481TIP3   OH255933   2.674   1.322  67.477 -0.2165  0.4837 -0.1528
11481TIP3    H155934   2.695   1.233  67.506  0.0780  0.7661  0.5177
11481TIP3    H255935   2.704   1.325  67.386 -1.7717 -0.6273 -0.7583
11482TIP3   OH255936   3.437   1.297  43.347  0.3198 -0.0495  0.1801
11482TIP3    H155937   3.422   1.311  43.441  0.0056 -1.1611  0.3122
11482TIP3    H255938   3.520   1.250  43.343 -0.6084 -1.7424  0.0565
11483TIP3   OH255939   0.649   2.469  14.567 -0.0631 -0.1739 -0.3372
11483TIP3    H155940   0.606   2.526  14.504 -0.8401 -0.3174  0.0483
11483TIP3    H255941   0.622   2.502  14.652  1.0650  0.0837 -0.0679
11484TIP3   OH255942   2.955   2.389  45.756 -0.1925 -0.3312  0.5051
11484TIP3    H155943   3.022   2.372  45.690 -0.9942 -1.5515 -0.0225
11484TIP3    H255944   2.882   2.428  45.707 -0.7767 -1.2026  0.6501
11485TIP3   OH255945   0.899   2.491  38.929 -0.0046 -0.2779  0.3911
11485TIP3    H155946   0.847   2.418  38.895 -0.9755 -0.1045  1.4460
11485TIP3    H255947   0.876   2.565  38.873 -0.4298 -0.3592  0.4502
11486TIP3   OH255948   3.197   0.619  51.617 -0.4588 -0.5744 -0.2672
11486TIP3    H155949   3.265   0.671  51.575 -1.1434  1.8705  1.4203
11486TIP3    H255950   3.231   0.529  51.617  1.2172 -0.0280 -2.4247
11487TIP3   OH255951   3.246   2.182  66.500 -0.2669 -0.3037 -0.0344
11487TIP3    H155952   3.290   2.137  66.572  0.6410  2.1669  1.0694
11487TIP3    H255953   3.289   2.148  66.421  2.0750  0.3121  0.8937
11488TIP3   OH255954   1.063   2.735   4.073 -0.1633 -0.3060 -0.5149
11488TIP3    H155955   1.063   2.713   4.167 -0.1602 -1.4987 -0.7862
11488TIP3    H255956   0.973   2.764   4.056 -0.4057 -0.9133 -0.3171
11489TIP3   OH255957   1.699   1.613  14.196  0.4150  0.5896 -0.2375
11489TIP3    H155958   1.743   1.590  14.278  0.8028 -0.4608 -0.7208
11489TIP3    H255959   1.606   1.598  14.214  0.3962  1.3188  0.3079
11490TIP3   OH255960   2.721   2.539  54.918  0.1304 -0.1437 -0.3419
11490TIP3    H155961   2.718   2.447  54.945  2.0453 -0.2955 -0.5154
11490TIP3    H255962   2.772   2.539  54.837  1.3813  1.2002  0.3873
11491TIP3   OH255963   3.192   2.156  55.494 -0.3208  0.1597 -0.0636
11491TIP3    H155964   3.275   2.153  55.447 -0.4657 -1.6952 -0.2710
11491TIP3    H255965   3.218   2.166  55.586  0.0835  0.5853 -0.2169
11492TIP3   OH255966   3.303   0.705  54.463  0.3184  0.3083 -0.4280
11492TIP3    H155967   3.374   0.686  54.402  0.1258 -0.1470 -0.5194
11492TIP3    H255968   3.223   0.691  54.412  0.1579  0.0977 -0.1259
11493TIP3   OH255969   2.694   2.965   4.037 -0.1479 -0.2408  0.2519
11493TIP3    H155970   2.715   3.058   4.034 -0.9710  0.0124  1.4490
11493TIP3    H255971   2.606   2.962   4.075 -0.3976 -1.4747 -0.3747
11494TIP3   OH255972   0.407   2.615  18.732  0.0466 -0.5469  0.5921
11494TIP3    H155973   0.465   2.574  18.796 -0.5954 -1.0894  0.8367
11494TIP3    H255974   0.375   2.543  18.679 -0.0466 -0.1932  0.1571
11495TIP3   OH255975   2.171   0.774  16.240 -0.1279  0.7465 -0.0007
11495TIP3    H155976   2.079   0.763  16.217 -0.7082  2.3484  1.4210
11495TIP3    H255977   2.204   0.838  16.176  0.3057 -0.5423 -1.1268
11496TIP3   OH255978   3.294   2.258  51.079 -0.0602  0.0345  0.0869
11496TIP3    H155979   3.298   2.246  51.174 -1.0020 -1.5903 -0.0628
11496TIP3    H255980   3.370   2.314  51.060  1.4486 -1.4046  1.5301
11497TIP3   OH255981   0.283   0.400   3.923 -0.3727  0.1332 -0.6362
11497TIP3    H155982   0.273   0.350   3.842 -0.0308  0.5140 -0.9188
11497TIP3    H255983   0.311   0.335   3.988  0.0947 -0.0399 -1.0032
11498TIP3   OH255984   2.412   0.483  42.389 -0.3148 -0.0828  0.3783
11498TIP3    H155985   2.406   0.405  42.444 -0.5064  1.0621  2.0789
11498TIP3    H255986   2.335   0.535  42.413  0.5078  1.2365  0.3011
11499TIP3   OH255987   0.370   0.256   6.544  0.2894 -0.6174  0.2477
11499TIP3    H155988   0.339   0.336   6.587 -1.8809 -1.0677 -0.3343
11499TIP3    H255989   0.392   0.283   6.455  0.1680 -0.5351  0.2424
11500TIP3   OH255990   3.347   2.921  49.316 -0.0383  0.6227  0.4549
11500TIP3    H155991   3.273   2.877  49.274 -1.9607  1.5191  2.6988
11500TIP3    H255992   3.365   2.996  49.259 -2.2907  1.5763  0.8810
11501TIP3   OH255993   0.711   2.539  49.633  0.2984  0.1443  0.2507
11501TIP3    H155994   0.715   2.474  49.563  0.8098 -0.3413  0.7185
11501TIP3    H255995   0.794   2.585  49.628  1.2417 -1.2660  1.8067
11502TIP3   OH255996   1.319   3.442   0.792  0.2254  0.2987  0.4392
11502TIP3    H155997   1.313   3.385   0.715 -1.0072  0.2172  0.5687
11502TIP3    H255998   1.310   3.382   0.867  1.4416  0.3740  0.6552
11503TIP3   OH255999   1.208   1.195  63.498  0.3920 -0.1455 -0.4297
11503TIP3    H156000   1.255   1.247  63.563  0.2253  1.9886 -1.9206
11503TIP3    H256001   1.117   1.198  63.527  0.3889  0.3470 -0.4937
11504TIP3   OH256002   0.678   2.697   2.782 -0.8620 -0.2221 -0.2024
11504TIP3    H156003   0.718   2.668   2.701 -0.5967 -0.9165  0.1743
11504TIP3    H256004   0.737   2.667   2.851 -2.0053 -1.2645  0.3675
11505TIP3   OH256005   2.538   0.993   5.282  0.2293 -0.6049  0.4723
11505TIP3    H156006   2.584   1.025   5.360 -2.1903  0.9760  1.3850
11505TIP3    H256007   2.451   0.970   5.314 -0.0122 -2.4778 -1.3451
11506TIP3   OH256008   3.029   0.790  20.341 -0.1543 -0.0408 -0.5011
11506TIP3    H156009   3.016   0.881  20.316  1.4011 -0.0693 -1.5136
11506TIP3    H256010   2.956   0.743  20.301 -1.5980  0.8543  0.9336
11507TIP3   OH256011   3.057   2.346  66.651  0.2124  0.0285 -0.3981
11507TIP3    H156012   3.123   2.299  66.600  0.6980 -0.4671  0.6476
11507TIP3    H256013   3.073   2.319  66.741 -1.4842 -0.1558 -0.1295
11508TIP3   OH256014   0.542   2.013  62.164  0.2297  0.3458 -0.9059
11508TIP3    H156015   0.548   1.920  62.144 -1.8151 -0.4744  1.7495
11508TIP3    H256016   0.597   2.025  62.241 -1.3824  0.7723  0.2284
11509TIP3   OH256017   0.641   1.123  13.930 -0.3286  0.6984 -0.2392
11509TIP3    H156018   0.659   1.094  14.019 -0.4297  2.3117  0.3415
11509TIP3    H256019   0.554   1.164  13.935 -1.0342 -0.5712 -1.4290
11510TIP3   OH256020   1.947   2.233  64.651 -0.2223  0.1301  0.2156
11510TIP3    H156021   1.852   2.221  64.655 -0.1560 -0.6337 -0.4040
11510TIP3    H256022   1.977   2.170  64.587  0.5315  1.4856 -0.8263
11511TIP3   OH256023   1.417   2.563   8.866 -0.0752 -0.4994 -0.0994
11511TIP3    H156024   1.462   2.645   8.849 -0.8502 -0.3777 -1.7461
11511TIP3    H256025   1.353   2.555   8.796 -1.6654 -1.3559  1.3569
11512TIP3   OH256026   1.930   2.792   5.763  0.0505  0.5021 -0.7841
11512TIP3    H156027   1.860   2.732   5.788 -0.3444  1.7770  1.3312
11512TIP3    H256028   2.007   2.735   5.751 -0.3369 -0.4631  1.0433
11513TIP3   OH256029   2.575   1.766  51.406 -0.1629 -0.2437 -0.2514
11513TIP3    H156030   2.534   1.750  51.321 -1.4472  0.5913  0.1796
11513TIP3    H256031   2.600   1.859  51.403  1.2503 -0.5986 -0.2937
11514TIP3   OH256032   0.821   0.841  57.650 -0.4748  0.1193 -0.5094
11514TIP3    H156033   0.866   0.904  57.593  0.2737 -0.8756 -1.0481
11514TIP3    H256034   0.760   0.796  57.592 -1.6114  0.8857  0.0491
11515TIP3   OH256035   0.520   0.007   3.674 -0.2347  0.0839 -0.2346
11515TIP3    H156036   0.561  -0.073   3.642  0.0860 -0.5822  1.7198
11515TIP3    H256037   0.434  -0.020   3.706 -0.7307  0.8019 -0.9426
11516TIP3   OH256038   2.200   1.155  42.815  0.1209  0.0740  0.6434
11516TIP3    H156039   2.236   1.104  42.742 -1.0839 -1.6994  1.2090
11516TIP3    H256040   2.185   1.242  42.778  2.1055  0.0240 -0.4106
11517TIP3   OH256041   2.576   0.447  55.808  0.2602 -0.0579  0.0109
11517TIP3    H156042   2.581   0.352  55.819 -1.1456 -0.0352  1.1220
11517TIP3    H256043   2.537   0.479  55.889 -3.1340  0.9969 -1.8448
11518TIP3   OH256044   3.372   2.653  56.890  0.4080  0.2461 -0.1907
11518TIP3    H156045   3.420   2.644  56.973  0.2329 -0.7624 -0.1798
11518TIP3    H256046   3.319   2.732  56.901 -0.9107 -0.7769  1.3553
11519TIP3   OH256047   1.469   0.941   8.846  0.6568 -0.0368 -0.2114
11519TIP3    H156048   1.443   0.872   8.785 -0.5571  0.8570 -0.7658
11519TIP3    H256049   1.488   1.016   8.790  0.3344  0.5545  0.4566
11520TIP3   OH256050   1.227   1.911  46.241  0.1597 -0.0020  0.3439
11520TIP3    H156051   1.235   1.821  46.273 -0.1046  0.1914  0.9719
11520TIP3    H256052   1.134   1.931  46.249 -0.1504 -0.3660 -1.7686
11521TIP3   OH256053   0.063   3.056  63.804 -0.5143 -0.4741  0.0446
11521TIP3    H156054   0.153   3.032  63.781 -0.8361 -2.1534  0.4253
11521TIP3    H256055   0.051   3.143  63.765  1.1090 -0.4157 -0.4092
11522TIP3   OH256056   2.765   2.985   6.169 -0.4075 -0.5923  0.5357
11522TIP3    H156057   2.701   3.038   6.217 -0.1420 -1.1426  1.5265
11522TIP3    H256058   2.831   2.962   6.234  1.2205  0.5789 -0.6235
11523TIP3   OH256059   0.120   1.692  19.427  0.2408  0.1128  0.0175
11523TIP3    H156060   0.214   1.709  19.432  0.3865 -0.6523 -0.1197
11523TIP3    H256061   0.101   1.637  19.502  0.2433 -1.2269 -0.9190
11524TIP3   OH256062   1.012   2.545  11.490  0.1557 -0.0098  0.0039
11524TIP3    H156063   0.965   2.473  11.533 -2.5010  1.1418 -0.7178
11524TIP3    H256064   1.015   2.614  11.557  0.1585  0.1712 -0.1829
11525TIP3   OH256065   2.178   0.539  49.074  0.3122  0.5080 -0.7457
11525TIP3    H156066   2.101   0.562  49.127  0.8943  1.1901 -0.1759
11525TIP3    H256067   2.179   0.443  49.074 -0.4139  0.4881 -0.5835
11526TIP3   OH256068   1.433   3.051  42.444 -0.3593  0.0183 -0.0114
11526TIP3    H156069   1.370   3.122  42.432 -0.1982  0.1251 -0.2282
11526TIP3    H256070   1.418   2.993  42.369 -1.1656 -0.6911  0.6809
11527TIP3   OH256071   2.977   3.103  63.207 -1.1282 -0.1813 -0.1401
11527TIP3    H156072   2.904   3.063  63.256 -0.2837 -1.4815  0.1036
11527TIP3    H256073   2.950   3.097  63.116 -0.5424 -2.4443 -0.2180
11528TIP3   OH256074   1.364   0.856  16.935  0.3290 -0.1622 -0.6964
11528TIP3    H156075   1.293   0.921  16.934  1.3296  0.9671 -0.0660
11528TIP3    H256076   1.425   0.886  16.868  1.8058  0.7231  0.9894
11529TIP3   OH256077   0.429   0.146  65.873 -0.2771 -0.0700  1.0586
11529TIP3    H156078   0.407   0.132  65.965 -0.4385 -0.5985  0.9406
11529TIP3    H256079   0.391   0.231  65.852 -0.4198 -0.0432  1.4242
11530TIP3   OH256080   1.983   2.085  22.826  0.1637 -0.0107  0.2664
11530TIP3    H156081   2.077   2.072  22.818  0.7513  0.7043  4.0909
11530TIP3    H256082   1.945   1.998  22.809  1.5230 -0.4292 -0.7925
11531TIP3   OH256083   0.534   2.660  17.351  0.3933 -0.5159 -0.3899
11531TIP3    H156084   0.481   2.734  17.380  0.9084 -0.0518 -0.6088
11531TIP3    H256085   0.530   2.598  17.424  1.6382  0.6187  0.7077
11532TIP3   OH256086   0.358   1.483  47.125  0.0581  0.1359  0.2188
11532TIP3    H156087   0.340   1.465  47.217 -2.3714 -0.7476 -0.3380
11532TIP3    H256088   0.287   1.541  47.097 -0.1891 -0.8832 -1.4517
11533TIP3   OH256089   1.665   3.285   0.079 -0.2366 -0.4197 -0.2570
11533TIP3    H156090   1.682   3.208   0.025 -0.8056 -1.1869  0.6401
11533TIP3    H256091   1.603   3.255   0.146 -0.5034  0.8232  0.0857
11534TIP3   OH256092   1.614   2.565  21.282 -0.1385 -0.8347 -0.1495
11534TIP3    H156093   1.635   2.488  21.335  0.6136 -0.8845 -0.5038
11534TIP3    H256094   1.617   2.638  21.344 -0.5457 -1.0457  0.1253
11535TIP3   OH256095   1.498   0.783  15.180 -0.6100 -0.5125 -0.1558
11535TIP3    H156096   1.454   0.769  15.096 -0.4764  5.9872 -1.8162
11535TIP3    H256097   1.426   0.791  15.243 -1.0078 -1.2883 -0.5043
11536TIP3   OH256098   0.074   1.516  47.236 -0.4307  0.5822 -0.4601
11536TIP3    H156099   0.006   1.579  47.213 -1.5210 -0.9175 -1.4558
11536TIP3    H256100   0.034   1.460  47.302  0.3244  0.4973 -0.0527
11537TIP3   OH256101   2.916   3.451  60.549  0.2097 -0.7326  0.3967
11537TIP3    H156102   2.985   3.491  60.495 -1.5576 -0.8276 -2.0808
11537TIP3    H256103   2.930   3.357  60.539 -1.1237 -0.7967 -1.4427
11538TIP3   OH256104   0.271   0.634   5.067  0.1041 -0.0068 -0.4976
11538TIP3    H156105   0.194   0.690   5.067 -0.3148 -0.5673  0.0172
11538TIP3    H256106   0.313   0.651   4.983 -0.4163  0.5237 -0.6570
11539TIP3   OH256107   2.099   2.555  18.164  0.0909 -0.0531 -0.2936
11539TIP3    H156108   2.161   2.489  18.133 -0.9032 -0.9822 -0.3620
11539TIP3    H256109   2.127   2.636  18.122  2.4868  0.0138  1.2550
11540TIP3   OH256110   1.603   1.511  14.804  0.1090 -0.1531 -0.1266
11540TIP3    H156111   1.619   1.560  14.885  1.4190  0.3119 -0.6423
11540TIP3    H256112   1.588   1.579  14.738  0.0112 -0.5024 -0.4681
11541TIP3   OH256113   3.273   1.765  51.083  0.4413  0.2836 -0.1649
11541TIP3    H156114   3.262   1.705  51.009 -0.0704  1.4493 -1.0583
11541TIP3    H256115   3.232   1.846  51.054  1.4838  1.2018  0.8759
11542TIP3   OH256116   1.736   1.766  17.174 -0.3978 -0.1189 -0.7205
11542TIP3    H156117   1.715   1.832  17.108  0.7276  0.8005 -0.2097
11542TIP3    H256118   1.820   1.795  17.211 -1.1645 -0.3599  1.3776
11543TIP3   OH256119   1.147   1.968   6.391  0.8296  0.0821 -0.1639
11543TIP3    H156120   1.057   1.993   6.370  0.1594 -2.1316 -0.1760
11543TIP3    H256121   1.197   1.990   6.312  0.1810  0.7486 -0.3947
11544TIP3   OH256122   0.690   1.838  52.548 -0.8503  0.4161 -0.0129
11544TIP3    H156123   0.672   1.744  52.540 -2.1283  0.7506 -1.5185
11544TIP3    H256124   0.784   1.843  52.564 -0.6916 -1.1047 -0.3035
11545TIP3   OH256125   1.064   1.687  34.787 -0.3488  0.8660  0.1756
11545TIP3    H156126   1.096   1.777  34.786 -0.9319  1.1088  1.6144
11545TIP3    H256127   1.014   1.680  34.868  2.1416 -1.6018  1.6664
11546TIP3   OH256128   3.017   1.781  54.000 -0.3002  0.1636 -0.2584
11546TIP3    H156129   2.999   1.800  54.092 -0.6841 -1.4184  0.0200
11546TIP3    H256130   3.081   1.847  53.974  0.4678  0.1103  1.3893
11547TIP3   OH256131   0.009   0.944  58.751 -1.4959 -0.0442  0.0325
11547TIP3    H156132  -0.052   0.955  58.678 -2.1684 -0.5603  0.4952
11547TIP3    H256133   0.051   0.860  58.735  0.1263  0.9032 -0.9993
11548TIP3   OH256134   0.561   0.419  46.698 -0.2851  0.3560 -0.1275
11548TIP3    H156135   0.574   0.510  46.671 -1.3036 -0.1997 -2.7340
11548TIP3    H256136   0.566   0.422  46.794  2.3081  2.6943 -0.2031
11549TIP3   OH256137   3.344   2.548  10.957 -0.3700 -0.6529 -0.0278
11549TIP3    H156138   3.373   2.512  10.874  1.2375  0.6908 -0.1128
11549TIP3    H256139   3.396   2.628  10.968 -1.8515  0.1802  1.3989
11550TIP3   OH256140   2.111   0.176   2.203  0.3404 -0.3114 -0.0277
11550TIP3    H156141   2.083   0.216   2.286 -0.4745 -0.0449 -0.4302
11550TIP3    H256142   2.095   0.083   2.214  0.0997 -0.2593  0.0585
11551TIP3   OH256143   1.479   2.000  10.502 -0.2518  0.1653 -0.5212
11551TIP3    H156144   1.492   1.995  10.596  2.0761 -0.8429 -0.8362
11551TIP3    H256145   1.519   2.084  10.477 -0.4231  0.1994 -0.6874
11552TIP3   OH256146   2.579   0.483   2.245 -0.3484 -0.1610  0.0546
11552TIP3    H156147   2.487   0.466   2.227 -0.4070 -0.1497  0.3332
11552TIP3    H256148   2.607   0.541   2.174 -0.5954 -0.0458  0.0488
11553TIP3   OH256149   2.124   1.385  12.812  0.1792  0.6086  0.0518
11553TIP3    H156150   2.068   1.385  12.735  0.1795 -0.8162  0.0131
11553TIP3    H256151   2.101   1.304  12.858  0.3519  1.3005  1.4228
11554TIP3   OH256152   2.514   2.324   5.031  0.5214 -0.2755  0.2007
11554TIP3    H156153   2.473   2.315   5.117  1.0261 -0.7857  0.3994
11554TIP3    H256154   2.490   2.244   4.984 -2.2476  1.2754 -1.2630
11555TIP3   OH256155   3.012   2.391  43.592 -0.6757  0.0838  0.3044
11555TIP3    H156156   2.997   2.436  43.675  1.1995 -0.1039  0.7859
11555TIP3    H256157   3.015   2.461  43.527  0.6853  0.5632  0.8355
11556TIP3   OH256158   1.031   0.052  13.050  0.2165 -0.1808 -0.1476
11556TIP3    H156159   1.056  -0.036  13.079 -0.0385 -0.4306 -0.6849
11556TIP3    H256160   0.943   0.064  13.087  0.3732 -0.0322  0.1790
11557TIP3   OH256161   1.661   0.208  59.924 -0.1681 -0.0126 -0.1505
11557TIP3    H156162   1.595   0.173  59.864  0.2668  1.6676 -1.7078
11557TIP3    H256163   1.622   0.288  59.959 -0.4677 -1.0304  2.0126
11558TIP3   OH256164   0.788   1.729  52.032 -0.1663  0.2826  0.0614
11558TIP3    H156165   0.803   1.665  51.963 -1.1843 -0.5347  0.5575
11558TIP3    H256166   0.713   1.695  52.081 -0.2416  1.4567  0.8295
11559TIP3   OH256167   0.576   1.333   6.215 -0.1372 -0.0784 -0.0351
11559TIP3    H156168   0.556   1.338   6.122 -0.3242  0.4540  0.0269
11559TIP3    H256169   0.609   1.420   6.237  0.9210 -0.5164  0.1689
11560TIP3   OH256170   2.934   0.648  16.679  0.8044  0.4951  0.6105
11560TIP3    H156171   3.028   0.665  16.672  0.3100  3.1191 -2.9863
11560TIP3    H256172   2.910   0.611  16.594 -1.7785  2.8651  0.1617
11561TIP3   OH256173   2.981   1.713   9.357  0.2002 -0.6290  0.1902
11561TIP3    H156174   3.057   1.664   9.327 -0.2486 -1.5154  0.4710
11561TIP3    H256175   2.937   1.654   9.418  0.0193  0.3822  1.0761
11562TIP3   OH256176   2.096   0.950  27.314  0.0319 -0.3548 -0.1475
11562TIP3    H156177   2.076   1.042  27.327 -0.6171  0.0877 -3.3287
11562TIP3    H256178   2.020   0.903  27.347 -1.7859  0.6383 -2.6660
11563TIP3   OH256179   2.574   3.288   6.571 -0.9144  0.0253 -0.5298
11563TIP3    H156180   2.575   3.298   6.666 -0.9241 -0.5291 -0.4647
11563TIP3    H256181   2.561   3.194   6.557  1.1676 -0.2247 -1.0585
11564TIP3   OH256182   3.031   3.364  44.250 -0.6271 -0.3740 -0.5843
11564TIP3    H156183   3.063   3.276  44.233  2.7263  1.2026 -3.6348
11564TIP3    H256184   3.095   3.402  44.309 -0.2963  0.9129 -1.7210
11565TIP3   OH256185   2.844   2.533  63.725 -0.2618 -0.0219  0.1758
11565TIP3    H156186   2.915   2.593  63.747 -0.6975  0.2132  0.9605
11565TIP3    H256187   2.844   2.530  63.629 -1.5278  2.8039 -0.0094
11566TIP3   OH256188   1.096   1.287  10.539 -0.0855  0.7408 -0.1167
11566TIP3    H156189   1.154   1.335  10.480  0.5319  0.8461  0.5564
11566TIP3    H256190   1.155   1.247  10.603 -0.6494 -0.3465 -0.2548
11567TIP3   OH256191   2.355   2.996  62.069  0.1507  0.1288  0.4422
11567TIP3    H156192   2.447   2.988  62.044  0.5864  0.5716  1.7977
11567TIP3    H256193   2.331   3.086  62.044  0.6847  0.6883  1.8351
11568TIP3   OH256194   1.604   0.056  12.365  0.0114  0.2811 -0.6436
11568TIP3    H156195   1.605  -0.039  12.359  0.8827  0.1928  0.5971
11568TIP3    H256196   1.689   0.083  12.330 -0.0150  0.5635 -0.4957
11569TIP3   OH256197   2.733   0.045  30.730  0.6193 -0.4070  0.4042
11569TIP3    H156198   2.759   0.137  30.723  1.2539 -0.6165 -0.0764
11569TIP3    H256199   2.780   0.012  30.807 -0.2771 -0.1138  1.0876
11570TIP3   OH256200   0.017   1.724   9.503  0.3523  0.4935 -0.0773
11570TIP3    H156201   0.018   1.689   9.414  0.2184 -1.7756  0.7617
11570TIP3    H256202   0.109   1.726   9.530  0.4607  1.8393 -0.4733
11571TIP3   OH256203   0.657   2.174  59.968 -0.1099 -0.1908  0.1073
11571TIP3    H156204   0.586   2.110  59.981 -1.9919  1.7019 -0.3348
11571TIP3    H256205   0.647   2.236  60.039  0.1970  0.8942 -0.7682
11572TIP3   OH256206   1.359   3.155   1.475 -0.3755 -0.0788  0.2670
11572TIP3    H156207   1.342   3.181   1.566  1.5059 -0.2577  0.7164
11572TIP3    H256208   1.436   3.207   1.450  0.2386 -1.3629 -0.5966
11573TIP3   OH256209   2.356   0.776  15.696  0.2517 -0.8997  0.3976
11573TIP3    H156210   2.344   0.864  15.661 -0.3223 -1.3414 -0.5681
11573TIP3    H256211   2.445   0.775  15.730  0.6656 -0.2934 -0.6273
11574TIP3   OH256212   0.192   1.806  44.705  0.1249 -0.0908 -0.1753
11574TIP3    H156213   0.275   1.811  44.658 -0.4111 -1.0077 -1.2744
11574TIP3    H256214   0.126   1.795  44.637 -0.9335  0.7995  0.6641
11575TIP3   OH256215   3.323   2.851   8.081 -0.5251 -0.0766 -0.0699
11575TIP3    H156216   3.370   2.823   8.160 -1.1627 -1.7611 -0.2626
11575TIP3    H256217   3.379   2.822   8.009 -1.0098 -0.5100 -0.2728
11576TIP3   OH256218   1.502   0.777  35.502 -0.0777  0.4243 -0.4612
11576TIP3    H156219   1.415   0.813  35.517  0.6217  1.6301  0.9652
11576TIP3    H256220   1.555   0.852  35.473  0.7410 -0.0532 -0.2455
11577TIP3   OH256221   1.649   2.410  13.861 -0.3598 -0.1884  0.3205
11577TIP3    H156222   1.627   2.359  13.783  0.5233 -2.7182  1.6065
11577TIP3    H256223   1.567   2.418  13.910 -1.0778  2.0190 -1.0805
11578TIP3   OH256224   0.153   2.710   4.311 -0.0995 -0.5416  0.1569
11578TIP3    H156225   0.086   2.663   4.263 -1.8655 -0.0647  1.9974
11578TIP3    H256226   0.108   2.788   4.345  1.7854  0.5770  0.2239
11579TIP3   OH256227   2.965   1.191   2.182  0.2282  0.0137 -0.0527
11579TIP3    H156228   2.992   1.258   2.119  0.7452 -0.8503 -0.7725
11579TIP3    H256229   2.959   1.110   2.131 -0.9183 -0.3916  0.6898
11580TIP3   OH256230   2.949   0.137  42.422  0.0123  0.2639 -0.1481
11580TIP3    H156231   2.880   0.111  42.483  0.7874 -2.5781 -0.3656
11580TIP3    H256232   2.902   0.178  42.349 -1.2953 -0.2146  0.4070
11581TIP3   OH256233   0.232   2.740  49.855  0.6222  0.4607  0.2829
11581TIP3    H156234   0.303   2.700  49.804 -0.6645 -0.4602 -0.8405
11581TIP3    H256235   0.197   2.668  49.907 -1.0118  0.3282 -0.9445
11582TIP3   OH256236   1.064   0.258  22.388 -0.5701 -0.2939  0.0658
11582TIP3    H156237   1.069   0.186  22.326 -0.1011 -1.2097  1.1221
11582TIP3    H256238   0.990   0.311  22.359  0.5699  0.1840 -2.1450
11583TIP3   OH256239   2.535   2.762   1.021  0.0585  0.2595 -0.2749
11583TIP3    H156240   2.584   2.704   1.080 -1.4719 -0.6245  0.1727
11583TIP3    H256241   2.576   2.847   1.033 -1.5380  0.6756  3.8218
11584TIP3   OH256242   2.710   2.203   0.334 -0.6005  0.6201 -0.5062
11584TIP3    H156243   2.793   2.246   0.312  0.6080 -0.2096  2.0413
11584TIP3    H256244   2.658   2.210   0.254  1.0568  3.1247 -1.4988
11585TIP3   OH256245   1.249   1.198   9.987  0.3641  0.3888  0.1167
11585TIP3    H156246   1.188   1.126   9.970 -0.2279  1.1351 -1.0353
11585TIP3    H256247   1.304   1.166  10.059 -2.5904  0.3539  2.6193
11586TIP3   OH256248   3.129   2.048  50.129  0.1854  0.2222  0.4333
11586TIP3    H156249   3.135   2.042  50.224 -0.1736 -0.8151  0.4033
11586TIP3    H256250   3.216   2.078  50.101  0.6581 -0.5556  1.0198
11587TIP3   OH256251   0.425   1.246  58.489  0.3714  0.3092 -0.0445
11587TIP3    H156252   0.359   1.192  58.533  0.7544  1.5755  2.2962
11587TIP3    H256253   0.377   1.290  58.419 -0.3073 -1.7455 -0.9743
11588TIP3   OH256254   3.113   1.945  50.661 -0.9981  0.1675  0.6428
11588TIP3    H156255   3.201   1.930  50.696 -0.5832  0.9420 -0.0117
11588TIP3    H256256   3.127   2.006  50.588 -2.2199  1.3649  1.3678
11589TIP3   OH256257   1.402   2.995  66.853  0.1368  0.2388 -0.4221
11589TIP3    H156258   1.363   3.047  66.782  0.7366 -0.2837 -1.1617
11589TIP3    H256259   1.464   2.937  66.808  1.1138  0.4380  0.6078
11590TIP3   OH256260   0.501   0.876  14.854 -0.3489 -0.2801 -0.2574
11590TIP3    H156261   0.450   0.863  14.934 -0.6801 -0.0967 -0.4348
11590TIP3    H256262   0.479   0.800  14.800 -0.1418 -0.3931 -0.1826
11591TIP3   OH256263   1.300   2.604  47.259  0.0334  0.6338 -0.0367
11591TIP3    H156264   1.257   2.599  47.345 -0.6568 -1.3720 -0.4574
11591TIP3    H256265   1.324   2.696  47.250  2.0504  0.5970  3.2467
11592TIP3   OH256266   2.158   3.132  18.624  0.0293  0.1588 -0.6531
11592TIP3    H156267   2.128   3.041  18.616  0.3254  0.0448 -0.5090
11592TIP3    H256268   2.092   3.183  18.579  0.7949 -0.2972 -2.3712
11593TIP3   OH256269   0.833   1.668   9.991 -0.0737  0.0701  0.0138
11593TIP3    H156270   0.877   1.706  10.067 -0.5329  2.7742 -0.9508
11593TIP3    H256271   0.764   1.613  10.028 -0.2190  1.2301  1.5574
11594TIP3   OH256272   3.233   2.561  47.931 -0.8096 -0.0514 -0.0580
11594TIP3    H156273   3.224   2.633  47.994 -0.4074  0.0174 -0.0750
11594TIP3    H256274   3.221   2.603  47.846 -0.5088  0.0120 -0.0714
11595TIP3   OH256275   1.114   0.950  63.203 -0.1161  0.1794  0.0959
11595TIP3    H156276   1.022   0.970  63.189 -0.0246  0.8670  0.4510
11595TIP3    H256277   1.140   0.898  63.127 -0.7354  0.1749 -0.1085
11596TIP3   OH256278   3.231   2.490   3.965 -0.1228 -0.3510 -0.2797
11596TIP3    H156279   3.150   2.468   4.011  0.9306 -1.9465  0.9190
11596TIP3    H256280   3.251   2.412   3.914  1.8758 -0.9540  1.2998
11597TIP3   OH256281   2.457   3.450  22.500  0.4340 -0.0640  0.4125
11597TIP3    H156282   2.505   3.374  22.469 -0.1665 -0.4736  0.4675
11597TIP3    H256283   2.365   3.426  22.490  0.2341  0.6928  0.3279
11598TIP3   OH256284   0.719   3.388  60.101 -0.0742 -0.3557  0.0587
11598TIP3    H156285   0.812   3.386  60.125  0.4941  2.0877 -1.6230
11598TIP3    H256286   0.708   3.312  60.044  1.3253  0.2149 -1.0254
11599TIP3   OH256287   2.773   0.147  18.910  0.1147  0.3312 -0.1537
11599TIP3    H156288   2.784   0.170  19.002  1.0970  1.0478 -0.4301
11599TIP3    H256289   2.779   0.230  18.864 -2.3223  0.2343 -0.7480
11600TIP3   OH256290   0.979   1.824  63.788 -0.3874 -0.3123 -0.4738
11600TIP3    H156291   1.018   1.819  63.701 -1.1916  1.3394 -0.9830
11600TIP3    H256292   1.015   1.750  63.836 -1.2400 -2.2993 -2.7335
11601TIP3   OH256293   0.700   0.880   2.402 -0.3202  0.1571  0.7508
11601TIP3    H156294   0.671   0.971   2.387  0.3016  0.4644  1.3640
11601TIP3    H256295   0.768   0.866   2.337 -2.2148 -0.7924 -1.1489
11602TIP3   OH256296   1.278   2.382  50.850 -0.5546  0.1513 -0.2186
11602TIP3    H156297   1.206   2.321  50.863 -1.2661  0.8953 -0.5716
11602TIP3    H256298   1.300   2.413  50.938 -1.0644  0.3679 -0.1675
11603TIP3   OH256299   1.397   2.769  37.574  0.8216 -0.4644  0.1299
11603TIP3    H156300   1.402   2.816  37.490 -0.1406  0.7109  0.7032
11603TIP3    H256301   1.304   2.755  37.588  0.9986 -0.9773  0.8459
11604TIP3   OH256302   2.406   0.373   7.271 -0.0069  0.4732 -0.2763
11604TIP3    H156303   2.323   0.411   7.242  0.2353  0.1945 -1.3574
11604TIP3    H256304   2.402   0.378   7.367 -0.5216  2.0601 -0.3575
11605TIP3   OH256305   2.955   0.846   3.583  0.6834  0.1228 -0.4100
11605TIP3    H156306   2.958   0.841   3.678 -1.0375  0.5524 -0.2965
11605TIP3    H256307   3.014   0.918   3.561 -0.6669  1.5923  0.5495
11606TIP3   OH256308   0.139   0.389   6.800 -0.0985  0.0008  0.3605
11606TIP3    H156309   0.187   0.323   6.849 -1.0028 -0.6726  0.3588
11606TIP3    H256310   0.048   0.358   6.800  0.0027 -0.6456 -2.6843
11607TIP3   OH256311   1.879   1.934   3.410 -0.2994  0.3640  0.1501
11607TIP3    H156312   1.818   2.005   3.390 -0.4578 -0.3366 -2.1587
11607TIP3    H256313   1.922   1.916   3.326  1.9471 -0.2301  1.3696
11608TIP3   OH256314   0.033   0.884  54.340  0.0429  0.2333  0.0126
11608TIP3    H156315  -0.027   0.860  54.269 -0.0458  1.3642 -0.3237
11608TIP3    H256316   0.120   0.863  54.306 -0.1393 -1.5529  0.5617
11609TIP3   OH256317   3.062   0.597  51.210 -0.0121 -0.8504  0.1210
11609TIP3    H156318   3.007   0.668  51.241  1.1452 -0.5154  1.5221
11609TIP3    H256319   3.033   0.581  51.120 -0.8889  0.7641  0.0895
11610TIP3   OH256320   0.594   1.573  67.293 -0.5098  0.2866 -0.1950
11610TIP3    H156321   0.626   1.483  67.300 -0.3159  0.4755  1.6405
11610TIP3    H256322   0.611   1.596  67.201  1.0121 -0.9676 -0.2836
11611TIP3   OH256323   3.424   1.490  48.736  0.0474  0.2335 -0.1527
11611TIP3    H156324   3.379   1.533  48.663  1.0267 -0.0541 -0.9438
11611TIP3    H256325   3.511   1.470  48.703  0.1048 -1.0323  0.6882
11612TIP3   OH256326   2.924   1.490  56.074  0.0082  0.2334 -0.4531
11612TIP3    H156327   3.019   1.492  56.062  0.1971  0.8068  0.9421
11612TIP3    H256328   2.896   1.410  56.030  1.0081  0.5150 -1.6798
11613TIP3   OH256329   0.763   2.691  10.476  0.2960 -0.0909  0.6230
11613TIP3    H156330   0.817   2.766  10.499  0.5603 -0.1370  0.1684
11613TIP3    H256331   0.703   2.725  10.410  0.0619 -0.1493  0.8047
11614TIP3   OH256332   3.098   0.292  58.108 -0.2561 -0.2785 -0.7262
11614TIP3    H156333   3.178   0.331  58.072  0.0339 -0.4565 -0.2763
11614TIP3    H256334   3.098   0.202  58.075 -0.4244 -0.1904 -0.9709
11615TIP3   OH256335   1.192   1.104  58.826 -1.0695  0.2287 -0.2564
11615TIP3    H156336   1.277   1.121  58.785 -0.8050 -0.2711  0.0723
11615TIP3    H256337   1.138   1.179  58.801 -0.4748  0.6449 -0.3252
11616TIP3   OH256338   0.184   1.703  59.632 -0.0847  0.2770  0.7768
11616TIP3    H156339   0.238   1.779  59.611  0.1657 -0.3752 -1.1214
11616TIP3    H256340   0.240   1.649  59.688 -0.2905  1.4714  2.1994
11617TIP3   OH256341   2.742   2.753  16.687  0.2395 -0.0203 -0.0560
11617TIP3    H156342   2.703   2.755  16.774  0.8761 -0.6764  0.2581
11617TIP3    H256343   2.719   2.666  16.652 -0.9129  0.6285 -0.9791
11618TIP3   OH256344   2.315   1.133  51.709 -0.4661  0.0323 -0.0285
11618TIP3    H156345   2.296   1.049  51.752 -0.2754  0.0456  0.0841
11618TIP3    H256346   2.242   1.146  51.649 -1.0605  0.3219  0.7443
11619TIP3   OH256347   2.695   1.394  64.308 -0.1563 -0.1813  0.1463
11619TIP3    H156348   2.694   1.411  64.214  0.0526 -0.0555  0.1625
11619TIP3    H256349   2.784   1.364  64.326 -0.3016 -0.5595  0.2396
11620TIP3   OH256350   1.891   1.580  17.886 -0.5641  0.6315 -0.4152
11620TIP3    H156351   1.828   1.652  17.890 -0.2550  0.8249  2.2549
11620TIP3    H256352   1.973   1.622  17.860 -1.0582  0.6467 -2.1337
11621TIP3   OH256353   1.367   0.101  14.062  0.2982 -0.3790 -0.8854
11621TIP3    H156354   1.375   0.007  14.078 -0.8430 -0.3325  0.1162
11621TIP3    H256355   1.403   0.142  14.141  1.0916  0.0570 -1.4503
11622TIP3   OH256356   2.952   2.733  45.558 -0.1767  0.1314  0.0207
11622TIP3    H156357   2.895   2.738  45.482 -1.3024 -1.8254  0.6676
11622TIP3    H256358   2.949   2.641  45.585  1.8951  0.3207  1.1618
11623TIP3   OH256359   1.454   1.925  61.821  0.0201  0.3039  0.2644
11623TIP3    H156360   1.451   1.995  61.755  0.7299  0.3105  0.2376
11623TIP3    H256361   1.546   1.901  61.827 -0.1257 -0.1479  0.7908
11624TIP3   OH256362   0.893   2.014  20.160  0.4720 -0.5638  0.5402
11624TIP3    H156363   0.972   2.012  20.105 -0.6266  1.9798 -1.3233
11624TIP3    H256364   0.821   2.024  20.098 -1.4536 -3.1454  2.1571
11625TIP3   OH256365   1.450   2.553  47.715 -0.1264  0.1698  0.1458
11625TIP3    H156366   1.419   2.643  47.728  0.6555  0.3875  0.5315
11625TIP3    H256367   1.456   2.543  47.620  1.8345  1.2596  0.1014
11626TIP3   OH256368   3.283   1.181  56.308  0.0834 -0.1746 -0.6092
11626TIP3    H156369   3.352   1.214  56.251  1.0340 -2.3270 -0.8223
11626TIP3    H256370   3.270   1.091  56.280 -4.1607  0.5887 -1.7603
11627TIP3   OH256371   0.682   1.310   7.080  0.0060 -0.4997 -0.4127
11627TIP3    H156372   0.720   1.336   7.164 -2.4388 -0.2599  0.7039
11627TIP3    H256373   0.636   1.388   7.049  0.1689 -0.8430 -1.5606
11628TIP3   OH256374   1.623   0.383  16.867  0.1189  0.1077  0.4044
11628TIP3    H156375   1.651   0.416  16.782 -0.9755 -0.9923 -0.4241
11628TIP3    H256376   1.610   0.461  16.920 -1.8066  1.0216 -1.2889
11629TIP3   OH256377   2.341   1.510  14.933  0.2003 -0.4583 -0.4065
11629TIP3    H156378   2.418   1.457  14.913  1.2060  1.5290 -2.0867
11629TIP3    H256379   2.328   1.498  15.028  1.6358 -2.0012 -0.3526
11630TIP3   OH256380   0.054   0.743  30.873  0.6454 -0.4921 -0.7615
11630TIP3    H156381   0.138   0.716  30.911  0.6594  0.0323 -0.4099
11630TIP3    H256382   0.052   0.838  30.885 -0.4209 -0.6025  0.1014
11631TIP3   OH256383   2.026   0.736  53.212  0.4652  0.2312 -0.2274
11631TIP3    H156384   2.087   0.733  53.286 -0.7581  0.7826  0.8539
11631TIP3    H256385   1.946   0.772  53.250 -0.7392 -1.0806 -1.4456
11632TIP3   OH256386   0.974   0.747  12.146  0.0616  0.0079 -0.1931
11632TIP3    H156387   0.934   0.702  12.072  1.2883 -0.6783 -0.4746
11632TIP3    H256388   1.024   0.818  12.106 -0.9761  0.9633  0.1655
11633TIP3   OH256389   1.718   1.759  56.422 -0.2849  0.3084 -0.4866
11633TIP3    H156390   1.717   1.669  56.454  0.8885  0.8066  1.0739
11633TIP3    H256391   1.743   1.752  56.330  1.7042 -0.8865  0.0844
11634TIP3   OH256392   3.247   1.603   8.789  0.1566 -0.3637  0.0689
11634TIP3    H156393   3.156   1.572   8.786 -0.0019 -0.0032  0.8245
11634TIP3    H256394   3.291   1.556   8.718 -0.9523  0.5178 -1.2749
11635TIP3   OH256395   1.964   2.715  63.741 -0.2055  0.1671 -0.1884
11635TIP3    H156396   1.875   2.738  63.713  0.2205  1.8276 -0.3127
11635TIP3    H256397   1.961   2.721  63.837 -0.1404  0.6355 -0.2116
11636TIP3   OH256398   2.894   1.479   0.577  0.3650 -0.0821 -0.5199
11636TIP3    H156399   2.869   1.442   0.492  1.0967  0.3581 -0.9394
11636TIP3    H256400   2.870   1.411   0.640 -1.7380  0.2492 -0.8797
11637TIP3   OH256401   0.431   2.876   3.383 -0.0491 -0.3201  0.1128
11637TIP3    H156402   0.428   2.968   3.356 -1.1426  0.3863  2.4165
11637TIP3    H256403   0.340   2.848   3.382  0.3371 -1.6389 -1.2304
11638TIP3   OH256404   2.071   1.669   7.936 -0.1742 -0.4863  0.7641
11638TIP3    H156405   2.032   1.754   7.955 -0.8687 -0.6218 -0.0144
11638TIP3    H256406   2.075   1.625   8.022 -0.6081 -0.0022  1.0392
11639TIP3   OH256407   1.268   2.635  45.710 -0.1003 -0.3660 -0.1729
11639TIP3    H156408   1.352   2.679  45.698  0.3216 -0.8365  0.9226
11639TIP3    H256409   1.206   2.705  45.729  0.1809 -0.0782 -0.3085
11640TIP3   OH256410   1.034   0.879  44.661  0.7761 -0.2414  0.0179
11640TIP3    H156411   1.115   0.899  44.709  0.4759 -1.2529  0.9855
11640TIP3    H256412   0.987   0.963  44.658  2.1300  0.5206 -1.1557
11641TIP3   OH256413   0.317   2.267  61.910 -0.4571  0.6060  0.1424
11641TIP3    H156414   0.402   2.265  61.953 -0.2735 -1.1802 -0.2352
11641TIP3    H256415   0.259   2.310  61.973  0.2691 -0.0674  1.2937
11642TIP3   OH256416   1.378   2.317  48.859 -0.0858 -0.3325  0.2691
11642TIP3    H156417   1.344   2.274  48.781  1.4316 -0.1118 -0.5542
11642TIP3    H256418   1.323   2.285  48.930 -0.1583 -2.2284 -0.5829
11643TIP3   OH256419   2.344   1.332  22.068 -0.5589  0.2590  0.7177
11643TIP3    H156420   2.288   1.273  22.118 -0.1879 -2.5978 -1.9353
11643TIP3    H256421   2.431   1.294  22.075 -0.8125 -1.9210 -3.8105
11644TIP3   OH256422   3.157   2.833  53.836 -0.9513  0.1850 -0.3635
11644TIP3    H156423   3.238   2.847  53.789 -0.8026 -2.4504 -1.0373
11644TIP3    H256424   3.099   2.904  53.807  0.8575  1.7505 -0.3168
11645TIP3   OH256425   0.366   1.137   0.483  0.3966  0.3381 -0.0399
11645TIP3    H156426   0.292   1.095   0.527  0.1471  0.0362 -0.7352
11645TIP3    H256427   0.434   1.143   0.550 -0.4051  1.0161  0.7244
11646TIP3   OH256428   1.841   3.017  62.892  0.0976  0.4380  0.7211
11646TIP3    H156429   1.817   3.099  62.848 -1.5073 -1.4240 -2.1928
11646TIP3    H256430   1.761   2.989  62.935  0.7446  0.5063  2.0291
11647TIP3   OH256431   1.928   2.425   1.098 -0.0507 -0.2824 -0.0628
11647TIP3    H156432   1.953   2.355   1.158  0.8305  0.6419  0.6807
11647TIP3    H256433   1.835   2.437   1.112  0.0741 -0.3442  0.8421
11648TIP3   OH256434   1.617   2.106  14.328  0.2470 -0.1844 -0.5094
11648TIP3    H156435   1.671   2.033  14.358  0.0272  0.2703  1.1026
11648TIP3    H256436   1.659   2.184  14.366 -0.9655  0.2673 -0.0290
11649TIP3   OH256437   1.397   1.157   8.360  0.2970 -0.0899  0.1043
11649TIP3    H156438   1.340   1.217   8.410  1.9142  0.0623  1.8844
11649TIP3    H256439   1.478   1.207   8.347  0.5843 -0.8401 -1.0599
11650TIP3   OH256440   0.251   0.170  56.706  0.0802 -0.1502 -0.0265
11650TIP3    H156441   0.277   0.117  56.630 -0.4014  0.8678 -0.9405
11650TIP3    H256442   0.328   0.222  56.727  1.0278 -2.0986  1.7487
11651TIP3   OH256443   3.188   2.167  12.889  0.5569  0.5456  0.3177
11651TIP3    H156444   3.247   2.193  12.960  1.6087  0.0390 -0.3468
11651TIP3    H256445   3.123   2.111  12.931  1.3178  0.0477  0.8444
11652TIP3   OH256446   0.097   2.184  45.570 -0.0783  0.1233 -0.3973
11652TIP3    H156447   0.100   2.092  45.543  1.0650  0.5322 -1.8272
11652TIP3    H256448   0.046   2.227  45.501  1.0392  0.8556 -0.7950
11653TIP3   OH256449   1.278   0.683  13.749 -0.4375  0.0797  0.4002
11653TIP3    H156450   1.290   0.589  13.758  1.7589  0.4294  1.7926
11653TIP3    H256451   1.352   0.713  13.697  0.1648  1.2877  1.8654
11654TIP3   OH256452   2.623   0.125  21.421 -0.0456 -0.3150  0.0129
11654TIP3    H156453   2.704   0.143  21.467 -0.7466  2.4134  0.3576
11654TIP3    H256454   2.591   0.043  21.459  2.4842 -1.4569 -0.1435
11655TIP3   OH256455   0.986   1.395  43.657  0.1605 -0.2346  0.2899
11655TIP3    H156456   1.008   1.311  43.615 -0.8616  0.0690 -0.9240
11655TIP3    H256457   0.999   1.460  43.588 -1.2903  0.3167  0.4952
11656TIP3   OH256458   3.439   0.178  62.734 -0.1142  0.2295 -0.0829
11656TIP3    H156459   3.349   0.170  62.766 -0.3890  2.4899 -0.1391
11656TIP3    H256460   3.469   0.262  62.768  1.7194 -0.1116 -0.7417
11657TIP3   OH256461   0.009   0.311   0.525 -0.1003 -0.0146  0.0848
11657TIP3    H156462   0.085   0.344   0.476 -1.8988  1.4274 -1.9459
11657TIP3    H256463   0.026   0.218   0.536  3.1807  0.6849  2.1454
11658TIP3   OH256464   2.949   3.398  46.825  0.1438 -0.2177 -0.6097
11658TIP3    H156465   2.907   3.380  46.909 -1.6543 -0.1425 -1.4436
11658TIP3    H256466   2.975   3.311  46.792 -1.3444 -0.5345 -1.0394
11659TIP3   OH256467   1.578   2.023   1.370 -0.4135  0.2435 -0.0862
11659TIP3    H156468   1.643   2.036   1.440 -0.3550 -0.8885  0.0953
11659TIP3    H256469   1.618   2.064   1.293  1.0740 -1.3899 -0.2584
11660TIP3   OH256470   0.901   0.545  42.290 -0.2473 -0.2497 -0.0418
11660TIP3    H156471   0.890   0.477  42.356 -1.0633 -0.3403 -0.2557
11660TIP3    H256472   0.817   0.547  42.244  0.6780 -0.9549 -1.8346
11661TIP3   OH256473   2.453   0.805  53.336  0.4179  0.0026  0.0543
11661TIP3    H156474   2.519   0.823  53.403 -0.3890  0.4413  0.7606
11661TIP3    H256475   2.489   0.733  53.285  0.2873 -1.6767  2.1466
11662TIP3   OH256476   0.118   2.906   3.729 -0.0581  0.4315  0.3892
11662TIP3    H156477   0.090   2.961   3.801 -2.3206  0.1711 -0.2163
11662TIP3    H256478   0.096   2.956   3.650  2.2071  0.6424 -0.2012
11663TIP3   OH256479   2.865   1.143  46.526 -0.0627  0.1901  0.1922
11663TIP3    H156480   2.832   1.213  46.583 -1.8455 -0.8852  0.5775
11663TIP3    H256481   2.894   1.188  46.447 -1.4298  1.3827  0.3130
11664TIP3   OH256482   3.360   1.291  65.611 -0.6427  0.1306  0.3786
11664TIP3    H156483   3.388   1.269  65.522  0.1388 -0.0089  0.6448
11664TIP3    H256484   3.292   1.357  65.599 -1.1652 -0.5085 -0.3516
11665TIP3   OH256485   1.636   2.752  43.310  0.0671  0.2035  0.1438
11665TIP3    H156486   1.606   2.829  43.358  0.7542  0.2737  0.4744
11665TIP3    H256487   1.699   2.787  43.247  1.3117 -0.2196  1.1204
11666TIP3   OH256488   2.264   0.942  64.853  0.4531 -0.1779 -0.0729
11666TIP3    H156489   2.173   0.969  64.841  0.1417 -1.4653 -0.8255
11666TIP3    H256490   2.315   1.005  64.802 -0.1699 -0.4684 -1.0750
11667TIP3   OH256491   2.838   3.281  56.483 -0.1144 -0.5173 -0.5431
11667TIP3    H156492   2.932   3.271  56.470  0.2632  0.8406  0.8615
11667TIP3    H256493   2.822   3.248  56.571 -0.6853  0.6540 -0.1900
11668TIP3   OH256494   3.013   2.265  45.094 -0.0268  0.9102  0.1898
11668TIP3    H156495   3.069   2.333  45.133  0.2428  0.9322 -0.2323
11668TIP3    H256496   3.054   2.183  45.119  1.2339  0.9397 -1.5935
11669TIP3   OH256497   0.824   2.660  66.086 -0.4278 -0.2462  0.1135
11669TIP3    H156498   0.894   2.670  66.021  0.5990 -0.5335  1.1276
11669TIP3    H256499   0.751   2.710  66.051  0.6250  0.8902 -0.5352
11670TIP3   OH256500   0.364   1.313  64.918  0.3144 -0.6008  0.7614
11670TIP3    H156501   0.308   1.325  64.994  0.4883  0.5104  0.7313
11670TIP3    H256502   0.451   1.341  64.947  0.2954  0.2510  0.0572
11671TIP3   OH256503   2.971   2.047  51.212 -0.0159  0.0931  0.1596
11671TIP3    H156504   3.037   2.062  51.144 -1.0596 -0.2875 -0.9849
11671TIP3    H256505   2.948   2.135  51.243  1.9866  0.1764  1.5771
11672TIP3   OH256506   0.334   1.393  45.123 -0.0381 -0.1967  0.0768
11672TIP3    H156507   0.395   1.332  45.164 -0.1228  0.6043  1.4241
11672TIP3    H256508   0.283   1.430  45.195 -0.1240  1.3172 -0.7073
11673TIP3   OH256509   0.815   2.852  47.869  0.3036 -0.0508 -0.3047
11673TIP3    H156510   0.901   2.815  47.887  1.0923  1.5708 -0.6003
11673TIP3    H256511   0.810   2.930  47.924  0.3885  1.7075 -2.6304
11674TIP3   OH256512   0.261   0.544   3.464 -0.2079 -0.0925  0.5373
11674TIP3    H156513   0.291   0.478   3.402 -1.3846 -0.7005  0.5863
11674TIP3    H256514   0.341   0.585   3.496  0.4608 -0.3662 -0.7227
11675TIP3   OH256515   0.909   1.520   8.588  0.3004 -0.5298 -0.3619
11675TIP3    H156516   0.817   1.512   8.613  0.6076 -1.9117  0.4236
11675TIP3    H256517   0.909   1.585   8.518 -0.8956  1.7499  1.6145
11676TIP3   OH256518   1.204   0.980  47.473  0.5632 -0.8264 -0.0297
11676TIP3    H156519   1.271   1.048  47.474 -0.9420  0.8187 -1.5161
11676TIP3    H256520   1.187   0.965  47.379 -0.8906 -1.3932  0.2889
11677TIP3   OH256521   1.557   3.214  53.760 -0.4455 -0.3263  0.1252
11677TIP3    H156522   1.528   3.294  53.805 -0.2595 -1.4075  2.2397
11677TIP3    H256523   1.506   3.214  53.679 -2.2696  0.6869  1.2007
11678TIP3   OH256524   0.386   0.780  61.441  0.2939  0.9512  0.1661
11678TIP3    H156525   0.436   0.709  61.481  1.0582  1.6770  0.5063
11678TIP3    H256526   0.304   0.738  61.414  0.7796 -0.0880  0.2466
11679TIP3   OH256527   2.519   2.811  42.331  0.1885 -1.0224 -0.3423
11679TIP3    H156528   2.562   2.890  42.299 -0.1398 -0.9012 -0.4921
11679TIP3    H256529   2.531   2.814  42.426 -1.7560  0.4044 -0.0770
11680TIP3   OH256530   2.590   1.801  64.659  0.0160  0.2916 -0.2359
11680TIP3    H156531   2.576   1.740  64.586  0.7348  0.8992 -0.9075
11680TIP3    H256532   2.613   1.746  64.733  1.5177 -0.2499 -1.0464
11681TIP3   OH256533   1.180   3.144  64.539  0.1599  0.6933 -0.0640
11681TIP3    H156534   1.214   3.231  64.520  1.9381 -0.2331 -1.4218
11681TIP3    H256535   1.219   3.087  64.473  0.3482 -1.4218  1.7318
11682TIP3   OH256536   1.269   2.523  50.082  0.1673  0.0784 -0.1310
11682TIP3    H156537   1.248   2.514  50.175 -2.0549  2.2365 -0.3369
11682TIP3    H256538   1.364   2.536  50.080  0.5284 -1.8744  1.6339
11683TIP3   OH256539   0.031   2.662   1.590  0.0664  0.0114  0.0440
11683TIP3    H156540   0.019   2.567   1.595  1.7221 -0.2511 -0.5013
11683TIP3    H256541  -0.054   2.695   1.560 -0.3885 -1.3366 -0.2374
11684TIP3   OH256542   3.366   0.195  14.209 -0.0935  0.2103 -0.1154
11684TIP3    H156543   3.454   0.225  14.186  1.1262 -2.5297  0.5769
11684TIP3    H256544   3.359   0.210  14.303  0.2211 -0.8579  0.0904
11685TIP3   OH256545   0.582   0.032  45.585 -0.2179  0.0438 -0.3640
11685TIP3    H156546   0.643   0.058  45.516 -1.8905  0.3928 -1.7658
11685TIP3    H256547   0.546   0.114  45.617 -1.8984 -0.2528 -1.4080
11686TIP3   OH256548   1.751   1.145  18.028 -0.7643  0.4996 -0.5739
11686TIP3    H156549   1.746   1.156  18.123 -1.1035  1.4275 -0.6902
11686TIP3    H256550   1.786   1.057  18.016  1.0569  1.0250  0.4339
11687TIP3   OH256551   0.787   2.515  57.665 -0.3627  0.4533  0.0339
11687TIP3    H156552   0.725   2.447  57.641  0.0601  0.4438 -1.1167
11687TIP3    H256553   0.829   2.483  57.744 -0.7665 -0.2328 -0.0187
11688TIP3   OH256554   3.031   0.547   9.056 -0.2559  0.3618  0.1008
11688TIP3    H156555   3.103   0.609   9.044  0.3352 -0.2882  0.2451
11688TIP3    H256556   3.068   0.477   9.109 -0.4974 -0.7988 -1.2141
11689TIP3   OH256557   2.619   1.246  45.660 -0.4584 -0.4960 -0.2859
11689TIP3    H156558   2.704   1.230  45.702  0.1182 -1.3570 -1.6943
11689TIP3    H256559   2.638   1.309  45.591 -1.0418 -0.3904 -0.3544
11690TIP3   OH256560   0.883   1.902  61.488 -0.2869 -0.4454  0.2831
11690TIP3    H156561   0.827   1.937  61.556  0.9629  0.5489  0.8476
11690TIP3    H256562   0.937   1.837  61.532  0.0990 -0.2401  0.1230
11691TIP3   OH256563   0.635   1.666   8.912  0.1658  0.3764 -0.0667
11691TIP3    H156564   0.658   1.644   9.002 -0.9135  1.2105  0.4348
11691TIP3    H256565   0.539   1.660   8.910  0.0957  1.4779 -0.8523
11692TIP3   OH256566   0.020   1.212  46.145  0.5887 -0.2482 -0.1342
11692TIP3    H156567   0.039   1.299  46.181  1.5996 -0.6996  0.4622
11692TIP3    H256568   0.089   1.198  46.080  0.2479 -0.4767 -0.4454
11693TIP3   OH256569   0.077   0.330  53.740 -0.0537 -0.2701 -0.5066
11693TIP3    H156570   0.125   0.248  53.752 -1.1444 -0.8753 -0.2019
11693TIP3    H256571   0.028   0.318  53.659 -0.1859  0.0967 -0.4829
11694TIP3   OH256572   2.452   2.765  10.096 -0.2674 -0.0847 -0.3609
11694TIP3    H156573   2.457   2.719  10.012 -1.0904 -1.0636  0.1029
11694TIP3    H256574   2.373   2.729  10.138  0.5819 -0.2204  1.1773
11695TIP3   OH256575   3.358   1.310  63.928 -0.2544 -0.3924 -0.2392
11695TIP3    H156576   3.289   1.359  63.972 -1.3087 -1.2791 -0.8794
11695TIP3    H256577   3.326   1.297  63.839  1.3542  0.4052 -0.9879
11696TIP3   OH256578   1.472   1.219  17.470  0.2690  0.2256 -0.1535
11696TIP3    H156579   1.517   1.292  17.426 -0.9911  1.9478  1.2545
11696TIP3    H256580   1.506   1.141  17.427  2.5502  1.5544 -0.9815
11697TIP3   OH256581   3.068   0.185  19.377 -0.1422 -0.1479 -0.4227
11697TIP3    H156582   2.974   0.189  19.397  0.1273  1.1276  0.6555
11697TIP3    H256583   3.078   0.237  19.298 -0.3648 -0.4994 -0.6884
11698TIP3   OH256584   0.901   0.232   0.344 -0.4910 -0.2020 -0.0348
11698TIP3    H156585   0.912   0.294   0.271 -1.1488  1.0229  0.8795
11698TIP3    H256586   0.869   0.286   0.416  0.8682 -1.2513  1.4114
11699TIP3   OH256587   2.274   0.188   1.537  0.0963  0.5734 -0.1138
11699TIP3    H156588   2.185   0.193   1.572 -0.2581  0.8860 -1.0165
11699TIP3    H256589   2.308   0.277   1.547  0.9155  0.0958  1.7088
11700TIP3   OH256590   2.093   2.917  17.015 -0.5624  1.0530 -0.3989
11700TIP3    H156591   2.092   2.931  16.921  1.2222  0.6231 -0.5193
11700TIP3    H256592   2.049   2.833  17.027 -0.2322  0.7953 -0.9335
11701TIP3   OH256593   1.409   0.166  35.129 -0.6258 -0.3385 -0.3645
11701TIP3    H156594   1.391   0.127  35.215 -1.0820 -0.1047 -0.3470
11701TIP3    H256595   1.498   0.139  35.108 -0.7076 -0.8509 -0.0624
11702TIP3   OH256596   1.235   2.492  60.148  0.2532 -0.5471  0.9483
11702TIP3    H156597   1.234   2.583  60.119  0.0782 -0.2594  1.8311
11702TIP3    H256598   1.325   2.463  60.133  0.2880 -0.2610  0.5823
11703TIP3   OH256599   1.437   1.380   6.645 -0.3773  0.4641 -0.1521
11703TIP3    H156600   1.368   1.425   6.693 -0.6378  0.2764 -0.3473
11703TIP3    H256601   1.466   1.310   6.703 -0.7697  0.1673 -0.3133
11704TIP3   OH256602   1.627   0.192  36.323 -1.3846 -0.2234  0.1844
11704TIP3    H156603   1.636   0.223  36.233 -0.4654  2.5228  1.1027
11704TIP3    H256604   1.717   0.187  36.356 -1.7442 -0.2159  1.2116
11705TIP3   OH256605   3.414   0.575  14.665  0.5603 -0.0986  0.0226
11705TIP3    H156606   3.445   0.488  14.687  0.0098 -0.6838 -1.4192
11705TIP3    H256607   3.334   0.560  14.614 -2.0220  1.2931  3.2756
11706TIP3   OH256608   1.697   1.842  61.744  0.8676  0.2534  0.1602
11706TIP3    H156609   1.776   1.887  61.716  1.7006 -1.5558 -0.5508
11706TIP3    H256610   1.719   1.749  61.738 -2.1129 -0.4707 -2.7232
11707TIP3   OH256611   1.176   0.164  64.743  0.2009 -0.4594 -0.1340
11707TIP3    H156612   1.267   0.148  64.718  0.1258 -1.3253  0.1112
11707TIP3    H256613   1.174   0.256  64.769  1.2061 -0.6465  0.6763
11708TIP3   OH256614   2.200   3.239  56.294  0.0349  0.2246  0.5599
11708TIP3    H156615   2.261   3.168  56.315 -0.1820  0.2833  1.4250
11708TIP3    H256616   2.254   3.318  56.300 -0.0165  0.2380  0.8947
11709TIP3   OH256617   2.359   0.216  42.502  0.3459  0.2562  0.0532
11709TIP3    H156618   2.375   0.197  42.410 -1.4240 -0.3640 -0.1528
11709TIP3    H256619   2.273   0.178  42.520 -0.0260  1.7054  1.5631
11710TIP3   OH256620   0.641   1.622  19.865  0.2246 -0.6256 -0.2910
11710TIP3    H156621   0.624   1.640  19.773  0.6811  1.0549 -0.0886
11710TIP3    H256622   0.688   1.700  19.896  2.0188 -2.0739  0.8370
11711TIP3   OH256623   0.212   3.327  43.194  0.2902 -0.0631 -0.9542
11711TIP3    H156624   0.283   3.385  43.166 -0.8885  1.8238 -0.2509
11711TIP3    H256625   0.236   3.301  43.283  0.9222 -0.8657 -1.3445
11712TIP3   OH256626   0.210   0.017  13.330 -0.0859 -0.2846 -1.1999
11712TIP3    H156627   0.297  -0.010  13.298  1.5046  0.2302  2.2395
11712TIP3    H256628   0.210   0.112  13.323  0.7038 -0.0656  0.9900
11713TIP3   OH256629   3.307   1.339   0.976 -0.2122 -0.4183  0.1282
11713TIP3    H156630   3.325   1.394   0.899 -2.3189 -0.2293 -0.3180
11713TIP3    H256631   3.214   1.317   0.967  0.1075 -2.4711  1.3368
11714TIP3   OH256632   1.975   2.106  12.013 -0.2945  0.0191 -0.2513
11714TIP3    H156633   1.933   2.119  11.928 -1.7937  1.3052  0.6263
11714TIP3    H256634   2.051   2.051  11.994 -1.7679 -1.5397 -2.0850
11715TIP3   OH256635   2.775   2.650  53.899  0.2216  0.2711 -0.1669
11715TIP3    H156636   2.810   2.674  53.814  0.2377 -0.6708 -0.4288
11715TIP3    H256637   2.846   2.670  53.961  0.5059  0.1770 -0.4634
11716TIP3   OH256638   0.929   1.169  47.144  0.1093 -0.3485  0.1412
11716TIP3    H156639   0.919   1.253  47.100  0.5481 -1.1506 -1.5916
11716TIP3    H256640   0.993   1.185  47.213 -1.4157  1.2104  1.2886
11717TIP3   OH256641   0.867   2.272   8.317 -0.4330  0.4067  0.3469
11717TIP3    H156642   0.952   2.242   8.351 -0.4234 -0.9471 -0.8055
11717TIP3    H256643   0.812   2.281   8.395  0.6013  0.7915  1.0529
11718TIP3   OH256644   2.871   2.350   2.899  0.5052  0.0206  0.1377
11718TIP3    H156645   2.928   2.302   2.839  0.0387  0.2502 -0.4892
11718TIP3    H256646   2.871   2.439   2.865 -1.8922 -0.3889 -1.1275
11719TIP3   OH256647   3.400   1.185   1.192 -0.6130  0.2015  0.2669
11719TIP3    H156648   3.380   1.217   1.104  0.2314  0.1954  0.0569
11719TIP3    H256649   3.485   1.224   1.212 -0.1332 -0.9273  0.5020
11720TIP3   OH256650   3.328   3.112  60.018 -0.5634 -0.0819 -0.3962
11720TIP3    H156651   3.392   3.129  59.949 -0.7525 -0.2901 -0.6252
11720TIP3    H256652   3.326   3.016  60.024  0.9821 -0.0706  1.2975
11721TIP3   OH256653   1.209   2.430  21.941 -0.2136  0.3412 -0.4297
11721TIP3    H156654   1.298   2.463  21.954 -0.4417  0.5201  0.8257
11721TIP3    H256655   1.156   2.509  21.927 -0.5925  0.4989  1.5588
11722TIP3   OH256656   2.314   0.151  50.810  0.4095 -0.0810 -0.3953
11722TIP3    H156657   2.228   0.112  50.798  1.1577 -1.9145 -0.2025
11722TIP3    H256658   2.304   0.241  50.780 -0.4821 -1.4122 -4.9352
11723TIP3   OH256659   0.782   0.398   8.654 -0.5874 -0.0502 -0.0643
11723TIP3    H156660   0.737   0.381   8.571 -1.6187 -1.4887  0.7229
11723TIP3    H256661   0.820   0.313   8.678  3.0562  1.1953 -0.8995
11724TIP3   OH256662   3.242   1.122  46.908 -0.2043 -0.6220  0.2548
11724TIP3    H156663   3.308   1.188  46.889  0.4192 -0.5591  2.3546
11724TIP3    H256664   3.291   1.040  46.912 -0.4689 -0.7688  0.5435
11725TIP3   OH256665   3.143   0.365  55.986  0.0587 -0.3697 -0.5361
11725TIP3    H156666   3.228   0.399  55.957 -0.0847  1.5131  1.0167
11725TIP3    H256667   3.100   0.440  56.026 -3.5337 -0.5607 -3.5647
11726TIP3   OH256668   0.892   2.542  13.482  0.4937  0.6170 -0.0394
11726TIP3    H156669   0.890   2.471  13.545  1.6010 -0.1150 -0.7971
11726TIP3    H256670   0.984   2.547  13.454 -0.1810 -0.1171 -2.7102
11727TIP3   OH256671   0.997   0.515  14.658  0.1764  0.0324 -0.7899
11727TIP3    H156672   0.937   0.471  14.598 -0.8812  2.7299 -1.8591
11727TIP3    H256673   0.959   0.602  14.671  1.3536  0.2192  2.3628
11728TIP3   OH256674   1.049   2.975  59.349  0.5521 -0.3414  0.5519
11728TIP3    H156675   0.954   2.958  59.353  0.5373 -1.1425 -1.5034
11728TIP3    H256676   1.086   2.917  59.415 -0.3045 -1.2549  0.2753
11729TIP3   OH256677   2.730   1.992  11.596 -0.4874  0.3480 -0.0172
11729TIP3    H156678   2.635   1.989  11.593 -0.4604 -0.5169 -0.3725
11729TIP3    H256679   2.752   1.969  11.686 -0.5734 -1.5945 -0.4541
11730TIP3   OH256680   1.254   1.807  13.250  0.1364  0.4776 -0.2372
11730TIP3    H156681   1.240   1.832  13.159  0.2076  2.1104  0.1704
11730TIP3    H256682   1.221   1.717  13.255 -0.4276  0.5669 -1.7305
11731TIP3   OH256683   2.271   1.425  16.714 -0.0453 -0.7520 -0.2218
11731TIP3    H156684   2.284   1.509  16.757 -1.3342 -0.9865  0.6983
11731TIP3    H256685   2.193   1.438  16.660  1.0856 -0.7007 -1.9248
11732TIP3   OH256686   0.942   1.250  60.012  0.1420  0.2010 -0.3987
11732TIP3    H156687   0.870   1.239  60.075  0.0532  2.3868 -0.0315
11732TIP3    H256688   0.913   1.204  59.934 -0.6849 -0.8032  0.4768
11733TIP3   OH256689   3.047   0.166   7.481  0.2870 -0.0995 -0.4850
11733TIP3    H156690   3.120   0.207   7.528  1.8668 -0.7346 -2.2999
11733TIP3    H256691   3.088   0.112   7.414 -1.8348  0.8555 -2.7184
11734TIP3   OH256692   1.959   0.259  43.810 -0.2173  0.1037  0.0225
11734TIP3    H156693   1.989   0.216  43.730 -0.7685  0.1164 -0.1899
11734TIP3    H256694   1.864   0.254  43.807 -0.2440 -0.0602  0.7709
11735TIP3   OH256695   0.769   2.473  18.753  0.1865 -0.5433  0.1016
11735TIP3    H156696   0.854   2.432  18.764  1.0707  1.4929  1.3071
11735TIP3    H256697   0.774   2.517  18.668  0.1252 -0.8465 -0.0623
11736TIP3   OH256698   0.457   2.690  64.297 -0.2582  0.1074  0.1433
11736TIP3    H156699   0.393   2.755  64.325  1.7908  1.6940  1.4074
11736TIP3    H256700   0.441   2.614  64.354 -0.6523  0.6678  0.7945
11737TIP3   OH256701   0.528   1.890  65.019 -0.1965  0.1513  0.1638
11737TIP3    H156702   0.438   1.911  64.995 -0.4213 -1.4759 -0.5659
11737TIP3    H256703   0.563   1.844  64.943  0.3509 -1.6445  1.4198
11738TIP3   OH256704   2.870   2.161  14.257  0.5787 -0.3551 -0.0044
11738TIP3    H156705   2.820   2.237  14.226 -0.3052 -0.9260 -0.0220
11738TIP3    H256706   2.805   2.107  14.302  0.8979 -1.7504 -1.1399
11739TIP3   OH256707   3.329   2.744  51.561 -0.5591 -0.3876  0.3346
11739TIP3    H156708   3.370   2.742  51.475 -1.5629 -1.5076 -0.1486
11739TIP3    H256709   3.317   2.838  51.579 -1.4108 -0.1477 -1.2808
11740TIP3   OH256710   3.254   1.158   3.340  0.4588 -0.2778 -0.2272
11740TIP3    H156711   3.264   1.075   3.386  1.2956 -0.0700 -0.0176
11740TIP3    H256712   3.160   1.177   3.345  0.7601  1.3652  4.3310
11741TIP3   OH256713   2.596   2.953  58.005 -0.1704 -0.0025  0.7898
11741TIP3    H156714   2.566   2.958  57.915 -1.5834  0.2362  1.2516
11741TIP3    H256715   2.636   2.866  58.012 -0.1312 -0.0609 -0.0310
11742TIP3   OH256716   2.744   1.538  56.860  0.4507  0.1619  0.2515
11742TIP3    H156717   2.834   1.556  56.888  0.2416 -0.1105  1.1345
11742TIP3    H256718   2.753   1.505  56.770  1.2356  0.0932  0.3426
11743TIP3   OH256719   3.129   0.754  63.765  0.1189 -0.0138 -0.1918
11743TIP3    H156720   3.136   0.661  63.788 -0.8094  0.1261  0.7277
11743TIP3    H256721   3.176   0.761  63.682 -1.7512 -1.7755 -1.5034
11744TIP3   OH256722   3.414   0.035  53.402 -0.1317  0.1079  0.6043
11744TIP3    H156723   3.414   0.022  53.308  1.3540  1.2142  0.4089
11744TIP3    H256724   3.344  -0.023  53.435  0.4942 -1.6485 -0.9669
11745TIP3   OH256725   1.404   2.170  33.733 -0.3155 -0.1896 -0.5471
11745TIP3    H156726   1.337   2.230  33.767  0.1059  0.8144 -1.4061
11745TIP3    H256727   1.425   2.205  33.646  1.4098 -0.3890 -0.2546
11746TIP3   OH256728   1.765   1.483  55.133 -0.3723 -0.2192  0.2236
11746TIP3    H156729   1.714   1.564  55.131 -2.6827 -1.5989 -0.9809
11746TIP3    H256730   1.850   1.509  55.168 -1.3260  2.5343  0.7248
11747TIP3   OH256731   0.528   2.544   7.565 -0.0887 -0.0626 -0.0284
11747TIP3    H156732   0.470   2.480   7.524  1.4499 -0.3814 -1.7911
11747TIP3    H256733   0.547   2.506   7.651 -0.9582 -0.8828 -0.1757
11748TIP3   OH256734   0.360   1.693  62.400  0.3439 -0.1275  0.3082
11748TIP3    H156735   0.443   1.709  62.445  0.2315 -1.4223  1.0169
11748TIP3    H256736   0.294   1.698  62.469 -0.1720  0.8002 -0.2352
11749TIP3   OH256737   1.299   2.473  44.108  0.2316 -0.1014  0.1904
11749TIP3    H156738   1.205   2.454  44.113  0.1882  0.3097  1.3269
11749TIP3    H256739   1.306   2.543  44.043 -0.0750 -1.0812 -0.9300
11750TIP3   OH256740   2.106   1.965  57.802 -0.2089  0.1633  0.3300
11750TIP3    H156741   2.151   1.884  57.777  0.0347  0.3096  0.2958
11750TIP3    H256742   2.145   2.032  57.747 -1.7951 -0.0199 -1.0680
11751TIP3   OH256743   1.599   1.047  53.413  0.2318  0.2158  0.6681
11751TIP3    H156744   1.629   1.127  53.369  0.1576 -0.9111 -1.5703
11751TIP3    H256745   1.578   1.075  53.502  0.6323  2.5955  0.0778
11752TIP3   OH256746   2.277   2.272  17.596  0.1526 -0.3054  0.5565
11752TIP3    H156747   2.343   2.223  17.645  0.0716 -0.6764  0.3056
11752TIP3    H256748   2.296   2.251  17.504 -2.3182 -3.1637  0.5231
11753TIP3   OH256749   2.777   0.464  47.461 -0.0372  0.1698 -0.1750
11753TIP3    H156750   2.859   0.464  47.411 -0.5873  0.6174 -1.1159
11753TIP3    H256751   2.802   0.491  47.549  1.0530 -1.2512 -0.0145
11754TIP3   OH256752   0.592   2.795  10.845  0.4690  0.2155 -0.5371
11754TIP3    H156753   0.542   2.718  10.819 -1.3497  0.6580  1.3888
11754TIP3    H256754   0.675   2.759  10.877  0.4242 -0.7465 -1.4478
11755TIP3   OH256755   1.113   2.405  46.653 -0.1062 -0.1883  0.3702
11755TIP3    H156756   1.113   2.358  46.570  1.6774 -1.2991  0.9374
11755TIP3    H256757   1.205   2.427  46.668 -0.3518 -0.2493  2.1725
11756TIP3   OH256758   1.234   1.760   1.260 -0.1985 -0.1404  0.1987
11756TIP3    H156759   1.211   1.673   1.226  0.1160 -0.0617 -0.2151
11756TIP3    H256760   1.300   1.742   1.328 -0.3554 -0.2469  0.3235
11757TIP3   OH256761   1.886   0.369  21.793  0.3316  0.2462 -0.3618
11757TIP3    H156762   1.845   0.439  21.742  0.2595  0.6968  0.3045
11757TIP3    H256763   1.849   0.288  21.757  0.1942  0.5643 -0.9399
11758TIP3   OH256764   3.058   3.213  17.324 -0.0434 -0.3588  0.0056
11758TIP3    H156765   3.040   3.277  17.254 -1.5247 -0.7194  0.0146
11758TIP3    H256766   2.982   3.220  17.382 -1.5741 -3.8510 -1.3028
11759TIP3   OH256767   0.571   2.465  13.394 -0.0738 -0.2151 -0.1045
11759TIP3    H156768   0.643   2.486  13.453 -0.6905  1.2015  0.2062
11759TIP3    H256769   0.564   2.370  13.396  0.7054 -0.2611  1.1617
11760TIP3   OH256770   2.545   2.028   2.929  0.3877  0.6764  0.0811
11760TIP3    H156771   2.583   2.112   2.902 -0.1880  0.2158 -2.3991
11760TIP3    H256772   2.470   2.016   2.871  0.3765 -1.5035  0.4669
11761TIP3   OH256773   1.326   2.329   9.740 -0.1400  0.3600 -0.2641
11761TIP3    H156774   1.379   2.249   9.735 -1.6223 -0.5955 -1.3280
11761TIP3    H256775   1.263   2.321   9.669 -2.3568  0.9775  1.5102
11762TIP3   OH256776   1.337   3.218  46.305 -0.8798 -0.3125 -0.8744
11762TIP3    H156777   1.359   3.196  46.395 -2.1743 -1.6351 -0.8439
11762TIP3    H256778   1.388   3.157  46.252 -1.5195 -0.8047 -0.9421
11763TIP3   OH256779   2.427   0.371   7.547  0.0245  0.2301  0.4145
11763TIP3    H156780   2.428   0.419   7.630  0.4604  1.3869 -0.2300
11763TIP3    H256781   2.520   0.358   7.525 -0.0892 -0.9353  0.5805
11764TIP3   OH256782   3.273   2.101   0.008  0.4012  0.1221  0.0574
11764TIP3    H156783   3.180   2.111   0.031  0.0041  0.4295 -1.5480
11764TIP3    H256784   3.291   2.008   0.020 -0.3484 -0.0924 -0.4401
11765TIP3   OH256785   0.892   0.193  56.144 -0.0366  0.2944 -0.1528
11765TIP3    H156786   0.909   0.263  56.081 -0.2263 -0.1359 -0.7041
11765TIP3    H256787   0.924   0.114  56.100 -0.7292 -0.0986  0.0359
11766TIP3   OH256788   3.235   2.406   8.844  0.1140  0.4459  0.1527
11766TIP3    H156789   3.183   2.331   8.815  0.9965 -0.0364 -0.2140
11766TIP3    H256790   3.284   2.374   8.919  1.5509  0.2113 -0.8434
11767TIP3   OH256791   0.798   1.214  58.902  0.1306  0.3554  0.0997
11767TIP3    H156792   0.796   1.237  58.995 -2.5143 -1.2617  0.5695
11767TIP3    H256793   0.706   1.199  58.879  0.7800 -0.1051 -2.5786
11768TIP3   OH256794   1.608   0.588  51.664  0.4390 -0.1702  0.0510
11768TIP3    H156795   1.520   0.622  51.677  0.8062  0.7022  0.3418
11768TIP3    H256796   1.608   0.552  51.576 -0.0519  0.3265 -0.1559
11769TIP3   OH256797   1.457   2.903   4.488 -0.0549 -0.4374  0.1308
11769TIP3    H156798   1.514   2.941   4.422  0.1796  2.0645  1.6358
11769TIP3    H256799   1.513   2.841   4.535  0.8793  0.5511  0.3535
11770TIP3   OH256800   1.563   2.954   9.278  0.0698  0.4341 -0.0454
11770TIP3    H156801   1.622   2.890   9.319 -2.1405 -0.9542  1.1560
11770TIP3    H256802   1.573   2.939   9.184  1.8865  0.5195  0.0986
11771TIP3   OH256803   0.386   0.218  62.919 -0.2086  0.2573 -0.4208
11771TIP3    H156804   0.395   0.261  63.004 -3.2858  1.0103 -0.3405
11771TIP3    H256805   0.384   0.124  62.940 -0.0001  0.3947  0.2332
11772TIP3   OH256806   1.591   3.162  44.570 -0.5285  0.2801  0.3801
11772TIP3    H156807   1.633   3.080  44.544  0.8548  0.3354  2.2602
11772TIP3    H256808   1.663   3.218  44.597 -1.6103  1.4403  0.9446
11773TIP3   OH256809   2.262   2.439  54.523 -0.4387  0.1407  0.9620
11773TIP3    H156810   2.203   2.500  54.567  1.3142  0.8391  2.4689
11773TIP3    H256811   2.306   2.493  54.457  0.2434  0.2162  1.4764
11774TIP3   OH256812   1.075   0.515  67.222  0.1303 -0.4104  0.7134
11774TIP3    H156813   1.015   0.480  67.157 -0.7582 -0.7616  1.6828
11774TIP3    H256814   1.062   0.610  67.219  0.3317 -0.3973  0.1710
11775TIP3   OH256815   1.470   1.240  62.192 -0.0215  0.1425 -0.0405
11775TIP3    H156816   1.505   1.289  62.118  1.8526  0.5889  1.0814
11775TIP3    H256817   1.422   1.167  62.152  2.8186 -0.9545 -1.7583
11776TIP3   OH256818   0.016   3.165  61.971  0.6811  0.3235  0.4660
11776TIP3    H156819  -0.002   3.122  61.887  0.3772  1.9293 -0.3271
11776TIP3    H256820  -0.064   3.154  62.021 -0.2068  1.7782 -0.5592
11777TIP3   OH256821   1.098   2.784  53.740  0.1020 -0.0685  0.0658
11777TIP3    H156822   1.189   2.809  53.758 -0.0175  0.6376 -0.3093
11777TIP3    H256823   1.094   2.776  53.645 -0.7111  1.8112 -0.0947
11778TIP3   OH256824   2.920   0.426  29.484 -0.2479 -0.5884 -0.6035
11778TIP3    H156825   2.965   0.368  29.545  1.3516  0.1352 -1.0525
11778TIP3    H256826   2.950   0.398  29.398  0.4735  0.8014 -0.8321
11779TIP3   OH256827   0.790   3.353  52.755 -0.4335 -0.2149 -0.1559
11779TIP3    H156828   0.855   3.283  52.761  0.9755  1.0907  0.4195
11779TIP3    H256829   0.769   3.374  52.846 -1.4118 -0.3693 -0.3317
11780TIP3   OH256830   1.715   1.363  20.945  0.3465 -0.2409  0.6506
11780TIP3    H156831   1.758   1.423  21.006 -1.9582 -0.2418  2.4083
11780TIP3    H256832   1.632   1.406  20.924 -0.2349 -1.6735 -0.0702
11781TIP3   OH256833   0.630   1.137   4.720  0.2987  0.2305  0.0939
11781TIP3    H156834   0.722   1.109   4.715 -0.2532 -1.8828  0.8803
11781TIP3    H256835   0.598   1.133   4.630  0.3131 -1.5675  0.1337
11782TIP3   OH256836   0.876   3.334  10.310 -0.2964 -0.0510 -0.5627
11782TIP3    H156837   0.934   3.259  10.306 -0.1205 -0.0468  1.1394
11782TIP3    H256838   0.930   3.404  10.347 -1.0362  0.2880 -0.1008
11783TIP3   OH256839   2.682   2.204   2.373  0.0359 -0.4201  0.7526
11783TIP3    H156840   2.714   2.261   2.443 -0.6455  1.4698 -0.3974
11783TIP3    H256841   2.723   2.238   2.293  0.1282 -1.9900  0.1058
11784TIP3   OH256842   2.798   1.484  58.320 -0.1528 -0.1948 -0.3038
11784TIP3    H156843   2.812   1.568  58.278  1.2024 -1.2823 -2.1936
11784TIP3    H256844   2.706   1.464  58.304 -0.3480  0.6749 -0.3161
11785TIP3   OH256845   1.595   2.461   2.905 -0.4235  0.4886  0.2829
11785TIP3    H156846   1.626   2.470   2.815  0.0427 -0.6841  0.3169
11785TIP3    H256847   1.558   2.373   2.910 -3.0483  1.5088  0.4914
11786TIP3   OH256848   0.176   0.709   5.718 -0.5197 -0.2315  0.3631
11786TIP3    H156849   0.123   0.658   5.657  2.3627 -0.7924 -1.8796
11786TIP3    H256850   0.206   0.645   5.782 -0.7018 -0.3737  0.3104
11787TIP3   OH256851   0.975   1.127  51.392 -0.1208  0.3443 -0.1245
11787TIP3    H156852   1.032   1.192  51.433 -1.4625  2.7866 -1.8459
11787TIP3    H256853   1.035   1.065  51.351  1.2948  1.6707 -0.1535
11788TIP3   OH256854   3.132   1.935   7.211  0.2632  0.5088  0.2889
11788TIP3    H156855   3.113   2.029   7.206  0.1194  0.4485 -0.3737
11788TIP3    H256856   3.096   1.899   7.130 -1.9458 -0.5218  1.6133
11789TIP3   OH256857   0.280   0.482  47.309  0.2895  0.5843  0.2285
11789TIP3    H156858   0.302   0.514  47.396 -3.2948  2.5315  0.6266
11789TIP3    H256859   0.223   0.549  47.272 -2.9891 -2.6330 -1.2636
11790TIP3   OH256860   3.334   0.200  45.393 -0.2528  0.5820  0.0824
11790TIP3    H156861   3.366   0.246  45.471 -0.9245 -0.8147  1.2312
11790TIP3    H256862   3.304   0.116  45.426  0.1472 -0.3579 -1.8272
11791TIP3   OH256863   1.135   2.051  55.531  0.5908  0.4425  0.0736
11791TIP3    H156864   1.187   1.998  55.592  1.3453  2.2687  1.1180
11791TIP3    H256865   1.051   2.062  55.576  0.0600 -0.6815 -0.6091
11792TIP3   OH256866   1.894   1.971  52.348 -0.3805 -0.0278  0.1864
11792TIP3    H156867   1.855   2.058  52.353 -3.7543 -1.4231  1.1047
11792TIP3    H256868   1.936   1.967  52.262  0.4986  2.6665  0.4170
11793TIP3   OH256869   2.565   0.704  15.411  0.0214  0.1733 -1.0896
11793TIP3    H156870   2.591   0.785  15.367  1.2841 -0.2662 -1.1642
11793TIP3    H256871   2.618   0.702  15.491 -2.6806  1.3114  0.9261
11794TIP3   OH256872   0.242   2.577  43.995 -0.1111  0.5605  0.1145
11794TIP3    H156873   0.288   2.645  43.946  0.2609  2.2742  2.6776
11794TIP3    H256874   0.170   2.623  44.038 -0.5574 -0.9176  1.0126
11795TIP3   OH256875   2.750   0.301  61.230 -0.5586  0.3925  0.3330
11795TIP3    H156876   2.699   0.358  61.288 -1.3097 -0.2279  0.2929
11795TIP3    H256877   2.703   0.218  61.230 -1.0209  0.6078 -1.7909
11796TIP3   OH256878   0.129   1.156  31.620 -0.2628 -1.0370  0.2826
11796TIP3    H156879   0.110   1.062  31.611 -0.1952 -1.1338  1.0304
11796TIP3    H256880   0.045   1.195  31.643 -0.1305 -1.0486  0.8105
11797TIP3   OH256881   0.031   0.070  45.053  0.0922  0.1946  0.2739
11797TIP3    H156882  -0.016   0.131  45.109  1.6717  1.2169  0.5464
11797TIP3    H256883   0.005   0.093  44.964 -1.8807 -0.9708  0.4935
11798TIP3   OH256884   2.689   0.563  14.867  0.2059  0.2456  0.4034
11798TIP3    H156885   2.680   0.654  14.839  1.5286  0.2584 -0.0833
11798TIP3    H256886   2.753   0.566  14.938 -0.3678 -0.2097  0.9445
11799TIP3   OH256887   1.492   2.929   9.929 -0.1410 -0.5867  0.1444
11799TIP3    H156888   1.452   2.847   9.959 -2.4781  0.6071  0.5303
11799TIP3    H256889   1.569   2.939   9.985  0.0893 -2.3886  0.2250
11800TIP3   OH256890   1.948   0.006  63.081  0.0080  0.1324  0.1849
11800TIP3    H156891   1.942  -0.077  63.129  1.0414  0.1187  0.3118
11800TIP3    H256892   2.041   0.029  63.084 -0.0316  0.5545 -1.1002
11801TIP3   OH256893   2.605   3.265  65.962  0.2035 -0.1050  0.2360
11801TIP3    H156894   2.633   3.356  65.960 -1.1516  0.5193 -4.6998
11801TIP3    H256895   2.518   3.267  66.001  0.2101  0.7067  0.2311
11802TIP3   OH256896   1.938   1.601  58.715  0.3277 -0.5598 -0.2377
11802TIP3    H156897   1.894   1.669  58.767  0.6963 -0.6618  0.2175
11802TIP3    H256898   1.905   1.614  58.626 -2.1293 -1.8495  0.4013
11803TIP3   OH256899   3.047   2.321   1.190 -0.5418  0.3571 -0.1014
11803TIP3    H156900   3.072   2.393   1.248  2.2090 -0.7594  0.2706
11803TIP3    H256901   3.009   2.255   1.248  0.1710  0.1352  0.1292
11804TIP3   OH256902   0.001   2.673   3.809 -0.7551  0.0603 -0.1261
11804TIP3    H156903   0.059   2.741   3.775  0.3151 -0.7987 -0.0572
11804TIP3    H256904   0.046   2.591   3.790 -1.3880 -0.5774  0.9999
11805TIP3   OH256905   1.438   1.157  47.461 -0.0175  0.0424 -0.2502
11805TIP3    H156906   1.451   1.139  47.368 -0.5865 -1.3194 -0.0873
11805TIP3    H256907   1.390   1.240  47.463 -1.6376 -0.8194 -1.2679
11806TIP3   OH256908   0.921   0.757  50.464 -0.2238  0.1729  0.3205
11806TIP3    H156909   1.005   0.791  50.494  1.4132 -2.5330 -0.7985
11806TIP3    H256910   0.933   0.744  50.370 -1.8468 -0.3796  0.1606
11807TIP3   OH256911   1.681   0.328  14.767 -0.1154 -0.0026  0.0817
11807TIP3    H156912   1.754   0.389  14.762  0.1038 -0.2447  0.2883
11807TIP3    H256913   1.641   0.330  14.680  0.7848 -0.6694 -0.3638
11808TIP3   OH256914   1.172   0.520  45.420  0.3504  0.5076 -0.1650
11808TIP3    H156915   1.111   0.447  45.435 -0.7764  1.1800 -1.3883
11808TIP3    H256916   1.177   0.564  45.505 -1.9361  1.2206 -0.3287
11809TIP3   OH256917   0.630   1.629  59.872  0.0114  0.7002 -0.5767
11809TIP3    H156918   0.707   1.634  59.815  0.9156  3.3748  0.6881
11809TIP3    H256919   0.666   1.623  59.960 -1.2538  0.8594 -0.0304
11810TIP3   OH256920   0.588   1.178  22.148 -0.0661 -0.4097  0.1618
11810TIP3    H156921   0.599   1.104  22.089  0.5670  0.2094 -0.5280
11810TIP3    H256922   0.538   1.144  22.222 -0.0479 -1.4356 -0.2907
11811TIP3   OH256923   1.258   2.268  62.839 -0.2375  0.5764  0.6103
11811TIP3    H156924   1.199   2.225  62.901  0.8040 -0.6240  0.8032
11811TIP3    H256925   1.302   2.196  62.793  0.9574  1.4250  0.3635
11812TIP3   OH256926   2.171   0.791   6.344 -0.2664 -0.3605  0.0673
11812TIP3    H156927   2.139   0.825   6.260 -1.2820  0.4231  0.7465
11812TIP3    H256928   2.097   0.801   6.403  1.0582  1.0218  1.5775
11813TIP3   OH256929   2.909   1.883  29.385  1.1441  0.0073 -0.4928
11813TIP3    H156930   2.914   1.790  29.410  2.2759  0.2748  0.3117
11813TIP3    H256931   2.971   1.927  29.442 -0.1496  1.4413 -0.1105
11814TIP3   OH256932   2.114   3.300   4.284 -0.1994  0.0352 -0.4200
11814TIP3    H156933   2.173   3.269   4.352 -0.0530 -3.0003 -1.7490
11814TIP3    H256934   2.171   3.336   4.216  0.0879 -1.2911 -0.9296
11815TIP3   OH256935   2.312   2.063  12.603  0.0934 -0.7210 -0.5611
11815TIP3    H156936   2.381   2.121  12.634  0.0873 -1.3200  0.6540
11815TIP3    H256937   2.235   2.089  12.654 -0.9178  0.6831 -2.6720
11816TIP3   OH256938   2.076   0.048  20.928  0.5226 -0.3790 -0.0672
11816TIP3    H156939   1.983   0.044  20.906  0.3870  0.3391  0.3351
11816TIP3    H256940   2.077   0.051  21.024  1.0273 -1.7864 -0.0118
11817TIP3   OH256941   0.748   1.729   4.583 -0.5055  0.3580 -0.6506
11817TIP3    H156942   0.773   1.759   4.496 -1.3634  0.9827 -0.6893
11817TIP3    H256943   0.658   1.757   4.593 -0.5691 -0.1398  0.2558
11818TIP3   OH256944   3.124   1.706  50.827  0.0612 -0.3030  0.7937
11818TIP3    H156945   3.036   1.676  50.850  0.1630 -1.7617 -0.5778
11818TIP3    H256946   3.113   1.754  50.745  0.5763 -0.8928  0.3627
11819TIP3   OH256947   0.108   2.217  54.188  0.3440 -0.1446 -0.0580
11819TIP3    H156948   0.067   2.261  54.114 -1.0234 -1.0528  0.1174
11819TIP3    H256949   0.071   2.128  54.187  1.1340 -0.5151  1.0481
11820TIP3   OH256950   0.342   2.370  62.392  0.2428 -0.2422  0.4600
11820TIP3    H156951   0.300   2.393  62.309 -0.8020 -2.3485  0.3305
11820TIP3    H256952   0.435   2.385  62.377  0.0715 -0.5683 -1.1048
11821TIP3   OH256953   0.762   2.173  17.316 -0.0709  0.0051  0.0986
11821TIP3    H156954   0.766   2.240  17.384  1.0449 -0.2276  0.2853
11821TIP3    H256955   0.729   2.218  17.239  0.4385  0.7179  0.2905
11822TIP3   OH256956   2.327   1.061  43.496  0.3895 -0.8169 -0.0631
11822TIP3    H156957   2.281   1.110  43.428  0.5569  0.1393  0.4914
11822TIP3    H256958   2.346   0.976  43.456  0.9851 -0.0769 -1.3982
11823TIP3   OH256959   1.849   3.340  60.405 -0.5806  0.3350  0.2326
11823TIP3    H156960   1.802   3.276  60.458 -0.1310 -0.0997  0.1237
11823TIP3    H256961   1.791   3.357  60.331 -0.9173  0.4282  0.5217
11824TIP3   OH256962   0.914   2.298  16.201 -0.3877 -0.2867 -0.5817
11824TIP3    H156963   0.947   2.209  16.187 -1.0471 -0.3337 -2.0816
11824TIP3    H256964   0.971   2.353  16.147  0.1313  0.2476  0.4762
11825TIP3   OH256965   2.561   3.074   9.572  0.7758  0.2312 -0.1140
11825TIP3    H156966   2.647   3.081   9.529  0.6237 -0.0676 -0.4742
11825TIP3    H256967   2.548   2.979   9.581 -0.4419  0.1754 -1.9453
11826TIP3   OH256968   1.276   2.352  10.156  0.0087  0.1567  0.1787
11826TIP3    H156969   1.236   2.289  10.216  0.1290  0.7280  0.8751
11826TIP3    H256970   1.366   2.362  10.187 -0.2845  1.4127  0.7140
11827TIP3   OH256971   1.714   1.601   3.950  0.2660 -0.0154 -0.0596
11827TIP3    H156972   1.773   1.534   3.986 -0.9621 -0.0766  2.0173
11827TIP3    H256973   1.746   1.683   3.988 -0.2374  0.1057  0.1071
11828TIP3   OH256974   2.045   0.097   9.281 -0.2672  0.0536  0.5420
11828TIP3    H156975   2.126   0.147   9.274 -1.0701  1.4162  0.5735
11828TIP3    H256976   2.058   0.040   9.357  1.0589 -0.5642 -0.1138
11829TIP3   OH256977   0.040   3.164  14.292 -0.1046 -0.6606  0.5320
11829TIP3    H156978   0.081   3.109  14.359  0.1907  0.2173  1.0953
11829TIP3    H256979   0.110   3.221  14.262 -0.5416 -0.1846  0.3959
11830TIP3   OH256980   0.473   2.923  15.635 -0.1081 -0.6661  0.5550
11830TIP3    H156981   0.482   2.830  15.657 -1.3326 -1.2145 -1.0611
11830TIP3    H256982   0.464   2.924  15.540  2.5329  1.3770  0.2408
11831TIP3   OH256983   1.082   1.314   0.328 -0.2444 -0.4811 -0.2642
11831TIP3    H156984   1.159   1.269   0.291 -0.3483 -2.4816  1.7395
11831TIP3    H256985   1.023   1.243   0.353 -1.6980  0.9309  0.4558
11832TIP3   OH256986   2.827   2.416  52.976  0.3819 -0.1939 -0.0785
11832TIP3    H156987   2.796   2.339  52.929 -1.8849  1.3764 -1.3743
11832TIP3    H256988   2.902   2.448  52.925 -0.2222 -0.1628 -0.9521
11833TIP3   OH256989   2.014   2.255   4.360 -0.3267 -0.1824  0.1336
11833TIP3    H156990   1.956   2.255   4.436 -1.0747  0.6421 -0.4279
11833TIP3    H256991   2.057   2.340   4.363  0.3480 -0.5168  0.1515
11834TIP3   OH256992   3.451   3.343  15.653  0.3503  0.0887  0.1621
11834TIP3    H156993   3.372   3.354  15.599  0.5128 -0.9546 -0.3222
11834TIP3    H256994   3.430   3.387  15.735  0.5315  2.7621 -1.1185
11835TIP3   OH256995   2.382   1.928  56.491  0.3610  0.7502 -0.4242
11835TIP3    H156996   2.339   1.999  56.538  0.8471  0.7597  0.0117
11835TIP3    H256997   2.313   1.890  56.437 -0.2897  0.4937  0.5702
11836TIP3   OH256998   0.800   0.397  49.377  0.7490  0.7315 -0.4204
11836TIP3    H156999   0.706   0.384  49.392  0.7847  0.7855 -0.1375
11836TIP3    H257000   0.841   0.321  49.419  0.8921  1.2065  0.3139
11837TIP3   OH257001   3.178   0.202  66.833  0.1235 -0.3095  0.1193
11837TIP3    H157002   3.130   0.177  66.911 -0.7415  0.7994 -0.0217
11837TIP3    H257003   3.111   0.237  66.774  0.8745 -0.3408 -0.7802
11838TIP3   OH257004   1.802   1.700  63.178  0.4697  0.5591 -0.0488
11838TIP3    H157005   1.739   1.771  63.167 -0.0074  0.1990  0.3178
11838TIP3    H257006   1.763   1.644  63.245  0.6354 -0.2724 -0.6349
11839TIP3   OH257007   0.268   3.430  12.613 -0.2479 -0.8314 -0.2239
11839TIP3    H157008   0.256   3.468  12.526 -0.3573  0.4491  0.3376
11839TIP3    H257009   0.258   3.503  12.674 -0.4335 -1.7459  0.8929
11840TIP3   OH257010   3.241   0.206   2.620  0.7362 -0.5380  0.0123
11840TIP3    H157011   3.326   0.163   2.615  0.6047 -0.8113  0.1283
11840TIP3    H257012   3.250   0.269   2.692  1.0240 -0.1499 -0.3530
11841TIP3   OH257013   2.966   1.680  10.034  0.0107 -0.5773 -0.0292
11841TIP3    H157014   2.947   1.771  10.014 -0.5408 -1.1763 -2.6292
11841TIP3    H257015   3.061   1.677  10.045 -0.0609  0.4356  1.1355
11842TIP3   OH257016   1.078   2.367  63.088 -0.0689 -0.0666 -0.0831
11842TIP3    H157017   0.991   2.403  63.067 -0.1003 -1.3836 -2.5524
11842TIP3    H257018   1.071   2.274  63.067  1.5195 -0.5287  1.2304
11843TIP3   OH257019   2.941   1.047   4.837 -0.0588  0.0582  0.0096
11843TIP3    H157020   2.896   1.020   4.917  2.0330  0.8357  1.5698
11843TIP3    H257021   2.958   0.966   4.790 -1.3992 -0.4082  0.2828
11844TIP3   OH257022   2.704   1.764  29.059 -0.0923  0.0158 -0.1303
11844TIP3    H157023   2.649   1.713  28.999 -0.3252  0.7727 -0.5721
11844TIP3    H257024   2.792   1.728  29.047 -0.2201 -0.1634 -0.5652
11845TIP3   OH257025   3.427   3.221  10.207  0.4661  0.3936  0.4288
11845TIP3    H157026   3.388   3.175  10.133  1.2288 -1.6095  1.2024
11845TIP3    H257027   3.354   3.270  10.245 -0.7214 -1.1635  0.2831
11846TIP3   OH257028   1.797   1.832  16.173 -0.2499 -0.3843 -0.2950
11846TIP3    H157029   1.746   1.827  16.091 -0.7453 -1.7389  0.0693
11846TIP3    H257030   1.802   1.741  16.203  0.9601 -0.0503  0.5676
11847TIP3   OH257031   2.891   2.147  58.258 -0.3660 -0.1954  0.0263
11847TIP3    H157032   2.899   2.058  58.226  1.2369  0.3379 -1.1662
11847TIP3    H257033   2.918   2.142  58.350 -1.0811 -1.0597  0.1997
11848TIP3   OH257034   3.360   1.637  48.498  0.6217  0.5678 -0.3258
11848TIP3    H157035   3.298   1.661  48.430  0.6452 -0.9045 -0.9107
11848TIP3    H257036   3.436   1.694  48.484  0.5384  0.4293 -1.3982
11849TIP3   OH257037   1.988   1.829  51.753  0.4554  0.2949  0.6058
11849TIP3    H157038   2.049   1.758  51.772  1.0776  0.2646 -1.3570
11849TIP3    H257039   2.043   1.900  51.719 -0.3824  1.0195  0.7131
11850TIP3   OH257040   0.651   0.439   0.884 -0.3712  0.2294  0.9814
11850TIP3    H157041   0.569   0.488   0.871 -0.0213  0.1640 -2.2224
11850TIP3    H257042   0.698   0.488   0.951 -0.9395  3.1425 -0.6072
11851TIP3   OH257043   2.516   0.017   6.910 -1.2246  0.4631 -0.1432
11851TIP3    H157044   2.421   0.023   6.919 -1.2898  2.3534 -1.6188
11851TIP3    H257045   2.550   0.068   6.984 -1.2271 -2.0046  1.6896
11852TIP3   OH257046   2.754   1.895   3.076  0.0895  0.3025  0.4173
11852TIP3    H157047   2.768   1.822   3.016 -0.8548  0.3420  0.1389
11852TIP3    H257048   2.685   1.947   3.035  2.2535  2.6308 -0.5517
11853TIP3   OH257049   1.041   2.665  21.162 -0.1917 -0.6970  0.5560
11853TIP3    H157050   1.117   2.607  21.156 -0.1958 -0.8886  2.0574
11853TIP3    H257051   0.967   2.610  21.138 -0.0143 -0.8844  0.4375
11854TIP3   OH257052   1.089   0.579  51.576 -0.2416 -0.1343  0.5508
11854TIP3    H157053   0.997   0.565  51.597 -0.1210  0.9517  1.8940
11854TIP3    H257054   1.104   0.523  51.500 -2.4602  0.9483 -0.8103
11855TIP3   OH257055   2.940   2.873  30.565  0.2575  0.2170  0.7354
11855TIP3    H157056   2.991   2.918  30.498  1.1117  0.6775  1.6512
11855TIP3    H257057   2.984   2.896  30.647 -1.3722  0.5141  1.5528
11856TIP3   OH257058   1.182   0.786  61.548 -0.4442  0.4358  0.2829
11856TIP3    H157059   1.111   0.780  61.611 -1.1426 -0.5343 -0.5498
11856TIP3    H257060   1.198   0.695  61.521  0.0354  0.7895 -0.7078
11857TIP3   OH257061   1.830   1.063  45.169 -0.1314 -0.1760  0.7685
11857TIP3    H157062   1.820   1.111  45.251 -0.0434 -1.7333  1.7252
11857TIP3    H257063   1.798   0.975  45.188 -0.7220 -0.4060 -1.0636
11858TIP3   OH257064   2.873   1.652   8.379 -0.5393 -0.3939 -0.0831
11858TIP3    H157065   2.957   1.622   8.343 -1.1034 -0.9756 -0.9274
11858TIP3    H257066   2.837   1.576   8.424 -0.2180  0.1064  1.0621
11859TIP3   OH257067   2.964   2.443   5.507  0.2430  0.6318 -0.2675
11859TIP3    H157068   3.021   2.499   5.455  1.1520 -0.2363 -0.2311
11859TIP3    H257069   2.915   2.503   5.563  1.3353  1.3885 -0.0986
11860TIP3   OH257070   2.877   0.754  54.026 -0.0428 -0.9914  0.1709
11860TIP3    H157071   2.789   0.735  53.994 -0.2450  0.1826 -0.0041
11860TIP3    H257072   2.864   0.818  54.096  0.7781  0.4799 -0.9915
11861TIP3   OH257073   3.136   0.553  57.320 -0.1366 -0.1901  0.0047
11861TIP3    H157074   3.064   0.605  57.283  1.0452  0.6342 -1.2405
11861TIP3    H257075   3.127   0.467  57.281  0.2454  0.2627 -1.1119
11862TIP3   OH257076   1.629   1.324   9.639 -0.0992  0.2274 -0.3947
11862TIP3    H157077   1.549   1.271   9.640  1.5361 -2.4425 -1.6363
11862TIP3    H257078   1.698   1.264   9.611  2.5854  2.1677  1.5466
11863TIP3   OH257079   0.070   2.970  61.379 -0.1141  0.1764 -0.0002
11863TIP3    H157080   0.060   3.057  61.417  1.1423  0.8660 -1.1489
11863TIP3    H257081  -0.018   2.947  61.349 -0.1181  2.1130 -1.7933
11864TIP3   OH257082   0.482   2.039  42.752  0.6004  0.0094 -0.1286
11864TIP3    H157083   0.530   2.026  42.670  1.8949 -2.2620  0.8947
11864TIP3    H257084   0.530   1.987  42.816 -2.3623 -1.1393  1.3365
11865TIP3   OH257085   2.375   2.467  21.030 -0.2339 -0.4520  0.2324
11865TIP3    H157086   2.381   2.443  21.122  1.9562 -0.4267  0.1316
11865TIP3    H257087   2.342   2.389  20.986 -0.6018 -0.6900  0.9298
11866TIP3   OH257088   2.459   2.309  15.268 -0.5205 -0.0963  0.4601
11866TIP3    H157089   2.433   2.219  15.252 -1.8858  0.4043 -0.2163
11866TIP3    H257090   2.529   2.326  15.204 -0.7822 -0.4334  0.0870
11867TIP3   OH257091   0.383   0.019  53.542  0.4035 -0.3407 -0.3025
11867TIP3    H157092   0.470   0.061  53.536 -0.0320  0.8181  0.9916
11867TIP3    H257093   0.323   0.085  53.508 -0.1888 -0.2722  0.8316
11868TIP3   OH257094   0.477   3.326   8.646  0.0990 -0.1890 -0.0070
11868TIP3    H157095   0.441   3.309   8.733  0.2401  1.6114  0.4338
11868TIP3    H257096   0.571   3.307   8.655  0.0786 -0.2093  0.1725
11869TIP3   OH257097   1.322   1.122  57.008 -0.3625  0.1798 -0.4144
11869TIP3    H157098   1.353   1.150  57.094  0.6753  1.7940 -1.2681
11869TIP3    H257099   1.383   1.054  56.981 -0.6061 -0.2293  0.0480
11870TIP3   OH257100   2.943   2.868  54.868 -0.0798 -0.0775  0.1241
11870TIP3    H157101   2.888   2.827  54.934  1.4725  1.2458  2.3769
11870TIP3    H257102   3.027   2.825  54.877  0.2648  0.4029 -0.7300
11871TIP3   OH257103   0.291   0.185  52.919  0.2961  0.0274 -0.4682
11871TIP3    H157104   0.219   0.247  52.909  0.6372 -0.0024 -5.6701
11871TIP3    H257105   0.361   0.221  52.864  1.9712 -2.9626 -0.5121
11872TIP3   OH257106   2.535   0.779   4.819 -0.3157 -0.4073  0.8045
11872TIP3    H157107   2.553   0.873   4.818 -0.6437 -0.3060 -1.6076
11872TIP3    H257108   2.443   0.771   4.793 -0.0223 -1.3919 -0.0280
11873TIP3   OH257109   1.162   2.492   7.348  0.6056 -0.2341 -0.2079
11873TIP3    H157110   1.195   2.545   7.420  1.0759  0.1700 -0.7127
11873TIP3    H257111   1.157   2.552   7.274  0.1126 -0.6422 -0.5124
11874TIP3   OH257112   0.636   2.378  46.836 -0.2135 -0.3383 -0.2504
11874TIP3    H157113   0.616   2.471  46.838  0.2476 -0.2344  2.5146
11874TIP3    H257114   0.709   2.370  46.774 -0.0988  1.1660 -0.3233
11875TIP3   OH257115   1.338   3.097  44.687  0.2318 -0.2738 -0.4089
11875TIP3    H157116   1.416   3.116  44.637  0.1967  0.5557 -0.1538
11875TIP3    H257117   1.300   3.020  44.644  1.1926 -0.7038 -0.5106
11876TIP3   OH257118   0.311   2.427  56.911  0.4809  0.3113  0.2739
11876TIP3    H157119   0.249   2.357  56.891 -0.4627  1.1964  0.0242
11876TIP3    H257120   0.336   2.463  56.825 -0.0198  1.1005  0.4510
11877TIP3   OH257121   2.506   1.962  26.572  0.1064 -0.0716 -0.0108
11877TIP3    H157122   2.431   1.909  26.547 -0.5203  1.1190 -0.7472
11877TIP3    H257123   2.481   2.001  26.656 -0.2095  0.4990 -0.3625
11878TIP3   OH257124   1.179   2.787  38.803  0.2234  0.7318 -0.1766
11878TIP3    H157125   1.217   2.810  38.888 -2.7469 -2.2330  2.2024
11878TIP3    H257126   1.236   2.717  38.771 -0.3447 -0.3057  0.9791
11879TIP3   OH257127   1.197   0.879  34.511 -0.3648  0.3900  0.2415
11879TIP3    H157128   1.266   0.938  34.480 -1.2106  1.9047  1.1076
11879TIP3    H257129   1.240   0.826  34.578  0.4863 -0.2483 -0.7589
11880TIP3   OH257130   1.669   0.258   3.933 -0.3302 -0.2081 -0.1065
11880TIP3    H157131   1.633   0.248   4.021 -2.1002  0.9126 -0.6386
11880TIP3    H257132   1.596   0.234   3.875  1.0772 -1.8316 -1.2969
11881TIP3   OH257133   1.327   3.093   2.877  0.1294 -0.5049  0.1795
11881TIP3    H157134   1.243   3.117   2.917 -0.1466 -1.5768  0.2846
11881TIP3    H257135   1.368   3.176   2.854  0.0183  0.1375  2.1330
11882TIP3   OH257136   2.969   1.044  52.517 -0.2955 -0.1966 -0.4038
11882TIP3    H157137   2.907   1.014  52.583  1.6177 -0.7972  1.2281
11882TIP3    H257138   3.028   0.970  52.503 -0.0958  0.2431 -2.1232
11883TIP3   OH257139   2.740   1.068   6.195 -0.1214 -1.0038 -0.3381
11883TIP3    H157140   2.807   1.052   6.262 -0.1419  0.0467 -0.0440
11883TIP3    H257141   2.775   1.141   6.143 -0.7899 -0.8011 -0.5131
11884TIP3   OH257142   1.444   0.392  45.469 -0.8501  0.2132  0.2235
11884TIP3    H157143   1.432   0.396  45.564 -0.4427  0.4014  0.2688
11884TIP3    H257144   1.356   0.409  45.434 -0.5766  2.7206  0.5467
11885TIP3   OH257145   2.937   0.718  50.395 -0.0392 -0.2051  0.3070
11885TIP3    H157146   2.845   0.706  50.415  0.2025 -1.3806  0.7910
11885TIP3    H257147   2.984   0.681  50.470  0.8368 -1.7036 -0.9148
11886TIP3   OH257148   0.808   0.102  66.349 -0.2242 -0.0793 -0.0235
11886TIP3    H157149   0.794   0.012  66.318 -1.3834 -0.0341  0.3345
11886TIP3    H257150   0.725   0.146  66.332 -0.1585  0.5224  1.1592
11887TIP3   OH257151   2.857   3.162  20.439 -0.3817  0.5919 -0.1116
11887TIP3    H157152   2.832   3.245  20.479  0.5063 -0.0825  1.9830
11887TIP3    H257153   2.808   3.096  20.488  1.7874 -0.3704  0.9032
11888TIP3   OH257154   2.350   0.956  63.623 -0.6120 -0.2678 -0.1239
11888TIP3    H157155   2.404   1.017  63.573  0.1369  0.1003  1.0823
11888TIP3    H257156   2.274   0.939  63.567 -0.5863  1.3661 -0.7009
11889TIP3   OH257157   1.980   0.772  61.004 -0.1872 -0.5784 -0.1392
11889TIP3    H157158   1.932   0.797  60.925  2.7765  0.0917 -1.8773
11889TIP3    H257159   2.031   0.849  61.027 -0.4386 -1.0024  2.0749
11890TIP3   OH257160   2.987   0.760  64.863 -0.2110  0.2691  0.5310
11890TIP3    H157161   2.967   0.709  64.784 -1.0940  0.2480  0.7654
11890TIP3    H257162   3.081   0.746  64.876 -0.2759 -0.6671  0.1406
11891TIP3   OH257163   1.470   2.534  36.182 -0.2963  0.4806  0.5447
11891TIP3    H157164   1.389   2.541  36.232 -0.1467 -1.5936  1.1534
11891TIP3    H257165   1.491   2.625  36.159 -2.1668  1.1760  1.3298
11892TIP3   OH257166   1.218   2.757  64.851  0.0430  0.0006 -0.1301
11892TIP3    H157167   1.169   2.819  64.797  0.8356  0.3688 -0.4457
11892TIP3    H257168   1.157   2.685  64.868 -1.1736  1.2362  0.9446
11893TIP3   OH257169   3.241   2.105  11.100  0.0425  0.5803 -0.4136
11893TIP3    H157170   3.280   2.192  11.094  1.4211 -0.0676 -1.5132
11893TIP3    H257171   3.311   2.050  11.137 -0.4774 -0.2432 -0.6141
11894TIP3   OH257172   1.316   0.061  13.122  0.5615  0.3208  0.1310
11894TIP3    H157173   1.227   0.062  13.086  0.7195 -0.5112 -0.3081
11894TIP3    H257174   1.367   0.115  13.062  0.2788  1.1416  0.6125
11895TIP3   OH257175   2.707   3.386  21.914  0.0663 -0.4076 -0.7409
11895TIP3    H157176   2.714   3.371  22.008  2.2537 -1.1643 -0.9729
11895TIP3    H257177   2.657   3.467  21.906  0.5682  0.1207  1.1081
11896TIP3   OH257178   2.503   2.661  57.112 -0.2972 -0.8077  0.2694
11896TIP3    H157179   2.525   2.731  57.051 -0.0092 -0.7194  0.4762
11896TIP3    H257180   2.523   2.580  57.064  1.6270 -0.7290  0.8635
11897TIP3   OH257181   0.582   2.265   0.569 -0.0306 -0.1284 -0.3751
11897TIP3    H157182   0.642   2.228   0.634  0.2955 -0.4159 -0.8352
11897TIP3    H257183   0.512   2.305   0.621  0.4633  0.0533  0.1652
11898TIP3   OH257184   1.808   1.338  53.716 -0.0371 -0.0757 -0.1731
11898TIP3    H157185   1.800   1.362  53.808 -2.6646 -1.8726  0.1740
11898TIP3    H257186   1.845   1.416  53.674  1.4575  0.7144  2.3719
11899TIP3   OH257187   2.856   0.869  55.895  0.1162  0.7190 -0.2642
11899TIP3    H157188   2.783   0.930  55.889  0.8819  1.7211  0.3126
11899TIP3    H257189   2.930   0.917  55.855  0.7618  0.2351  0.3317
11900TIP3   OH257190   1.425   1.310  20.287  0.5692 -0.7763 -0.1513
11900TIP3    H157191   1.435   1.320  20.382  1.2769 -2.5244 -0.0111
11900TIP3    H257192   1.444   1.218  20.270  4.0664  0.1497 -2.4121
11901TIP3   OH257193   0.701   1.863  22.314  0.0129  0.3829 -0.1104
11901TIP3    H157194   0.679   1.874  22.406  0.2607  1.6795 -0.1897
11901TIP3    H257195   0.621   1.829  22.274 -0.1472 -0.0224  0.5368
11902TIP3   OH257196   2.890   3.133  49.325  0.2954  0.6117 -0.0731
11902TIP3    H157197   2.944   3.058  49.351  0.9104  1.4065  1.0498
11902TIP3    H257198   2.800   3.105  49.343  0.4145 -0.2600 -0.7482
11903TIP3   OH257199   3.407   3.275  43.492 -0.2399 -0.7308 -0.2786
11903TIP3    H157200   3.370   3.192  43.463  0.9053 -1.7415  1.0625
11903TIP3    H257201   3.336   3.318  43.539 -0.0241 -2.3165  1.6195
11904TIP3   OH257202   1.833   2.520  17.727  0.3991  0.3757 -0.0241
11904TIP3    H157203   1.905   2.572  17.691  0.2059  0.8025  0.2107
11904TIP3    H257204   1.877   2.449  17.774  0.6629  0.4379 -0.1693
11905TIP3   OH257205   2.570   1.568   5.522 -0.4465 -0.1145 -0.1255
11905TIP3    H157206   2.596   1.637   5.461  1.6767 -0.4265  0.3400
11905TIP3    H257207   2.499   1.522   5.478  0.8094 -0.1280 -2.2502
11906TIP3   OH257208   2.183   3.159  61.453 -0.1774  0.1739  0.2384
11906TIP3    H157209   2.141   3.130  61.372 -0.7169 -1.1319  0.9591
11906TIP3    H257210   2.146   3.103  61.521  1.4795  0.1284  1.1551
11907TIP3   OH257211   0.284   0.611  50.215 -0.2127 -0.3870 -0.4681
11907TIP3    H157212   0.201   0.567  50.237  0.6135 -1.0678  1.6305
11907TIP3    H257213   0.351   0.547  50.241  0.9875  0.3461 -1.6733
11908TIP3   OH257214   2.529   1.883  26.238  0.4807  0.4855 -0.0443
11908TIP3    H157215   2.495   1.807  26.284  1.7054  0.4950  0.9302
11908TIP3    H257216   2.547   1.852  26.149 -1.7631  0.4307 -0.5343
11909TIP3   OH257217   1.118   0.165  44.816  0.0202  1.1116 -0.6481
11909TIP3    H157218   1.193   0.123  44.858  0.8879  1.9571 -1.3333
11909TIP3    H257219   1.070   0.093  44.776 -0.7720  0.2692  1.6086
11910TIP3   OH257220   1.687   3.147  48.095 -0.4478 -0.0057  0.0371
11910TIP3    H157221   1.654   3.113  48.011 -0.7004 -0.5503  0.3548
11910TIP3    H257222   1.611   3.185  48.137 -0.2981  0.3674 -0.0198
11911TIP3   OH257223   2.018   2.527   9.804  0.0906  0.2639 -0.3367
11911TIP3    H157224   1.955   2.469   9.761  0.0662 -0.4485  0.6218
11911TIP3    H257225   1.970   2.564   9.878  0.5085  0.4821 -0.1715
11912TIP3   OH257226   2.374   1.701  17.672  0.2998  0.4706 -0.6281
11912TIP3    H157227   2.454   1.675  17.718  0.0995 -0.7006 -0.8904
11912TIP3    H257228   2.400   1.705  17.580 -0.2583 -1.5079 -0.9310
11913TIP3   OH257229   2.457   2.859   1.766  0.1613  0.3582  0.1987
11913TIP3    H157230   2.385   2.802   1.741  0.2794  0.3139 -0.0413
11913TIP3    H257231   2.415   2.942   1.787  0.0159  0.2609  0.2903
11914TIP3   OH257232   3.191   2.450  43.291  0.9811 -0.0295  0.5235
11914TIP3    H157233   3.119   2.508  43.315  0.4779 -0.5307  0.2371
11914TIP3    H257234   3.232   2.426  43.375 -0.0063 -0.7991  0.8004
11915TIP3   OH257235   3.076   0.251  13.149 -0.4104 -0.2072  0.1426
11915TIP3    H157236   3.071   0.157  13.129 -1.3411 -0.0549 -0.4017
11915TIP3    H257237   3.141   0.257  13.219 -0.9451 -1.3546  0.7705
11916TIP3   OH257238   2.731   2.612   1.157 -0.6752 -0.1248  0.2032
11916TIP3    H157239   2.695   2.554   1.224 -0.5846 -1.1003 -0.5616
11916TIP3    H257240   2.757   2.690   1.204 -0.1829 -0.9683  1.3865
11917TIP3   OH257241   1.481   0.085  48.971  0.4596  0.0249 -0.9310
11917TIP3    H157242   1.547   0.049  49.030  0.8601  0.4087 -1.1393
11917TIP3    H257243   1.530   0.111  48.893  0.5345  2.8199 -0.0496
11918TIP3   OH257244   2.356   2.803   5.603  0.0799 -0.2359  0.0950
11918TIP3    H157245   2.408   2.797   5.523  0.2578  2.6293 -0.1015
11918TIP3    H257246   2.298   2.877   5.588 -1.4525 -1.0226  1.7886
11919TIP3   OH257247   2.198   1.463  11.165 -0.4074 -0.5078  0.7249
11919TIP3    H157248   2.129   1.439  11.103 -1.0911  0.6383  1.0164
11919TIP3    H257249   2.166   1.542  11.207  1.7248  0.9118 -0.1733
11920TIP3   OH257250   0.840   2.288  53.438 -0.7013  0.5537 -0.2736
11920TIP3    H157251   0.927   2.249  53.447  0.2578  2.6612  0.1638
11920TIP3    H257252   0.801   2.280  53.525 -0.3352  0.9605 -0.0712
11921TIP3   OH257253   3.381   0.313  20.241  0.1074 -0.2818  0.0328
11921TIP3    H157254   3.314   0.329  20.308  0.6855  2.7782  0.0412
11921TIP3    H257255   3.464   0.330  20.286  0.6493 -0.4845 -0.8746
11922TIP3   OH257256   3.186   1.563  55.046  0.2965  0.4797  0.4315
11922TIP3    H157257   3.243   1.622  54.997  0.6614  0.1018  0.3952
11922TIP3    H257258   3.214   1.475  55.020 -0.7084  0.2883 -0.0556
11923TIP3   OH257259   2.896   2.042  21.325 -0.0735 -0.1365  0.4565
11923TIP3    H157260   2.918   2.132  21.301 -1.9467 -0.0380 -1.1001
11923TIP3    H257261   2.829   2.051  21.392 -0.1445 -0.3863  0.4192
11924TIP3   OH257262   2.089   0.647  51.496  0.0044  0.0688 -0.0752
11924TIP3    H157263   2.121   0.736  51.507  1.7919 -0.4798 -0.5277
11924TIP3    H257264   2.062   0.642  51.404 -3.3641  1.0807  0.7268
11925TIP3   OH257265   2.137   2.626  18.686 -0.1075 -0.6343 -0.0924
11925TIP3    H157266   2.080   2.576  18.745 -0.9665 -0.7256 -0.9727
11925TIP3    H257267   2.145   2.571  18.608 -2.5153  1.2599 -1.8282
11926TIP3   OH257268   2.268   1.823  48.709  0.1089  0.1809 -0.8202
11926TIP3    H157269   2.227   1.874  48.779  1.1766 -0.0928  0.0396
11926TIP3    H257270   2.215   1.840  48.631 -2.6543 -1.4837  0.5520
11927TIP3   OH257271   2.955   2.287  43.250  0.2434  0.5200  0.2860
11927TIP3    H157272   2.980   2.215  43.191 -0.5313 -0.6274  1.2920
11927TIP3    H257273   3.035   2.338  43.262  0.8462 -0.2516 -0.3731
11928TIP3   OH257274   0.065   1.776   0.887 -0.6490  0.1410 -0.4620
11928TIP3    H157275  -0.024   1.794   0.917 -0.5760  0.3510 -0.3685
11928TIP3    H257276   0.118   1.846   0.926 -0.7880  1.3681 -2.3348
11929TIP3   OH257277   1.682   1.437   0.103  0.3808 -0.4632 -0.0404
11929TIP3    H157278   1.592   1.466   0.087 -0.0416 -1.1614  0.9992
11929TIP3    H257279   1.682   1.405   0.193  1.5794 -0.8428 -0.1522
11930TIP3   OH257280   2.693   2.831  63.252 -0.6485 -0.5000 -0.3451
11930TIP3    H157281   2.728   2.906  63.301 -1.3536  0.2429 -0.9409
11930TIP3    H257282   2.619   2.868  63.202  0.5617 -1.0109 -2.6418
11931TIP3   OH257283   0.659   1.918  35.900  0.3254 -0.1950 -0.3812
11931TIP3    H157284   0.595   1.881  35.961  0.2581  0.0248 -0.3174
11931TIP3    H257285   0.613   1.923  35.816  0.5585 -0.9106 -0.5571
11932TIP3   OH257286   2.380   2.731   7.580 -0.5953 -0.4645  0.7136
11932TIP3    H157287   2.322   2.703   7.510 -0.0960  0.5374 -0.1204
11932TIP3    H257288   2.393   2.824   7.565 -1.1636 -0.0185  2.6438
11933TIP3   OH257289   1.936   2.777  45.533  0.1003 -0.6023 -0.2786
11933TIP3    H157290   1.870   2.770  45.602 -0.3050 -1.6830 -0.7625
11933TIP3    H257291   1.910   2.713  45.467 -0.5442  1.6022 -2.3221
11934TIP3   OH257292   2.216   1.971  11.154 -0.0010 -0.6291 -0.3146
11934TIP3    H157293   2.283   1.949  11.090  0.7177  1.2633 -0.2743
11934TIP3    H257294   2.262   2.026  11.219 -1.3343 -0.1859  0.2875
11935TIP3   OH257295   0.796   0.527  56.461  0.2808 -0.0505 -0.1835
11935TIP3    H157296   0.787   0.594  56.529 -0.5299 -0.9108  0.6049
11935TIP3    H257297   0.747   0.561  56.386  1.2290  0.9376 -0.3585
11936TIP3   OH257298   1.578   2.213  20.721 -0.6176  0.7285  0.6698
11936TIP3    H157299   1.628   2.211  20.638 -0.2642 -1.4569  0.8795
11936TIP3    H257300   1.539   2.301  20.723  0.7385  1.4383 -0.9883
11937TIP3   OH257301   3.300   1.793  18.512  0.2229  0.3346  0.1374
11937TIP3    H157302   3.204   1.796  18.515  0.2403  0.4106  1.4355
11937TIP3    H257303   3.327   1.827  18.598  1.3396 -1.7669  0.6984
11938TIP3   OH257304   0.019   0.233  54.077 -0.0767  0.3107  0.1654
11938TIP3    H157305   0.102   0.274  54.052  1.5863 -1.4890  2.2672
11938TIP3    H257306  -0.002   0.176  54.003  1.3100 -0.1632  0.0874
11939TIP3   OH257307   0.045   0.291  59.935 -0.0325  0.5114  0.1579
11939TIP3    H157308   0.094   0.370  59.912 -1.0783  0.7986 -1.2203
11939TIP3    H257309  -0.019   0.321  60.000 -0.2250  0.7460 -0.1334
11940TIP3   OH257310   1.278   2.812  13.240  0.0318  0.1669  0.4971
11940TIP3    H157311   1.210   2.745  13.249 -0.5702  0.9236  1.9972
11940TIP3    H257312   1.333   2.781  13.168 -2.2826 -0.1289 -1.2847
11941TIP3   OH257313   1.580   3.072   9.729  0.3136  0.0764 -0.2191
11941TIP3    H157314   1.537   3.053   9.813  0.2034  2.8967  0.4699
11941TIP3    H257315   1.649   3.006   9.722 -0.5412 -1.0752  1.3950
11942TIP3   OH257316   2.931   0.794  43.652  0.0165 -0.5018 -0.1158
11942TIP3    H157317   2.999   0.856  43.678 -1.3700  1.6816 -1.4474
11942TIP3    H257318   2.979   0.714  43.632  1.9118  0.1967  1.2800
11943TIP3   OH257319   2.263   1.802  10.008  0.3617 -0.5683  0.4618
11943TIP3    H157320   2.270   1.896   9.991 -0.0883  0.0035  2.9457
11943TIP3    H257321   2.327   1.785  10.077  0.4027 -2.0895  0.0879
11944TIP3   OH257322   3.280   0.639  42.188  0.0375  0.1240 -0.0334
11944TIP3    H157323   3.307   0.726  42.159 -0.3065 -0.0544 -0.9090
11944TIP3    H257324   3.188   0.633  42.163  0.1241 -0.5820 -0.1937
11945TIP3   OH257325   1.304   1.705  49.046  0.0748 -0.1962 -0.2814
11945TIP3    H157326   1.256   1.687  48.965  1.2114 -0.2446 -0.9705
11945TIP3    H257327   1.341   1.621  49.071 -1.5063 -0.5241  1.1661
11946TIP3   OH257328   0.551   2.067   6.841 -0.2690  0.1744 -0.1484
11946TIP3    H157329   0.526   1.996   6.900 -1.0722  1.0197  0.5740
11946TIP3    H257330   0.484   2.134   6.856  0.3625  0.9989 -0.9536
11947TIP3   OH257331   3.228   2.655  61.046 -0.1546  0.1494 -0.6691
11947TIP3    H157332   3.132   2.658  61.053 -0.2567 -1.1943 -1.2364
11947TIP3    H257333   3.252   2.572  61.088  0.7986  0.5937 -0.3030
11948TIP3   OH257334   2.710   2.885  66.030  0.3796  0.1455 -0.3592
11948TIP3    H157335   2.744   2.975  66.034 -0.1867  0.3312  1.0251
11948TIP3    H257336   2.781   2.831  66.066 -0.0123  0.2885  0.6502
11949TIP3   OH257337   3.235   3.319  59.552  0.4240  0.3517  0.6973
11949TIP3    H157338   3.185   3.355  59.626 -0.3420 -0.4300  0.5732
11949TIP3    H257339   3.191   3.237  59.531  1.7018 -0.3022  0.4914
11950TIP3   OH257340   2.035   1.329  58.891  0.1822  0.2272 -0.4537
11950TIP3    H157341   2.080   1.411  58.871  1.4622  0.1462  1.7512
11950TIP3    H257342   2.103   1.262  58.882  0.0317 -0.1490  0.9466
11951TIP3   OH257343   0.867   2.166   8.591  0.0674 -0.6778  0.0687
11951TIP3    H157344   0.812   2.243   8.605  0.3274 -0.1278 -1.7691
11951TIP3    H257345   0.810   2.104   8.545  0.4552 -0.7986 -0.2509
11952TIP3   OH257346   0.395   0.878   4.132  0.1352 -0.0027 -0.3150
11952TIP3    H157347   0.442   0.844   4.056  0.8041  0.8388 -0.2925
11952TIP3    H257348   0.423   0.970   4.139  0.2662 -0.1239  1.0757
11953TIP3   OH257349   1.962   1.693  45.249 -0.1710 -0.6933 -0.1602
11953TIP3    H157350   2.051   1.728  45.253 -0.7552  0.8062  0.4113
11953TIP3    H257351   1.931   1.718  45.162 -0.7599  0.7454  0.4242
11954TIP3   OH257352   1.033   1.130  43.257  0.2692 -0.2765 -0.0181
11954TIP3    H157353   1.052   1.208  43.205  0.1461 -0.6329 -0.5999
11954TIP3    H257354   1.010   1.063  43.193  4.7932 -2.1811 -0.0460
11955TIP3   OH257355   3.140   2.246  51.809 -0.1590 -0.3308 -0.4455
11955TIP3    H157356   3.171   2.337  51.817  0.3847 -0.4107 -1.4242
11955TIP3    H257357   3.213   2.200  51.769 -0.7542 -1.0105 -0.7686
11956TIP3   OH257358   0.945   1.214  63.213  0.0050 -0.0995  0.1102
11956TIP3    H157359   0.875   1.197  63.277 -0.1019 -1.3123 -0.3191
11956TIP3    H257360   1.019   1.162  63.243  0.6205  0.8743  0.3365
11957TIP3   OH257361   1.871   2.824   3.293  0.5641 -0.2263 -0.3074
11957TIP3    H157362   1.868   2.732   3.317  0.7430  0.0387  0.8030
11957TIP3    H257363   1.963   2.849   3.304  0.5460  0.0469 -0.7513
11958TIP3   OH257364   2.832   0.112  15.011  0.1095 -0.3254 -0.0078
11958TIP3    H157365   2.769   0.184  15.010 -2.0474 -1.8190  4.2693
11958TIP3    H257366   2.815   0.065  14.929 -2.4463  0.8444 -0.2415
11959TIP3   OH257367   2.204   1.899   1.846  0.4719  0.4922 -0.1784
11959TIP3    H157368   2.286   1.860   1.816 -0.9110 -1.1014 -2.0621
11959TIP3    H257369   2.194   1.866   1.935  0.4378 -1.7534 -0.9602
11960TIP3   OH257370   0.900   2.579   8.639  0.1446  0.7579 -0.0006
11960TIP3    H157371   0.886   2.654   8.581 -1.5661  0.4963  0.0125
11960TIP3    H257372   0.873   2.503   8.587 -1.3371  0.5072  1.0746
11961TIP3   OH257373   3.449   1.152  45.140  0.0008  0.6203 -0.4507
11961TIP3    H157374   3.504   1.130  45.215 -1.5566 -1.3467  0.2367
11961TIP3    H257375   3.370   1.190  45.179 -1.8666 -2.5887 -0.7240
11962TIP3   OH257376   0.288   0.822  43.521  0.4382 -0.0804 -0.3472
11962TIP3    H157377   0.328   0.735  43.519  0.0561 -0.2484 -0.6945
11962TIP3    H257378   0.221   0.816  43.589  0.2463 -0.1298 -0.5410
11963TIP3   OH257379   2.296   2.188  65.724  0.6412  0.1794 -0.4095
11963TIP3    H157380   2.320   2.129  65.795 -1.3339 -0.2274 -0.0214
11963TIP3    H257381   2.278   2.272  65.767  0.0334  0.0957 -0.4909
11964TIP3   OH257382   1.765   1.266   7.260  0.2027 -0.4305 -0.1188
11964TIP3    H157383   1.798   1.196   7.316 -1.2311 -1.0603 -0.0211
11964TIP3    H257384   1.822   1.265   7.183  0.4444 -1.4336  0.0620
11965TIP3   OH257385   2.734   3.011  14.447  0.3811  0.2758 -0.4928
11965TIP3    H157386   2.825   3.039  14.445 -0.0557  1.8049 -0.3749
11965TIP3    H257387   2.691   3.063  14.379 -0.2494 -1.0420 -1.1334
11966TIP3   OH257388   0.902   1.061  46.432  0.3757  0.2305 -0.1527
11966TIP3    H157389   0.941   1.014  46.359 -0.2618  1.7221 -1.5309
11966TIP3    H257390   0.966   1.128  46.455 -0.0413  0.7138 -0.3647
11967TIP3   OH257391   0.986   2.628  58.944  0.4009  0.1340  0.3893
11967TIP3    H157392   0.982   2.649  59.038  1.6882  0.2131  0.4380
11967TIP3    H257393   0.933   2.549  58.935 -2.4018  1.8458  0.6305
11968TIP3   OH257394   0.115   1.173  15.353 -0.2900  0.3309 -0.5676
11968TIP3    H157395   0.050   1.213  15.411 -1.0174 -0.2039 -1.0053
11968TIP3    H257396   0.160   1.248  15.312 -0.6447  0.7003 -0.2863
11969TIP3   OH257397   3.223   3.333  51.195  0.2841 -0.2565  0.0777
11969TIP3    H157398   3.182   3.416  51.218 -1.9135 -0.9368 -1.0529
11969TIP3    H257399   3.271   3.350  51.114  0.4285  0.0608  0.2292
11970TIP3   OH257400   0.271   1.734  12.338  0.1841  0.1633 -0.1012
11970TIP3    H157401   0.215   1.661  12.311 -0.6360  1.2281 -1.4363
11970TIP3    H257402   0.212   1.809  12.343  1.4215  1.3130 -1.4895
11971TIP3   OH257403   2.618   3.050  61.516 -0.6410  0.6399 -0.4058
11971TIP3    H157404   2.551   3.119  61.516 -1.5608 -0.1966  0.9479
11971TIP3    H257405   2.585   2.985  61.578  1.5595  0.3089  0.5049
11972TIP3   OH257406   1.418   0.039  65.068  0.3483 -0.4317  0.0832
11972TIP3    H157407   1.324   0.028  65.050  0.7062 -1.3796 -1.3924
11972TIP3    H257408   1.428   0.014  65.160 -0.6214 -1.9075 -0.1714
11973TIP3   OH257409   2.105   2.321   7.998 -0.7746 -0.0226 -0.3468
11973TIP3    H157410   2.115   2.414   8.018 -0.5151  0.0030 -0.5802
11973TIP3    H257411   2.128   2.314   7.905 -0.6968 -0.3330 -0.3049
11974TIP3   OH257412   2.920   2.800  47.493 -0.5578  0.0054 -0.1244
11974TIP3    H157413   2.980   2.820  47.421 -0.3277 -0.0729  0.0431
11974TIP3    H257414   2.890   2.885  47.525 -0.0480  0.0696  0.1971
11975TIP3   OH257415   0.381   0.201   4.708 -0.2930 -0.2581  0.2560
11975TIP3    H157416   0.316   0.219   4.640 -0.8370  0.4928  0.9572
11975TIP3    H257417   0.465   0.219   4.665 -0.6718  1.0228  0.0086
11976TIP3   OH257418   3.313   2.468  22.390 -0.2962 -0.2135  0.3351
11976TIP3    H157419   3.278   2.551  22.423 -0.2892 -0.6605  1.4990
11976TIP3    H257420   3.349   2.425  22.467 -0.1206 -1.2170 -0.2939
11977TIP3   OH257421   1.831   0.632  60.559 -0.2854  0.3964 -0.5232
11977TIP3    H157422   1.771   0.575  60.512 -2.9246  1.4346  1.3548
11977TIP3    H257423   1.775   0.699  60.597  2.3019  2.3769  0.0626
11978TIP3   OH257424   1.583   3.171  63.569 -0.8232 -0.0721  0.1638
11978TIP3    H157425   1.519   3.106  63.540 -1.3015 -0.3663  1.7725
11978TIP3    H257426   1.535   3.254  63.569 -0.7924 -0.0539  0.0264
11979TIP3   OH257427   1.955   3.039   6.454 -0.9517  0.3466 -0.5708
11979TIP3    H157428   1.907   2.957   6.459 -1.6626  0.7625 -0.4753
11979TIP3    H257429   1.979   3.047   6.361  0.0222 -0.4645 -0.4045
11980TIP3   OH257430   1.324   2.454  63.133 -0.1281 -0.2827 -0.4388
11980TIP3    H157431   1.284   2.494  63.211  0.8603 -1.6450  0.8148
11980TIP3    H257432   1.262   2.386  63.108  1.1439 -2.2360  1.3658
11981TIP3   OH257433   0.728   2.480  42.257  0.1237 -0.3225  0.9617
11981TIP3    H157434   0.789   2.534  42.207  0.0944 -0.2360  1.0210
11981TIP3    H257435   0.652   2.469  42.200 -0.5911  1.0962  1.5897
11982TIP3   OH257436   1.649   2.092  43.298 -0.2799  0.4288 -0.1423
11982TIP3    H157437   1.630   2.150  43.372  1.5474 -0.4510  1.1107
11982TIP3    H257438   1.575   2.031  43.294 -1.3600  1.7324 -0.3546
11983TIP3   OH257439   2.470   2.427   3.273 -0.3362 -0.3686 -0.5886
11983TIP3    H157440   2.413   2.432   3.195  0.5439  0.6314 -1.1915
11983TIP3    H257441   2.446   2.344   3.314 -2.4911  0.1594 -0.6106
11984TIP3   OH257442   0.341   1.820  63.470 -0.2433  0.6366  0.5650
11984TIP3    H157443   0.351   1.784  63.381  0.3444  2.5714 -0.2167
11984TIP3    H257444   0.384   1.906  63.465  1.1597  0.1844  3.1467
11985TIP3   OH257445   2.556   2.360  56.062 -0.1583  0.2570 -0.2702
11985TIP3    H157446   2.530   2.300  55.992  1.4970 -2.0953  0.9490
11985TIP3    H257447   2.652   2.367  56.053  0.2244 -0.8108  2.1403
11986TIP3   OH257448   3.045   0.312  57.261 -0.1989  0.0147 -0.3258
11986TIP3    H157449   2.984   0.382  57.282  0.1771  0.3127 -0.2098
11986TIP3    H257450   2.993   0.248  57.213 -0.8776 -0.2833  0.7656
11987TIP3   OH257451   1.776   0.834  59.218  0.2967 -0.5075 -0.4229
11987TIP3    H157452   1.767   0.739  59.207 -0.9759 -0.6025  1.0668
11987TIP3    H257453   1.865   0.847  59.250  0.1760 -1.3273  0.2843
11988TIP3   OH257454   0.163   0.482  55.775 -0.4188  0.1870  0.2434
11988TIP3    H157455   0.103   0.474  55.849 -1.6403 -1.9946 -0.8968
11988TIP3    H257456   0.109   0.515  55.703 -0.0248 -0.8328 -0.5306
11989TIP3   OH257457   0.879   3.396  18.793  0.3706 -0.4533 -0.4935
11989TIP3    H157458   0.870   3.435  18.706  0.7368  0.1083 -0.2877
11989TIP3    H257459   0.799   3.421  18.839  0.1855 -0.7343 -0.6566
11990TIP3   OH257460   2.718   0.432  55.445  0.5378 -0.2583 -0.4502
11990TIP3    H157461   2.630   0.451  55.476  0.4283 -0.4842 -0.6175
11990TIP3    H257462   2.767   0.514  55.457  0.5650 -0.4058  0.5307
11991TIP3   OH257463   2.568   0.610  18.271 -0.1991 -0.4308 -0.4242
11991TIP3    H157464   2.630   0.579  18.338  0.2072 -0.5762 -0.8591
11991TIP3    H257465   2.539   0.530  18.227  0.0388 -0.2874 -0.8502
11992TIP3   OH257466   1.741   0.574  54.271  0.4819  0.4155 -0.5161
11992TIP3    H157467   1.832   0.543  54.277 -0.3786 -2.1225  0.7016
11992TIP3    H257468   1.749   0.669  54.276  3.0095  0.2353  0.8944
11993TIP3   OH257469   0.120   3.210  10.585 -0.1644  0.2537 -0.2698
11993TIP3    H157470   0.189   3.275  10.596  0.1145 -0.0811  0.0019
11993TIP3    H257471   0.137   3.171  10.499  0.3118 -0.1965  0.0196
11994TIP3   OH257472   1.058   1.929  43.360  0.0004 -0.1978 -0.4921
11994TIP3    H157473   1.012   1.853  43.324  1.1214 -0.6085 -1.0907
11994TIP3    H257474   1.141   1.932  43.313  0.7520  0.3211  0.8098
11995TIP3   OH257475   0.984   0.803  13.317  0.6339 -0.2674 -0.3617
11995TIP3    H157476   1.074   0.815  13.348  0.2277 -0.1147  0.8378
11995TIP3    H257477   0.977   0.710  13.300  0.2864 -0.7873  2.1533
11996TIP3   OH257478   2.436   1.548   1.042 -0.0507 -0.4758 -0.1542
11996TIP3    H157479   2.374   1.594   0.985 -2.5987 -2.8343  0.4534
11996TIP3    H257480   2.409   1.573   1.130 -1.0027 -2.3643  0.1562
11997TIP3   OH257481   1.877   2.693  58.550  0.2055 -0.0503 -0.1416
11997TIP3    H157482   1.838   2.629  58.610 -1.8101  1.0315 -0.2159
11997TIP3    H257483   1.803   2.742  58.516  1.6098  1.6581 -0.8917
11998TIP3   OH257484   1.843   2.266  22.173 -0.2622 -0.5978 -0.2175
11998TIP3    H157485   1.851   2.324  22.098  1.3425 -0.9332 -0.3471
11998TIP3    H257486   1.775   2.203  22.149 -3.8304  2.4878  0.8572
11999TIP3   OH257487   0.874   1.598  51.267  0.4939  0.2744 -0.0037
11999TIP3    H157488   0.798   1.542  51.283  0.3816  0.9395  2.0772
11999TIP3    H257489   0.934   1.543  51.217  0.0310 -1.4185  1.2160
12000TIP3   OH257490   1.603   2.771  17.099 -0.2730 -0.9441 -0.9516
12000TIP3    H157491   1.639   2.696  17.147 -1.5231 -1.7926 -1.3017
12000TIP3    H257492   1.613   2.747  17.007  1.9672  0.6060 -1.2074
12001TIP3   OH257493   2.910   1.150   2.961 -0.2424  0.0130  0.3714
12001TIP3    H157494   2.957   1.138   3.043  0.1119  0.3418  0.2251
12001TIP3    H257495   2.840   1.085   2.963 -0.1274 -0.1009  0.8505
12002TIP3   OH257496   0.502   2.695  22.627  0.1956  0.4282  0.0388
12002TIP3    H157497   0.567   2.731  22.567 -1.5467  0.9305 -1.6596
12002TIP3    H257498   0.496   2.602  22.603  0.6048  0.2753  0.5148
12003TIP3   OH257499   0.604   1.375  16.799 -0.9558  0.4640  0.2379
12003TIP3    H157500   0.574   1.304  16.742 -0.8785  1.7251 -1.4647
12003TIP3    H257501   0.627   1.446  16.738  1.9230  0.8878  1.6584
12004TIP3   OH257502   1.057   2.977  16.806 -0.0748 -0.5564  0.4860
12004TIP3    H157503   1.005   2.924  16.746  0.0098  0.1175 -0.1946
12004TIP3    H257504   1.143   2.934  16.806  0.5444  0.5209 -1.4430
12005TIP3   OH257505   0.830   1.846   7.830 -0.0614  0.5530  0.1558
12005TIP3    H157506   0.744   1.805   7.819  0.6623 -1.0551  0.1942
12005TIP3    H257507   0.850   1.884   7.745  0.0109 -0.7575 -0.4333
12006TIP3   OH257508   1.961   1.430   2.049  0.3504 -0.3779  0.2168
12006TIP3    H157509   1.910   1.474   1.980 -0.7065 -2.8554 -0.7234
12006TIP3    H257510   1.895   1.385   2.102  1.4016 -1.6508  0.4870
12007TIP3   OH257511   1.009   2.263  15.613  0.4410  0.3962  0.2252
12007TIP3    H157512   1.090   2.262  15.663  0.3922  2.4110  0.4462
12007TIP3    H257513   0.942   2.287  15.677 -0.2001 -0.3814 -0.1339
12008TIP3   OH257514   3.093   3.002  56.060  0.0193 -0.0713  0.1656
12008TIP3    H157515   3.109   3.090  56.095 -3.1335  1.1282 -1.0708
12008TIP3    H257516   3.154   2.994  55.986  0.4109  1.0380  0.3570
12009TIP3   OH257517   1.690   0.428  61.788  0.3251  0.0291 -0.2629
12009TIP3    H157518   1.652   0.382  61.864  0.6298  1.4352  0.7917
12009TIP3    H257519   1.747   0.495  61.827 -0.0461  1.2441 -1.7207
12010TIP3   OH257520   0.844   2.489  49.177 -0.1441 -0.1380 -0.3862
12010TIP3    H157521   0.929   2.531  49.170  0.2857 -0.9752 -0.2517
12010TIP3    H257522   0.796   2.517  49.099 -0.0806  1.0483 -0.0253
12011TIP3   OH257523   0.102   0.764   3.573  0.2802  0.0640 -0.0604
12011TIP3    H157524   0.082   0.714   3.652  0.7091  1.5898  1.0638
12011TIP3    H257525   0.157   0.706   3.521 -2.1003 -1.9683 -0.4998
12012TIP3   OH257526   1.395   1.619  66.304  0.2856 -0.0014 -0.4907
12012TIP3    H157527   1.455   1.634  66.378 -0.5096 -1.1170  0.4102
12012TIP3    H257528   1.388   1.705  66.262  1.9617  0.3142 -0.2232
12013TIP3   OH257529   0.344   3.020  58.093  0.1667 -0.1663  0.6246
12013TIP3    H157530   0.403   3.009  58.019 -1.2751 -0.2915 -0.5611
12013TIP3    H257531   0.258   3.033  58.053 -0.6177 -0.0056  2.2803
12014TIP3   OH257532   1.187   2.419  18.533  0.3219  0.1539  0.4704
12014TIP3    H157533   1.167   2.512  18.521  3.4094  0.7171 -1.5175
12014TIP3    H257534   1.173   2.381  18.446  1.0117 -0.7877  0.7540
12015TIP3   OH257535   1.043   3.268   6.001  0.1169 -0.6160  0.3208
12015TIP3    H157536   0.967   3.271   6.059  0.0469 -0.2006  0.2098
12015TIP3    H257537   1.032   3.344   5.944 -0.2652 -1.5014 -0.8078
12016TIP3   OH257538   2.267   0.973  20.476 -0.1461 -0.4452  1.0946
12016TIP3    H157539   2.196   1.037  20.477 -1.5071 -1.8411 -0.1567
12016TIP3    H257540   2.287   0.958  20.568  1.4760  2.9907  1.4811
12017TIP3   OH257541   3.296   1.832  55.339 -0.2444 -0.1761  0.3500
12017TIP3    H157542   3.265   1.863  55.424 -0.4937  0.6898 -0.0543
12017TIP3    H257543   3.336   1.908  55.298  2.0741 -1.1446  0.6695
12018TIP3   OH257544   1.976   1.722  49.196  0.2815  1.2051  0.3948
12018TIP3    H157545   2.021   1.667  49.260 -1.9176  0.6240  1.5162
12018TIP3    H257546   2.018   1.701  49.112 -1.0900 -3.0600  0.5451
12019TIP3   OH257547   0.091   1.095  10.992  0.4754 -0.3822 -0.5305
12019TIP3    H157548   0.073   1.186  11.016 -1.3072 -1.4022  2.4980
12019TIP3    H257549   0.033   1.078  10.918 -0.0383  0.6307 -0.3751
12020TIP3   OH257550   3.199   0.335  53.870  0.0768  0.2399 -0.8670
12020TIP3    H157551   3.210   0.390  53.948  1.8800  0.5434 -1.2946
12020TIP3    H257552   3.121   0.371  53.827 -0.7471  0.2848  0.5922
12021TIP3   OH257553   1.866   2.110  63.247 -0.0929 -0.6097  0.2483
12021TIP3    H157554   1.884   2.019  63.269  0.3192 -1.0670 -1.7831
12021TIP3    H257555   1.951   2.145  63.219 -0.1248  0.5869  1.5580
12022TIP3   OH257556   1.125   2.283  52.302 -0.2797  0.3464 -0.0167
12022TIP3    H157557   1.033   2.309  52.311 -1.1116 -2.0017 -0.8713
12022TIP3    H257558   1.145   2.238  52.384  0.3277  1.3719  0.4163
12023TIP3   OH257559   2.671   2.429  51.551 -0.2911 -0.7398  0.3634
12023TIP3    H157560   2.597   2.484  51.575  0.1805  0.0120  0.1507
12023TIP3    H257561   2.636   2.340  51.549 -1.7404 -0.1777 -1.9708
12024TIP3   OH257562   2.559   1.036  60.097 -0.0755 -0.4800 -0.0672
12024TIP3    H157563   2.518   0.981  60.030  0.3549  2.2164 -2.7270
12024TIP3    H257564   2.553   1.125  60.062 -0.9084  1.3244  4.0515
12025TIP3   OH257565   3.410   2.907  50.385  0.4073 -0.0090  0.0399
12025TIP3    H157566   3.428   2.886  50.293  1.3080  1.3488 -0.1161
12025TIP3    H257567   3.405   3.002  50.387 -1.0038 -0.0782  1.1682
12026TIP3   OH257568   1.313   2.159  66.641  0.1502  0.6282 -0.4754
12026TIP3    H157569   1.287   2.090  66.702 -1.0674 -0.0313 -1.6897
12026TIP3    H257570   1.266   2.139  66.560  2.5086  0.8591 -2.0111
12027TIP3   OH257571   2.525   0.061  15.932 -0.2731 -0.1169  0.1535
12027TIP3    H157572   2.597  -0.001  15.929 -0.4659 -0.5942  2.9882
12027TIP3    H257573   2.447   0.007  15.945 -0.4343  0.6076  2.7472
12028TIP3   OH257574   2.761   1.715   3.574 -0.4574 -0.8649 -0.6363
12028TIP3    H157575   2.773   1.805   3.604  0.0675 -0.8787 -0.8058
12028TIP3    H257576   2.846   1.689   3.538 -0.7970 -1.1906 -1.2264
12029TIP3   OH257577   2.357   2.471  44.369  0.6942 -0.1003  0.0504
12029TIP3    H157578   2.378   2.465  44.462  0.5109  1.7192  0.2509
12029TIP3    H257579   2.262   2.465  44.365  0.5932  1.1220  0.1491
12030TIP3   OH257580   2.042   1.017  18.628 -0.1558  0.6231  0.1031
12030TIP3    H157581   1.959   1.048  18.592  0.6930  2.4286 -0.4017
12030TIP3    H257582   2.102   1.017  18.553 -0.3440 -3.6999 -0.3293
12031TIP3   OH257583   1.984   0.688  44.531  0.5050 -0.1175  0.1211
12031TIP3    H157584   2.007   0.676  44.623  1.3094  1.3411  0.1371
12031TIP3    H257585   1.945   0.604  44.505  2.6965 -1.5025  1.0426
12032TIP3   OH257586   1.517   0.737  19.491 -0.8433  0.1515 -0.5211
12032TIP3    H157587   1.595   0.690  19.517 -2.2862 -1.8679  0.4321
12032TIP3    H257588   1.527   0.824  19.528 -1.0892 -1.4465  3.8145
12033TIP3   OH257589   1.274   2.017  60.888 -0.3557  0.7744  0.4650
12033TIP3    H157590   1.224   2.002  60.808 -0.8053  0.9717  0.7089
12033TIP3    H257591   1.210   2.006  60.959  0.3740 -0.9757  0.8884
12034TIP3   OH257592   0.465   3.276  50.770 -0.5503 -0.0695 -0.1685
12034TIP3    H157593   0.384   3.304  50.813  0.5316  1.9665  0.6464
12034TIP3    H257594   0.461   3.317  50.683 -0.8130 -0.7552 -0.4882
12035TIP3   OH257595   2.876   0.404  60.689  0.0916  0.5757 -0.3890
12035TIP3    H157596   2.949   0.437  60.638  0.4255 -0.1956 -0.4344
12035TIP3    H257597   2.917   0.347  60.755 -0.4782 -0.0843 -0.5890
12036TIP3   OH257598   3.213   1.159  55.567 -0.1151  0.1842  0.3110
12036TIP3    H157599   3.218   1.251  55.594 -0.3372 -0.2085  1.7886
12036TIP3    H257600   3.287   1.117  55.610 -1.5230 -0.8205  1.8807
12037TIP3   OH257601   0.885   2.029  16.819  0.1030  0.2479  0.3239
12037TIP3    H157602   0.807   2.085  16.822 -1.8501 -2.1905 -1.5103
12037TIP3    H257603   0.894   2.005  16.727  3.0397  0.3526  0.4880
12038TIP3   OH257604   0.183   1.433  44.597  0.4229  0.5015  0.6753
12038TIP3    H157605   0.087   1.440  44.597  0.4988  2.0790 -1.0194
12038TIP3    H257606   0.211   1.493  44.667  0.2115  0.8507  0.4640
12039TIP3   OH257607   1.278   0.361  39.579  0.3553  0.2508 -0.1147
12039TIP3    H157608   1.363   0.390  39.545  0.6097  1.5178  1.4661
12039TIP3    H257609   1.251   0.432  39.638 -1.7942 -0.1417 -0.5666
12040TIP3   OH257610   0.039   2.142  21.700  0.5193 -0.5808  0.1682
12040TIP3    H157611   0.046   2.200  21.624  0.1956 -1.1449 -0.3023
12040TIP3    H257612   0.058   2.055  21.665 -3.4728 -1.5154 -0.2013
12041TIP3   OH257613   3.235   2.390  61.146  0.5562 -0.0881 -0.3085
12041TIP3    H157614   3.170   2.320  61.138 -0.2848  0.7546 -0.9687
12041TIP3    H257615   3.278   2.373  61.230  0.1500 -1.2090 -0.3135
12042TIP3   OH257616   1.112   3.264  46.493 -0.1105  0.5642  0.0826
12042TIP3    H157617   1.164   3.322  46.437 -1.7955  0.6061 -1.5018
12042TIP3    H257618   1.023   3.299  46.488 -0.3073  0.7378  3.0558
12043TIP3   OH257619   2.857   3.200  13.863  0.3109  0.0916  0.0261
12043TIP3    H157620   2.862   3.141  13.938  0.8656 -0.1162 -0.1740
12043TIP3    H257621   2.922   3.268  13.882 -0.8246  1.0656  0.6122
12044TIP3   OH257622   1.797   2.027  20.129  0.2433 -0.0429  0.1256
12044TIP3    H157623   1.849   2.073  20.195 -0.4183 -0.2006  0.7712
12044TIP3    H257624   1.709   2.062  20.139 -0.1870 -1.1386  0.3592
12045TIP3   OH257625   2.886   1.231  20.953 -0.4105  0.5702 -0.7600
12045TIP3    H157626   2.839   1.267  21.028  0.8572 -0.6783  0.6902
12045TIP3    H257627   2.951   1.297  20.931  0.2328  0.2986  0.2648
12046TIP3   OH257628   0.267   3.261  61.575 -0.0835 -0.2545 -0.6779
12046TIP3    H157629   0.336   3.319  61.545  0.7341 -0.9151 -0.1291
12046TIP3    H257630   0.201   3.264  61.506  0.4325  0.4853 -1.1508
12047TIP3   OH257631   2.805   2.203  19.056  0.0951  0.4784  0.2332
12047TIP3    H157632   2.804   2.110  19.032 -2.1951  0.6485 -0.5734
12047TIP3    H257633   2.771   2.205  19.145 -1.0612  0.6035 -0.1931
12048TIP3   OH257634   2.919   2.606  21.829  0.2653  0.2543 -0.1021
12048TIP3    H157635   2.920   2.680  21.769 -1.3088  0.4686  0.1005
12048TIP3    H257636   2.844   2.621  21.885 -2.6275 -3.3644 -2.5189
12049TIP3   OH257637   3.157   0.952  45.584  0.0196  0.6567  0.2371
12049TIP3    H157638   3.237   0.900  45.572 -0.6594 -1.2452  3.0084
12049TIP3    H257639   3.141   0.990  45.498  0.8137 -3.5079 -2.0641
12050TIP3   OH257640   1.231   2.825   8.734  0.0809 -0.0103 -0.6920
12050TIP3    H157641   1.235   2.839   8.640 -0.6868 -1.4257 -0.9647
12050TIP3    H257642   1.168   2.753   8.745  1.5620 -1.1550  0.7632
12051TIP3   OH257643   1.613   2.473  18.278 -0.5940 -0.0825  0.6859
12051TIP3    H157644   1.610   2.556  18.230 -1.8997 -0.2054  0.5047
12051TIP3    H257645   1.653   2.495  18.362 -0.5408  0.6528  0.4758
12052TIP3   OH257646   0.663   1.574  17.183 -0.2722 -0.1209 -0.2014
12052TIP3    H157647   0.627   1.495  17.144 -0.2050 -1.1867  1.7367
12052TIP3    H257648   0.752   1.580  17.149 -0.9828  0.3950 -2.0616
12053TIP3   OH257649   1.374   0.815  12.108 -0.0049  0.4630 -0.1527
12053TIP3    H157650   1.441   0.787  12.046  1.0227  0.4705  0.9205
12053TIP3    H257651   1.412   0.891  12.153 -0.1552 -0.3395  1.4061
12054TIP3   OH257652   1.981   0.903  14.379 -0.6509  0.2508 -0.4377
12054TIP3    H157653   2.037   0.976  14.355 -1.4818  0.7508 -0.9315
12054TIP3    H257654   1.938   0.878  14.297 -2.1718  0.7892  0.1491
12055TIP3   OH257655   1.866   2.513  50.545  0.1472  0.0296  0.3702
12055TIP3    H157656   1.947   2.541  50.502  1.2796 -2.8014  0.4888
12055TIP3    H257657   1.871   2.552  50.632  0.3977  1.4792 -0.2595
12056TIP3   OH257658   1.615   1.766  37.463  0.0509 -0.0498  0.0690
12056TIP3    H157659   1.668   1.844  37.482 -0.5030  0.3407  0.0382
12056TIP3    H257660   1.583   1.738  37.549  0.4927 -0.4268  0.1150
12057TIP3   OH257661   3.057   1.860  57.147  0.1036 -0.1341 -0.4237
12057TIP3    H157662   3.085   1.886  57.060  1.2480 -1.6515 -0.5458
12057TIP3    H257663   3.133   1.874  57.203 -0.6678  0.9838  0.3994
12058TIP3   OH257664   0.158   3.096  16.797  0.5011 -0.0763 -0.0851
12058TIP3    H157665   0.174   3.033  16.727 -1.9854 -1.2148  0.2623
12058TIP3    H257666   0.242   3.106  16.841  0.8173 -4.1690  0.6241
12059TIP3   OH257667   1.672   3.019  45.345  0.0304  0.4401 -0.4038
12059TIP3    H157668   1.714   3.044  45.263  1.2020  0.5548  0.2150
12059TIP3    H257669   1.578   3.034  45.329  0.4170  2.7424 -0.9540
12060TIP3   OH257670   0.776   1.328   3.590 -0.3885 -0.6693 -0.1755
12060TIP3    H157671   0.771   1.377   3.672 -0.3721 -0.9645  0.0027
12060TIP3    H257672   0.869   1.327   3.568 -0.3060 -1.1726  0.1625
12061TIP3   OH257673   1.892   1.545   8.716 -0.0210  0.1437  0.4970
12061TIP3    H157674   1.948   1.613   8.679  1.2315 -0.6481  0.8990
12061TIP3    H257675   1.952   1.474   8.740 -1.0405 -0.2528  2.0158
12062TIP3   OH257676   1.731   3.080  44.094 -0.2405 -0.3558 -0.0196
12062TIP3    H157677   1.790   3.143  44.137 -0.0221 -0.7429  0.2495
12062TIP3    H257678   1.646   3.096  44.134 -0.4606  0.6124 -0.8240
12063TIP3   OH257679   0.829   1.298  45.843 -0.3276 -0.1116  0.3330
12063TIP3    H157680   0.904   1.344  45.805 -0.7006  0.3299  0.1149
12063TIP3    H257681   0.774   1.368  45.879 -1.2469 -0.3136 -0.6190
12064TIP3   OH257682   2.468   1.651  14.699  0.2192 -0.1303  0.6686
12064TIP3    H157683   2.398   1.708  14.666  1.1827  1.1391  0.7402
12064TIP3    H257684   2.422   1.580  14.743 -1.0742 -0.5301 -1.1960
12065TIP3   OH257685   3.389   1.223  55.177 -0.0106 -0.1014  0.4678
12065TIP3    H157686   3.409   1.308  55.217 -1.3374  0.6021 -0.2962
12065TIP3    H257687   3.350   1.244  55.093  0.8050 -1.5244 -0.3047
12066TIP3   OH257688   2.796   2.028  54.389  0.1744 -0.3388 -0.0931
12066TIP3    H157689   2.704   2.046  54.370  0.4716  1.0117 -0.3329
12066TIP3    H257690   2.836   2.114  54.401  1.8459 -0.7525 -2.0351
12067TIP3   OH257691   0.378   3.160  48.736 -0.2473  0.3659  0.1430
12067TIP3    H157692   0.456   3.127  48.692 -0.0375  0.4622  0.4357
12067TIP3    H257693   0.399   3.155  48.829 -0.5199  0.5672  0.2180
12068TIP3   OH257694   3.332   0.699  22.180  0.5106 -0.0389 -0.5571
12068TIP3    H157695   3.261   0.749  22.221  0.9296  1.2163 -1.3321
12068TIP3    H257696   3.288   0.623  22.142 -0.5462  1.0539 -1.6027
12069TIP3   OH257697   3.426   1.634   8.113  0.2835 -0.0971 -0.0960
12069TIP3    H157698   3.516   1.617   8.084  0.3829  0.7502 -0.3153
12069TIP3    H257699   3.388   1.688   8.043  0.3113  1.3929  0.9755
12070TIP3   OH257700   2.868   3.388   1.025 -0.2061  0.6391 -0.0347
12070TIP3    H157701   2.841   3.421   0.939  2.3753  1.9061 -0.4432
12070TIP3    H257702   2.858   3.293   1.019 -0.7165  0.7645 -1.4858
12071TIP3   OH257703   3.373   1.458  66.661  0.0789  0.4420  0.2928
12071TIP3    H157704   3.410   1.414  66.584  1.5447  4.1354 -1.3323
12071TIP3    H257705   3.298   1.507  66.627  0.2925  1.5437  1.3377
12072TIP3   OH257706   2.868   0.042  17.830 -0.3185  0.2161  0.5205
12072TIP3    H157707   2.784  -0.002  17.846 -1.4615  1.9048 -0.4719
12072TIP3    H257708   2.917  -0.018  17.775 -2.1308  0.4267 -1.4382
12073TIP3   OH257709   0.730   2.597  20.867  0.3741  0.0044 -0.6382
12073TIP3    H157710   0.790   2.531  20.901  0.7714  1.2402  1.2500
12073TIP3    H257711   0.773   2.680  20.888 -1.1854  0.8897 -0.8189
12074TIP3   OH257712   2.507   2.711  55.786 -0.1618 -0.4791 -0.5454
12074TIP3    H157713   2.455   2.632  55.779  1.4013 -1.4331 -2.2964
12074TIP3    H257714   2.558   2.700  55.867  1.1164 -2.0191 -1.5034
12075TIP3   OH257715   3.216   3.065  19.939 -0.4989  0.1838 -0.1287
12075TIP3    H157716   3.222   3.044  19.846 -0.0040  0.2697 -0.1140
12075TIP3    H257717   3.229   3.160  19.944 -0.4666  0.1716  0.0333
12076TIP3   OH257718   1.897   2.327   7.753  0.0458  0.2519 -0.1247
12076TIP3    H157719   1.943   2.411   7.759 -1.4750  1.0416  1.1602
12076TIP3    H257720   1.884   2.300   7.844 -2.0714  0.1135 -0.4260
12077TIP3   OH257721   2.929   3.093  50.832  0.0745  0.5297 -0.4664
12077TIP3    H157722   2.837   3.086  50.855  0.2829  0.5375  0.4321
12077TIP3    H257723   2.956   3.005  50.809  0.1665  0.2420  0.6463
12078TIP3   OH257724   1.304   3.441   5.781 -0.0975 -0.4057  0.0367
12078TIP3    H157725   1.369   3.376   5.806 -1.4029 -2.4897 -1.5978
12078TIP3    H257726   1.296   3.499   5.857  1.3540 -1.9493  1.4334
12079TIP3   OH257727   2.106   0.636  45.024 -0.1880 -0.2090  0.2563
12079TIP3    H157728   2.035   0.673  45.076 -0.3795 -1.3545  0.8469
12079TIP3    H257729   2.063   0.569  44.970  0.1832  0.2296 -0.6004
12080TIP3   OH257730   0.935   2.133  62.004  0.0256  0.2359 -0.2329
12080TIP3    H157731   1.025   2.163  62.000 -0.5787  2.1931 -0.3160
12080TIP3    H257732   0.924   2.079  61.925  0.8481  0.8045 -0.7520
12081TIP3   OH257733   1.306   2.402  45.011 -0.3890  0.0004 -0.3456
12081TIP3    H157734   1.317   2.427  45.103  0.0228  0.6372 -0.5617
12081TIP3    H257735   1.347   2.316  45.005 -0.6645 -0.1702  0.1244
12082TIP3   OH257736   0.874   2.079   6.374  0.1468  0.9715 -0.3062
12082TIP3    H157737   0.805   2.013   6.369  0.2084  0.6630  1.9073
12082TIP3    H257738   0.838   2.155   6.327 -0.6599 -0.0125 -1.3149
12083TIP3   OH257739   1.560   1.564  17.416  0.1172 -0.6012 -0.2772
12083TIP3    H157740   1.478   1.609  17.432  0.2178 -0.8812  1.1989
12083TIP3    H257741   1.567   1.559  17.321 -1.8523 -1.1025 -0.4322
12084TIP3   OH257742   1.672   1.837  51.152  0.2701 -0.2734 -0.0556
12084TIP3    H157743   1.596   1.827  51.094  1.1768  1.2571 -1.6254
12084TIP3    H257744   1.686   1.932  51.155  2.5147 -0.5464 -0.3834
12085TIP3   OH257745   1.543   2.574  22.782  0.2123  0.2648 -0.3058
12085TIP3    H157746   1.508   2.641  22.840  1.0987  1.1433 -0.7617
12085TIP3    H257747   1.626   2.548  22.822  1.0428  1.1867 -1.3605
12086TIP3   OH257748   0.587   2.072  16.299 -0.2764  0.1001 -0.1139
12086TIP3    H157749   0.621   2.093  16.212  2.2321  1.8465  1.1756
12086TIP3    H257750   0.532   2.147  16.322 -0.2083  0.0602  0.1732
12087TIP3   OH257751   0.488   0.927  61.052 -0.3457 -0.0058 -0.2573
12087TIP3    H157752   0.574   0.927  61.094 -1.3780  2.2124  2.1510
12087TIP3    H257753   0.459   1.018  61.057 -2.9701 -0.7250 -0.7164
12088TIP3   OH257754   0.486   0.494   1.996 -0.0479 -0.1521 -0.1584
12088TIP3    H157755   0.481   0.403   1.967 -0.0701 -0.6094  1.2153
12088TIP3    H257756   0.395   0.519   2.013 -0.1909  0.6002 -1.8513
12089TIP3   OH257757   0.713   3.173  47.313 -0.9763  0.3599  0.1963
12089TIP3    H157758   0.721   3.082  47.287  0.9486 -0.0647  2.0157
12089TIP3    H257759   0.653   3.211  47.249 -1.9222 -2.1720 -0.5400
12090TIP3   OH257760   2.171   2.832  10.973  0.1722 -0.2806 -0.3383
12090TIP3    H157761   2.106   2.852  10.906  1.1415 -0.4900 -1.3756
12090TIP3    H257762   2.236   2.778  10.928  0.9457 -0.2683  0.7245
12091TIP3   OH257763   0.891   3.391  53.207 -0.5038 -0.5490  0.8416
12091TIP3    H157764   0.856   3.305  53.230 -2.4448  0.0519  0.2977
12091TIP3    H257765   0.875   3.445  53.284  3.5333 -1.3139  2.4636
12092TIP3   OH257766   1.124   3.431  49.501 -0.5048  0.6750 -0.2407
12092TIP3    H157767   1.143   3.491  49.430  0.7770  0.4648 -0.1045
12092TIP3    H257768   1.208   3.419  49.546 -0.9038 -0.5595  0.2349
12093TIP3   OH257769   1.452   2.363  62.293  0.3789 -0.0811  0.5588
12093TIP3    H157770   1.363   2.394  62.306 -0.0506 -1.3670  0.8082
12093TIP3    H257771   1.455   2.338  62.201  0.6118  0.3204  0.4529
12094TIP3   OH257772   1.727   1.522  45.224 -0.2977  0.0228 -0.4485
12094TIP3    H157773   1.741   1.476  45.141  0.6155 -2.2771  0.8958
12094TIP3    H257774   1.814   1.556  45.247 -0.7183  1.4103 -0.7937
12095TIP3   OH257775   1.023   0.680  62.132  0.0263 -0.2550  0.2038
12095TIP3    H157776   1.113   0.654  62.149  0.6398  0.7380 -1.3685
12095TIP3    H257777   0.990   0.614  62.071  0.0843  0.0553 -0.1658
12096TIP3   OH257778   1.069   1.601  44.496 -0.5160 -0.3925  0.3504
12096TIP3    H157779   1.025   1.614  44.412  0.1051 -2.0256 -0.2599
12096TIP3    H257780   1.153   1.646  44.485 -1.0080  0.6162  0.6291
12097TIP3   OH257781   2.814   2.846   2.149 -0.7008 -0.3389  0.4469
12097TIP3    H157782   2.731   2.847   2.102 -0.8072 -0.8993  0.6184
12097TIP3    H257783   2.881   2.850   2.081 -0.8585 -0.7715  0.2618
12098TIP3   OH257784   2.972   3.240  11.853  0.0430 -0.0864  0.7547
12098TIP3    H157785   2.899   3.277  11.803 -0.5104 -1.9102  0.1192
12098TIP3    H257786   3.050   3.279  11.814 -0.4009 -1.1175 -1.2901
12099TIP3   OH257787   2.398   0.945  49.786 -0.3603 -0.0400  0.4143
12099TIP3    H157788   2.344   1.001  49.731  1.2203  1.0723 -0.0795
12099TIP3    H257789   2.453   0.896  49.725 -0.8812 -1.2935  0.8986
12100TIP3   OH257790   2.015   2.001   7.911 -0.0779 -0.3972  0.2804
12100TIP3    H157791   2.027   1.959   7.826  1.8902 -0.1896  0.4060
12100TIP3    H257792   1.922   2.025   7.913 -0.0291  0.2414 -2.0999
12101TIP3   OH257793   0.374   0.578  58.891  1.0129  0.7079 -0.1141
12101TIP3    H157794   0.340   0.663  58.918 -0.3713 -0.3164  1.5585
12101TIP3    H257795   0.469   0.587  58.896  0.8873  2.1561 -0.0242
12102TIP3   OH257796   2.786   1.888  17.414  0.2013  0.0986  0.7607
12102TIP3    H157797   2.858   1.828  17.436  0.5655  0.1344 -0.2763
12102TIP3    H257798   2.829   1.971  17.398 -0.0514  0.0933  0.0173
12103TIP3   OH257799   0.230   0.171  46.553 -0.1197 -0.6962  0.2755
12103TIP3    H157800   0.247   0.086  46.513  1.3836  0.5555 -1.9806
12103TIP3    H257801   0.156   0.206  46.503 -0.4773 -0.5039  0.9274
12104TIP3   OH257802   0.187   1.029  44.428 -0.0400 -0.1106 -0.2852
12104TIP3    H157803   0.101   1.062  44.402  0.1766  1.3493  0.7317
12104TIP3    H257804   0.169   0.953  44.483 -0.5919 -0.9572 -1.5859
12105TIP3   OH257805   2.906   1.679  48.754  0.3552 -0.4138  0.5574
12105TIP3    H157806   2.825   1.630  48.766  0.6033 -0.8430  0.5349
12105TIP3    H257807   2.965   1.643  48.821  1.6519 -2.5807 -1.5635
12106TIP3   OH257808   3.159   1.959  58.134 -0.5634 -0.1621 -0.0870
12106TIP3    H157809   3.217   2.027  58.170 -0.2452 -0.8701  0.7826
12106TIP3    H257810   3.207   1.922  58.061 -0.6157  0.3555 -0.3862
12107TIP3   OH257811   2.644   1.721  16.078 -0.0954  0.1812 -0.1485
12107TIP3    H157812   2.587   1.770  16.019 -0.0618 -0.6145 -0.8536
12107TIP3    H257813   2.602   1.635  16.086  0.8050 -0.2959 -0.3948
12108TIP3   OH257814   1.334   2.100  45.929 -0.0712  0.6671  0.1224
12108TIP3    H157815   1.279   2.050  45.869 -0.3915 -0.3304  1.2218
12108TIP3    H257816   1.420   2.101  45.886 -0.1989 -0.3588 -0.1782
12109TIP3   OH257817   1.334   0.377  20.571  0.7848 -0.1211  0.4046
12109TIP3    H157818   1.306   0.285  20.577  3.0170 -0.9944 -1.1089
12109TIP3    H257819   1.430   0.372  20.570  1.1189  1.6811 -4.7597
12110TIP3   OH257820   1.163   1.541  48.293 -0.0811  0.3976  0.6100
12110TIP3    H157821   1.121   1.582  48.369  1.3934  1.3724  0.9161
12110TIP3    H257822   1.245   1.507  48.327  0.7935  1.2136 -0.6394
12111TIP3   OH257823   1.353   0.119  15.506 -0.1809  0.5832 -0.3936
12111TIP3    H157824   1.416   0.184  15.475 -0.1973 -0.0169 -1.7767
12111TIP3    H257825   1.372   0.109  15.599  1.4727  0.7233 -0.6924
12112TIP3   OH257826   1.341   0.395  53.900  0.1544  0.1276  0.3001
12112TIP3    H157827   1.392   0.380  53.980  1.4344 -3.8491 -0.9878
12112TIP3    H257828   1.406   0.409  53.832 -0.7471  0.2362 -0.5652
12113TIP3   OH257829   2.140   0.554  65.562 -0.5402 -0.2917  0.2489
12113TIP3    H157830   2.054   0.595  65.573 -0.4744 -0.1008  0.0551
12113TIP3    H257831   2.171   0.539  65.651 -0.0693  1.1144  0.3334
12114TIP3   OH257832   0.749   2.584   6.131 -0.0203 -0.2904 -0.4754
12114TIP3    H157833   0.740   2.503   6.181 -1.5719  0.0356 -0.1739
12114TIP3    H257834   0.792   2.557   6.050 -1.0517 -1.5467 -0.6404
12115TIP3   OH257835   3.126   2.919  53.118  0.0403  0.0255  0.3046
12115TIP3    H157836   3.172   2.945  53.198 -0.2711  0.5124  0.3263
12115TIP3    H257837   3.174   2.963  53.047  0.0408 -0.0410  0.2637
12116TIP3   OH257838   1.970   2.507  45.711 -0.1834 -0.4659 -0.9628
12116TIP3    H157839   1.971   2.512  45.616  0.3858 -0.0347 -0.9414
12116TIP3    H257840   2.027   2.433  45.732 -1.2910 -1.3553 -0.9877
12117TIP3   OH257841   1.743   1.776  49.418  0.1781 -0.0861  0.6614
12117TIP3    H157842   1.704   1.762  49.504  0.9148 -1.5884  0.7749
12117TIP3    H257843   1.827   1.731  49.422 -0.0300 -0.6688 -1.0306
12118TIP3   OH257844   3.245   3.410  10.292 -0.1283  0.5286 -0.7441
12118TIP3    H157845   3.172   3.397  10.353 -0.4011 -0.6724 -1.2980
12118TIP3    H257846   3.218   3.484  10.237 -0.9868  0.0281 -1.0131
12119TIP3   OH257847   1.317   1.745  44.484  0.0795  0.2693 -0.3286
12119TIP3    H157848   1.299   1.825  44.534 -0.6755 -0.4581  0.6051
12119TIP3    H257849   1.387   1.770  44.424  1.7523  0.9256  1.7602
12120TIP3   OH257850   1.544   0.122  45.200  1.0249  0.0333 -0.8757
12120TIP3    H157851   1.499   0.142  45.117  0.1672 -0.1925 -0.4732
12120TIP3    H257852   1.606   0.053  45.177  0.0396 -0.8032 -1.1360
12121TIP3   OH257853   2.466   2.077  57.152  0.5435 -0.0288 -0.3085
12121TIP3    H157854   2.413   2.142  57.106 -0.6401 -0.6197  0.1831
12121TIP3    H257855   2.556   2.101  57.131  0.0794  0.6095 -1.6935
12122TIP3   OH257856   0.862   2.084  59.139  0.0978  0.7805 -0.0493
12122TIP3    H157857   0.818   2.137  59.073 -0.6685 -0.4590 -0.5793
12122TIP3    H257858   0.798   2.016  59.161  1.8898 -1.3570 -1.1353
12123TIP3   OH257859   0.413   0.076  51.081 -0.0006  0.3252  0.5562
12123TIP3    H157860   0.454   0.109  51.001 -0.2829 -0.4044  0.0949
12123TIP3    H257861   0.484   0.076  51.146  0.4968 -0.0105  0.0275
12124TIP3   OH257862   3.393   1.284  13.437  0.4748  0.2434  0.4148
12124TIP3    H157863   3.357   1.372  13.446  0.0585  0.0850  0.3230
12124TIP3    H257864   3.424   1.280  13.346 -0.8698 -0.2021 -0.0415
12125TIP3   OH257865   0.730   0.027  34.471  0.9014  1.0480  0.1426
12125TIP3    H157866   0.677   0.011  34.393  2.3832 -0.0983 -0.6901
12125TIP3    H257867   0.795   0.091  34.443  0.5254  1.7605  0.8802
12126TIP3   OH257868   0.702   2.743  64.195  0.2849 -0.4097 -0.3062
12126TIP3    H157869   0.726   2.818  64.248  1.8442 -2.2543  1.8157
12126TIP3    H257870   0.618   2.714  64.231  0.3792 -0.4887 -0.1436
12127TIP3   OH257871   2.889   3.221  15.802  0.3855  0.3010 -0.0498
12127TIP3    H157872   2.945   3.255  15.871  0.4364 -0.8769  0.5108
12127TIP3    H257873   2.950   3.197  15.732  0.6459 -1.2969  0.6930
12128TIP3   OH257874   2.413   0.254  49.894 -0.3119 -0.0706 -0.2266
12128TIP3    H157875   2.492   0.209  49.923 -0.5691 -0.3361  0.0706
12128TIP3    H257876   2.372   0.195  49.831 -0.5653 -0.1859  0.0433
12129TIP3   OH257877   0.216   1.463  15.311 -0.3358  0.5644 -0.3364
12129TIP3    H157878   0.174   1.467  15.225 -0.9155 -2.2467 -0.2988
12129TIP3    H257879   0.305   1.493  15.296 -0.4345  0.1514 -1.9361
12130TIP3   OH257880   1.600   1.440  45.743  0.0647 -0.2835 -0.7016
12130TIP3    H157881   1.688   1.406  45.760 -0.6624 -1.7570  0.3596
12130TIP3    H257882   1.603   1.531  45.773  0.6707 -0.9176  1.3301
12131TIP3   OH257883   0.149   1.058  60.570 -0.3342 -0.1172  0.0457
12131TIP3    H157884   0.198   1.020  60.496 -1.1821 -0.2947 -0.4448
12131TIP3    H257885   0.183   1.147  60.579  1.1173 -0.7056  0.6825
12132TIP3   OH257886   1.463   3.231  61.316  0.0464 -0.1425  0.1939
12132TIP3    H157887   1.464   3.175  61.394  1.9553  0.9668  1.0471
12132TIP3    H257888   1.442   3.318  61.350 -0.9701  0.0378 -0.8352
12133TIP3   OH257889   1.196   0.456  56.826  0.3050 -0.1138 -0.1087
12133TIP3    H157890   1.233   0.371  56.850  1.3433  0.1617 -0.6883
12133TIP3    H257891   1.139   0.437  56.751  0.4463 -0.3106 -0.1671
12134TIP3   OH257892   2.131   3.360   2.147  0.5582  1.1363  0.0529
12134TIP3    H157893   2.203   3.301   2.123 -0.6290 -0.2015 -0.3442
12134TIP3    H257894   2.111   3.407   2.067 -0.6274 -0.3071 -0.5469
12135TIP3   OH257895   0.730   1.613  47.627 -0.2786 -0.0932 -0.3052
12135TIP3    H157896   0.795   1.683  47.616 -0.1855 -0.0338  0.5741
12135TIP3    H257897   0.775   1.533  47.599  0.0862 -0.0088  0.0363
12136TIP3   OH257898   1.761   0.993  63.944 -0.2583 -0.7623  0.3198
12136TIP3    H157899   1.832   0.934  63.968  3.0230  1.3414 -3.0607
12136TIP3    H257900   1.727   0.959  63.861 -0.7065  0.2173  0.0808
12137TIP3   OH257901   1.051   0.281  44.084  0.4325  0.2428 -0.6855
12137TIP3    H157902   1.023   0.224  44.013  0.2414  2.3140 -2.3967
12137TIP3    H257903   0.974   0.335  44.104  1.9684  3.7388 -3.1644
12138TIP3   OH257904   0.648   2.661  61.320 -0.4894 -0.6063  0.3753
12138TIP3    H157905   0.622   2.682  61.409  0.2885 -0.4154  0.5641
12138TIP3    H257906   0.633   2.743  61.271  1.7150  0.2060  0.9314
12139TIP3   OH257907   3.420   2.179  46.809  0.1234  0.0948  0.0701
12139TIP3    H157908   3.409   2.132  46.892 -0.9108  0.6764  0.2888
12139TIP3    H257909   3.343   2.154  46.757  0.0233  0.8250 -0.1497
12140TIP3   OH257910   0.195   1.034   7.011 -0.4179  0.2266 -0.1486
12140TIP3    H157911   0.202   1.071   6.923 -0.2063 -1.0110 -0.6810
12140TIP3    H257912   0.104   1.007   7.019 -0.3655  0.0612 -0.1048
12141TIP3   OH257913   1.770   2.809   2.312  0.2311  0.6268 -0.2257
12141TIP3    H157914   1.770   2.901   2.286  0.1137  0.7135  0.0768
12141TIP3    H257915   1.781   2.761   2.231  3.4771  0.9983 -0.1336
12142TIP3   OH257916   3.406   2.343  64.424  0.0912  0.0404 -0.1988
12142TIP3    H157917   3.316   2.359  64.393 -0.4412 -0.9315  0.7899
12142TIP3    H257918   3.428   2.257  64.390  0.4740  0.0742 -0.0395
12143TIP3   OH257919   2.622   2.273   6.858 -0.1591  0.1955 -0.2793
12143TIP3    H157920   2.693   2.274   6.922  0.8124 -1.4603 -1.2680
12143TIP3    H257921   2.658   2.317   6.781  0.1718 -1.4862 -1.1212
12144TIP3   OH257922   0.238   2.901  56.356  0.2749 -0.3154 -0.1480
12144TIP3    H157923   0.178   2.956  56.406 -0.4193  0.4759 -1.7658
12144TIP3    H257924   0.320   2.951  56.353  0.1444 -0.1044 -0.2513
12145TIP3   OH257925   1.106   2.411   6.996 -0.3480  0.0499 -0.2223
12145TIP3    H157926   1.071   2.323   7.009 -2.1262  0.5904 -1.0216
12145TIP3    H257927   1.052   2.468   7.050  0.9596  0.6567  0.5118
12146TIP3   OH257928   2.569   1.969  18.491  0.0576 -0.3846  0.8265
12146TIP3    H157929   2.616   2.039  18.446 -0.7671  0.5909  1.4350
12146TIP3    H257930   2.621   1.890  18.474  1.7867  0.6045  1.3112
12147TIP3   OH257931   1.232   2.014  48.851  0.0625  0.7958 -0.5670
12147TIP3    H157932   1.192   2.086  48.899  0.6740  1.7437 -1.4400
12147TIP3    H257933   1.256   2.052  48.766  4.0165  0.7233  0.3287
12148TIP3   OH257934   0.478   1.817   6.254 -0.1301 -0.0487 -0.2505
12148TIP3    H157935   0.489   1.846   6.345  1.7524  2.6025 -1.2088
12148TIP3    H257936   0.387   1.786   6.250 -0.4947  0.4363  2.3422
12149TIP3   OH257937   1.090   1.123  48.793 -0.4490  0.0572  0.0399
12149TIP3    H157938   1.113   1.062  48.723  0.9677 -0.0429  0.5485
12149TIP3    H257939   1.143   1.095  48.867 -0.3346  1.4441  0.5143
12150TIP3   OH257940   3.419   2.320  48.264  0.4758  0.0043  0.0870
12150TIP3    H157941   3.379   2.297  48.180  1.9035 -2.0849 -0.1022
12150TIP3    H257942   3.433   2.414  48.258  0.8029 -0.1180 -2.1751
12151TIP3   OH257943   0.351   2.156  50.797  0.6067 -0.1089 -0.3056
12151TIP3    H157944   0.386   2.110  50.873  0.1502  0.8341  0.5017
12151TIP3    H257945   0.389   2.244  50.803  0.2247  0.1009 -0.9212
12152TIP3   OH257946   1.852   0.736  17.787 -0.0044 -0.0503 -0.3644
12152TIP3    H157947   1.942   0.754  17.813 -0.1155  0.3166 -0.2350
12152TIP3    H257948   1.812   0.822  17.774 -0.2181 -0.2138 -0.8335
12153TIP3   OH257949   2.219   2.575  62.278 -0.0854  0.4822 -0.1573
12153TIP3    H157950   2.247   2.484  62.266  0.1972  0.6238 -0.5732
12153TIP3    H257951   2.128   2.576  62.248 -0.3693  0.1525  0.6464
12154TIP3   OH257952   1.603   0.603  12.248 -0.0119 -0.4173 -0.1978
12154TIP3    H157953   1.617   0.548  12.325  0.4033  0.8918  0.7040
12154TIP3    H257954   1.617   0.545  12.174 -2.1549 -2.1559  0.6651
12155TIP3   OH257955   1.478   0.602   0.199  0.3926  0.4070 -0.0689
12155TIP3    H157956   1.496   0.562   0.284  0.1197 -0.0450 -0.2210
12155TIP3    H257957   1.387   0.580   0.181  0.9996 -1.2420 -1.3988
12156TIP3   OH257958   0.646   3.394   0.559  0.1830 -0.8489  0.1923
12156TIP3    H157959   0.615   3.462   0.619 -0.1380 -0.1918 -0.7021
12156TIP3    H257960   0.705   3.341   0.613 -0.4358 -0.5446  1.2094
12157TIP3   OH257961   3.077   2.467  57.829 -0.0574 -0.0070  0.4671
12157TIP3    H157962   3.138   2.442  57.899  0.6865 -0.1670 -0.2299
12157TIP3    H257963   3.122   2.445  57.748 -0.8980  0.2130 -0.0760
12158TIP3   OH257964   1.777   2.233  55.426  0.4877 -0.1027 -0.0380
12158TIP3    H157965   1.699   2.271  55.465  1.7932  0.9408  1.6685
12158TIP3    H257966   1.748   2.148  55.392 -1.6035  0.7230 -0.4555
12159TIP3   OH257967   1.871   2.632  43.961 -0.2208  0.1275  0.6180
12159TIP3    H157968   1.808   2.703  43.955  0.1456  0.4533  0.6341
12159TIP3    H257969   1.827   2.558  43.918 -0.6519  0.3225  0.7186
12160TIP3   OH257970   0.345   1.103  60.307 -0.0379 -0.9289 -0.1314
12160TIP3    H157971   0.270   1.143  60.264  0.6332  0.3023 -0.1894
12160TIP3    H257972   0.414   1.169  60.302  1.1153 -2.0998 -0.2384
12161TIP3   OH257973   1.026   1.707  56.537 -0.4707  0.8726 -0.2831
12161TIP3    H157974   0.931   1.708  56.548 -0.4682  0.0257 -0.1786
12161TIP3    H257975   1.046   1.622  56.499  0.2013  1.2378 -0.7729
12162TIP3   OH257976   1.108   0.336  16.606  0.2527 -0.8947  0.1551
12162TIP3    H157977   1.082   0.297  16.689  0.0018 -1.6492 -0.2728
12162TIP3    H257978   1.172   0.275  16.570 -0.2628 -1.0000 -0.6000
12163TIP3   OH257979   0.423   2.751  13.075  0.0230 -0.4860  0.2664
12163TIP3    H157980   0.498   2.807  13.056  0.1144 -0.4678  0.6843
12163TIP3    H257981   0.459   2.663  13.085  0.0250 -0.4274  0.7629
12164TIP3   OH257982   2.021   0.738  22.562  0.4714 -0.1592 -0.1834
12164TIP3    H157983   2.052   0.663  22.511  2.2329  1.9739 -2.4436
12164TIP3    H257984   1.976   0.698  22.637  3.9075 -3.5301  0.4024
12165TIP3   OH257985   1.291   0.470  55.210  0.1931  0.6647 -0.5021
12165TIP3    H157986   1.224   0.512  55.156 -1.4177 -0.7996  0.3098
12165TIP3    H257987   1.341   0.544  55.246 -0.6199  1.7704 -1.5456
12166TIP3   OH257988   0.873   3.086   1.256  0.2806  0.5394  0.1701
12166TIP3    H157989   0.823   3.161   1.223  1.4331  0.4882 -1.8907
12166TIP3    H257990   0.939   3.125   1.314  0.5482  1.0979 -0.4894
12167TIP3   OH257991   2.689   1.718   1.556 -0.3907  0.1230  0.1234
12167TIP3    H157992   2.736   1.768   1.623 -1.3471  1.0795  0.1015
12167TIP3    H257993   2.737   1.736   1.475  1.2863 -1.7022  0.6118
12168TIP3   OH257994   0.853   2.373  46.632 -0.7398 -0.1904  0.0286
12168TIP3    H157995   0.941   2.409  46.642 -1.2026  1.0995 -0.3749
12168TIP3    H257996   0.867   2.280  46.614  0.4828 -0.2766  1.2943
12169TIP3   OH257997   0.220   3.358  60.599 -0.2857  0.1237 -0.2830
12169TIP3    H157998   0.310   3.383  60.618  0.5148 -2.3194 -0.5441
12169TIP3    H257999   0.218   3.263  60.610 -2.2074 -0.2326 -2.7187
12170TIP3   OH258000   1.125   0.430  37.132  0.3931  0.2629 -0.5612
12170TIP3    H158001   1.093   0.500  37.075 -1.2590 -0.7640 -0.9935
12170TIP3    H258002   1.161   0.365  37.072 -0.1260 -0.2228 -0.3627
12171TIP3   OH258003   1.520   1.948   1.092  0.5683  0.0092 -0.3942
12171TIP3    H158004   1.440   1.978   1.134  0.4635 -1.5055  0.5491
12171TIP3    H258005   1.494   1.869   1.044  0.9271  1.0615 -2.4293
12172TIP3   OH258006   2.583   1.292  27.946  0.2030 -0.2500  0.5147
12172TIP3    H158007   2.610   1.203  27.923 -0.1797  0.1123 -1.4839
12172TIP3    H258008   2.577   1.338  27.863 -1.8397  1.0261  1.2793
12173TIP3   OH258009   3.047   0.620   4.208  0.3584 -0.0824 -0.0753
12173TIP3    H158010   3.024   0.698   4.157  0.2389  0.6161  1.0233
12173TIP3    H258011   2.977   0.557   4.188  0.2158  0.2454 -0.6281
12174TIP3   OH258012   1.621   0.818  60.648 -1.0305 -0.4498 -0.1086
12174TIP3    H158013   1.532   0.845  60.626 -0.1039  1.4315 -1.8685
12174TIP3    H258014   1.631   0.841  60.740 -1.3526  2.5640 -0.7131
12175TIP3   OH258015   1.843   2.199  54.803 -0.3340 -0.4666  0.0114
12175TIP3    H158016   1.933   2.174  54.825 -0.2743  0.5653  1.0047
12175TIP3    H258017   1.852   2.276  54.747 -0.5867 -1.1114 -0.9490
12176TIP3   OH258018   1.154   0.187  66.593  0.3822  0.4432 -0.0225
12176TIP3    H158019   1.142   0.201  66.499 -0.4795 -1.4818 -0.2409
12176TIP3    H258020   1.247   0.206  66.608 -0.1382  4.1374 -0.5390
12177TIP3   OH258021   0.022   1.229  62.817  0.1247  0.2924 -0.7422
12177TIP3    H158022  -0.002   1.156  62.761  0.4924 -1.0009  0.7236
12177TIP3    H258023   0.111   1.253  62.789  0.1511 -0.0774 -0.9759
12178TIP3   OH258024   2.817   3.362  54.694 -0.3596  0.4413 -0.0002
12178TIP3    H158025   2.885   3.330  54.753  0.0441 -0.2809 -0.8307
12178TIP3    H258026   2.848   3.339  54.607 -0.7985  1.7564 -0.5332
12179TIP3   OH258027   1.657   0.852  66.893 -0.2098 -0.2371 -0.0465
12179TIP3    H158028   1.633   0.861  66.985 -0.0291 -3.2628  0.3944
12179TIP3    H258029   1.753   0.859  66.892 -0.1615 -0.8354  0.1114
12180TIP3   OH258030   2.003   3.321  65.391  0.3016 -0.7235 -0.6046
12180TIP3    H158031   2.012   3.379  65.315  2.7845 -1.1876 -0.7544
12180TIP3    H258032   1.914   3.337  65.423  1.2111  4.2490  0.2326
12181TIP3   OH258033   0.405   3.149  57.567 -0.2273 -0.0062  0.1421
12181TIP3    H158034   0.444   3.118  57.485  0.9537 -0.5817  0.8844
12181TIP3    H258035   0.472   3.204  57.606 -0.9258  0.5651  0.5547
12182TIP3   OH258036   1.403   1.538   9.409  0.3797  0.1484 -0.4203
12182TIP3    H158037   1.372   1.530   9.499 -0.1082 -0.2471 -0.6212
12182TIP3    H258038   1.395   1.450   9.372  1.5245  0.0839 -0.5496
12183TIP3   OH258039   0.039   0.109  55.232  0.1969  0.6484 -0.2635
12183TIP3    H158040   0.081   0.025  55.252 -0.7938 -0.1082 -1.2705
12183TIP3    H258041  -0.022   0.089  55.161 -1.5028  1.8166  0.8014
12184TIP3   OH258042   1.510   0.427  18.386  0.2093  0.1032  0.6681
12184TIP3    H158043   1.476   0.434  18.475 -1.4894  2.5236 -0.0893
12184TIP3    H258044   1.602   0.455  18.393  0.3669 -0.5882  1.7473
12185TIP3   OH258045   3.090   2.410  29.503 -0.2406 -0.1809  0.6768
12185TIP3    H158046   3.163   2.434  29.446  0.2714 -1.7158  0.6403
12185TIP3    H258047   3.088   2.478  29.570 -0.1988  1.1001 -0.5691
12186TIP3   OH258048   2.899   2.385  48.034 -0.1106 -0.5769 -0.0465
12186TIP3    H158049   2.906   2.439  48.112 -1.5447 -0.6285  0.1456
12186TIP3    H258050   2.918   2.445  47.962  0.3433 -0.3204  0.2811
12187TIP3   OH258051   0.945   2.960  63.018 -0.3392  0.2447  0.1827
12187TIP3    H158052   0.900   2.886  62.978  1.6857 -0.9585  0.0121
12187TIP3    H258053   0.943   3.028  62.950 -1.2298 -0.0172 -0.0724
12188TIP3   OH258054   1.247   0.547  52.432  0.3137  0.0530  0.1949
12188TIP3    H158055   1.208   0.527  52.348 -2.2847  0.2654  1.2706
12188TIP3    H258056   1.199   0.493  52.495 -0.0110  2.2036  1.9230
12189TIP3   OH258057   0.778   0.722  47.932 -0.3167  0.5219  0.0358
12189TIP3    H158058   0.794   0.745  48.024 -0.3380 -0.1296  0.2091
12189TIP3    H258059   0.865   0.713  47.894 -0.2881  0.0200  0.2016
12190TIP3   OH258060   0.657   1.470   9.613  0.1244  0.2383  0.4927
12190TIP3    H158061   0.586   1.436   9.667 -2.4532 -0.8777 -3.1929
12190TIP3    H258062   0.645   1.565   9.616 -0.7624  0.1244  0.9032
12191TIP3   OH258063   3.379   2.256   4.625 -0.4650 -0.0598  0.1606
12191TIP3    H158064   3.428   2.185   4.584 -0.8230  0.7882 -1.8605
12191TIP3    H258065   3.300   2.214   4.660  0.8724 -1.1646  1.9970
12192TIP3   OH258066   1.495   0.617  43.183  0.0321  0.0573  0.3119
12192TIP3    H158067   1.539   0.581  43.260 -1.1541 -0.8958  0.5820
12192TIP3    H258068   1.536   0.703  43.170 -0.7239  0.9246  2.9290
12193TIP3   OH258069   3.101   0.336  65.758  0.1659 -0.4458  0.6904
12193TIP3    H158070   3.047   0.309  65.683 -0.1192  2.2854 -0.2051
12193TIP3    H258071   3.070   0.282  65.830 -1.2398 -1.5113 -0.6423
12194TIP3   OH258072   2.354   2.063  66.174 -0.5042 -0.2362  0.4430
12194TIP3    H158073   2.363   2.071  66.269  1.3506  0.5088  0.2512
12194TIP3    H258074   2.346   2.154  66.143 -0.8529 -0.4586 -0.1352
12195TIP3   OH258075   3.255   0.491   3.139 -0.1408  0.4517 -0.6305
12195TIP3    H158076   3.316   0.528   3.202  0.5567  0.1992 -1.1389
12195TIP3    H258077   3.223   0.410   3.180  1.1549 -0.3004 -1.0289
12196TIP3   OH258078   3.445   0.700  50.678  0.4944  0.1103  0.3304
12196TIP3    H158079   3.387   0.651  50.736  0.1892 -0.4077 -0.3898
12196TIP3    H258080   3.389   0.723  50.603  1.1624 -0.2358 -0.2870
12197TIP3   OH258081   2.708   2.423  65.584  0.4321 -0.2603 -0.6019
12197TIP3    H158082   2.705   2.508  65.628 -1.9226 -0.9632  0.8281
12197TIP3    H258083   2.768   2.435  65.511 -0.0987  2.7338 -0.6577
12198TIP3   OH258084   1.842   2.810  56.264  0.5742  0.3389 -0.3426
12198TIP3    H158085   1.853   2.716  56.284 -0.2854  0.4650  0.8931
12198TIP3    H258086   1.893   2.824  56.185  0.8682 -1.1444 -0.4505
12199TIP3   OH258087   3.410   2.784  11.375 -0.6422  0.0877 -0.1197
12199TIP3    H158088   3.343   2.830  11.325 -1.6861 -1.3296 -0.0840
12199TIP3    H258089   3.490   2.833  11.359 -1.3308  0.7676 -1.6455
12200TIP3   OH258090   1.637   0.776  65.907 -0.4369 -0.2221  0.2355
12200TIP3    H158091   1.612   0.685  65.915 -0.4264 -0.3972 -1.2972
12200TIP3    H258092   1.716   0.785  65.959  0.8563 -1.6670 -1.3810
12201TIP3   OH258093   1.481   0.487  20.230  0.2583 -0.5148  0.6935
12201TIP3    H158094   1.532   0.510  20.308 -0.1307 -0.5239  0.9487
12201TIP3    H258095   1.452   0.571  20.195  1.4293 -0.4204 -0.1254
12202TIP3   OH258096   1.779   0.752   8.529  0.2098 -0.2962  0.5146
12202TIP3    H158097   1.860   0.732   8.482 -0.0772 -0.8053  0.2241
12202TIP3    H258098   1.716   0.772   8.460  0.2000  0.5539  0.7600
12203TIP3   OH258099   0.025   0.552  16.185  0.1708 -0.1751  0.3196
12203TIP3    H158100  -0.004   0.469  16.149 -2.1157  1.1789 -1.1699
12203TIP3    H258101   0.061   0.530  16.271  0.7779 -2.8041 -0.5237
12204TIP3   OH258102   0.776   0.816   1.294  0.1060  0.1504 -0.2128
12204TIP3    H158103   0.693   0.863   1.297  0.4729  0.7540  1.4744
12204TIP3    H258104   0.754   0.732   1.253 -0.9097  1.0614 -1.6111
12205TIP3   OH258105   2.618   1.863  44.633  0.0389 -0.0987  0.0476
12205TIP3    H158106   2.557   1.919  44.681  1.0648  0.4664  0.7215
12205TIP3    H258107   2.603   1.775  44.669 -0.7352 -0.0590 -0.1602
12206TIP3   OH258108   0.569   2.907  49.870 -0.0511 -0.1959  0.0965
12206TIP3    H158109   0.544   2.816  49.858 -2.0924 -0.1813  3.1608
12206TIP3    H258110   0.663   2.908  49.853 -0.2352 -2.5101 -1.5019
12207TIP3   OH258111   1.034   3.251  44.156 -0.6121  0.2470 -0.0964
12207TIP3    H158112   1.016   3.254  44.062 -0.7988  0.4723 -0.0544
12207TIP3    H258113   1.089   3.174  44.167  0.1788  0.7417 -0.5169
12208TIP3   OH258114   1.577   1.391  10.218 -0.5904 -0.3042  0.7182
12208TIP3    H158115   1.647   1.327  10.219 -1.6262 -1.4646  0.7862
12208TIP3    H258116   1.617   1.470  10.180  0.6227 -1.0581  0.3934
12209TIP3   OH258117   1.858   2.411  61.447 -0.0710 -0.6831  0.0432
12209TIP3    H158118   1.913   2.489  61.437 -1.3969  0.0212 -2.7557
12209TIP3    H258119   1.909   2.340  61.409  0.1284 -0.7018  0.3367
12210TIP3   OH258120   1.536   2.833  43.791 -0.2121 -0.0397  0.1804
12210TIP3    H158121   1.503   2.744  43.803  0.6592 -0.4469 -0.4180
12210TIP3    H258122   1.564   2.860  43.879 -0.9766 -0.1445  0.4670
12211TIP3   OH258123   2.796   3.254  28.316 -0.1568  0.3518 -0.6258
12211TIP3    H158124   2.826   3.337  28.352 -1.0276  1.3872 -2.2025
12211TIP3    H258125   2.871   3.195  28.325  0.9660  1.7234 -0.8294
12212TIP3   OH258126   1.628   1.409  59.260 -0.4843 -0.1877  0.0995
12212TIP3    H158127   1.598   1.379  59.346 -1.0571 -0.5079 -0.2069
12212TIP3    H258128   1.554   1.393  59.202 -1.2258  2.7818  0.1011
12213TIP3   OH258129   2.409   1.521  52.477  0.4076 -0.4179 -0.3967
12213TIP3    H158130   2.340   1.498  52.415 -0.9959 -0.0896  1.0000
12213TIP3    H258131   2.484   1.542  52.421 -1.0132  0.6213 -2.0300
12214TIP3   OH258132   2.213   2.035  50.876 -0.2671  0.4221  0.1427
12214TIP3    H158133   2.260   2.095  50.819  0.9523 -0.2905  0.3678
12214TIP3    H258134   2.146   2.089  50.919 -1.3475  0.9283 -2.0657
12215TIP3   OH258135   2.772   2.675  61.258  0.1513  0.4887  0.0343
12215TIP3    H158136   2.699   2.615  61.275 -0.9210  1.2984 -1.3853
12215TIP3    H258137   2.754   2.751  61.313 -0.1341  0.7035 -0.3428
12216TIP3   OH258138   1.026   2.576  20.154  0.0161 -0.6379 -0.0151
12216TIP3    H158139   0.950   2.597  20.099  0.8648  1.6233 -0.4402
12216TIP3    H258140   0.989   2.561  20.241 -1.0104 -0.4908 -0.4115
12217TIP3   OH258141   2.128   2.723  20.709 -0.4570 -0.1070  0.3244
12217TIP3    H158142   2.148   2.770  20.791  0.5056  0.1651 -0.0517
12217TIP3    H258143   2.078   2.786  20.658 -0.8165 -0.1744  0.5926
12218TIP3   OH258144   1.109   2.260   2.094 -0.0634 -0.4091 -0.2481
12218TIP3    H158145   1.095   2.354   2.082 -0.8836 -0.5775 -0.6923
12218TIP3    H258146   1.074   2.241   2.181  0.8561 -0.1626  0.1821
12219TIP3   OH258147   0.961   2.399   7.791  0.4630 -0.4839 -0.4156
12219TIP3    H158148   0.875   2.402   7.749  0.6862 -0.3545 -0.8633
12219TIP3    H258149   0.996   2.313   7.768  0.1895 -0.7975  0.3029
12220TIP3   OH258150   1.653   2.197  61.107 -0.6421  0.5276  0.0327
12220TIP3    H158151   1.601   2.117  61.111 -0.4273  0.3625 -0.3642
12220TIP3    H258152   1.698   2.191  61.022 -1.1450  1.3847 -0.3096
12221TIP3   OH258153   0.742   2.341  35.713 -0.1912  0.7727  0.1072
12221TIP3    H158154   0.768   2.249  35.723  2.6860  1.3087 -1.2801
12221TIP3    H258155   0.703   2.347  35.626 -1.7637  0.6355  0.7775
12222TIP3   OH258156   1.101   0.311  16.054  0.4654 -0.5395 -0.5135
12222TIP3    H158157   1.190   0.288  16.083 -0.1032 -1.2221  0.7795
12222TIP3    H258158   1.046   0.295  16.131 -0.6201  1.0204 -0.9084
12223TIP3   OH258159   0.393   3.327   0.429  0.2956 -0.1138 -0.2693
12223TIP3    H158160   0.462   3.340   0.494  0.2217 -0.3277 -0.1501
12223TIP3    H258161   0.432   3.270   0.363  0.6241  0.7007 -0.8002
12224TIP3   OH258162   3.269   3.430  60.179  0.2793  0.4020 -0.3375
12224TIP3    H158163   3.283   3.345  60.222  0.1752  1.0555  1.0589
12224TIP3    H258164   3.326   3.428  60.103 -0.9666 -1.5694 -1.2997
12225TIP3   OH258165   2.467   0.383  62.243  0.6650  0.5344  0.4539
12225TIP3    H158166   2.537   0.444  62.267 -0.2569  2.0900 -0.7028
12225TIP3    H258167   2.387   0.424  62.272 -0.0809  0.4330 -1.3104
12226TIP3   OH258168   1.018   3.194  55.307  0.7313  0.6834  0.3814
12226TIP3    H158169   0.961   3.270  55.296  0.7302  0.6134 -0.1223
12226TIP3    H258170   0.959   3.122  55.328  0.4084  0.2216 -1.8538
12227TIP3   OH258171   2.600   3.036   5.926 -0.2654 -0.0408 -0.4455
12227TIP3    H158172   2.646   2.963   5.882  2.2699  1.4476 -0.4727
12227TIP3    H258173   2.601   3.012   6.019 -1.0648 -0.8445 -0.6329
12228TIP3   OH258174   1.269   2.957  56.260  0.2177  0.1657  0.1310
12228TIP3    H158175   1.350   2.994  56.223  0.1430  0.1399 -0.0594
12228TIP3    H258176   1.204   3.026  56.251  0.2242  0.1947  0.3026
12229TIP3   OH258177   1.720   0.843  18.070 -0.0892  0.5652 -0.5012
12229TIP3    H158178   1.690   0.752  18.074 -0.6764  0.6944 -1.5070
12229TIP3    H258179   1.815   0.836  18.062  0.0991  0.1200  1.6078
12230TIP3   OH258180   0.025   2.154  15.887 -0.4141 -0.1393 -0.2658
12230TIP3    H158181   0.001   2.198  15.806 -0.3072  1.1428  0.3722
12230TIP3    H258182  -0.058   2.124  15.924 -0.4313 -1.0760 -1.0125
12231TIP3   OH258183   2.737   2.094  57.794  1.1464 -0.2653 -0.6121
12231TIP3    H158184   2.760   2.180  57.757  0.8927  0.1998  0.2777
12231TIP3    H258185   2.811   2.072  57.850 -0.3119  1.0958  2.0325
12232TIP3   OH258186   1.557   2.237  51.224  0.8768 -0.7723 -0.0480
12232TIP3    H158187   1.524   2.182  51.295  0.4419 -0.3882  0.0602
12232TIP3    H258188   1.569   2.178  51.150 -1.4418 -0.7330 -0.5417
12233TIP3   OH258189   2.027   0.204  47.056 -0.2078  0.3154 -0.0228
12233TIP3    H158190   2.102   0.188  46.998 -1.2924  0.3371 -1.5037
12233TIP3    H258191   1.990   0.117  47.070  0.0932  0.3006  0.7461
12234TIP3   OH258192   0.056   3.269  64.905  0.0696 -0.2000 -0.1057
12234TIP3    H158193  -0.006   3.337  64.928  1.2611  1.0162 -0.3418
12234TIP3    H258194   0.003   3.190  64.895 -1.8903  1.2818 -2.9146
12235TIP3   OH258195   0.543   3.019   2.066 -0.1910 -0.4662 -0.0525
12235TIP3    H158196   0.455   2.980   2.065  0.3216 -1.6699  0.3965
12235TIP3    H258197   0.602   2.945   2.082  0.9406  0.2737 -0.6613
12236TIP3   OH258198   1.329   2.347  58.366  0.0377 -0.1177 -0.0561
12236TIP3    H158199   1.241   2.310  58.375 -0.1416  0.1329 -0.6783
12236TIP3    H258200   1.338   2.406  58.440  0.0591 -0.8795  0.5617
12237TIP3   OH258201   1.624   2.100  10.978  0.1136  0.2890 -0.2576
12237TIP3    H158202   1.687   2.147  10.923  0.4871 -0.1013 -0.1719
12237TIP3    H258203   1.572   2.050  10.915  0.7728 -0.4356 -0.2501
12238TIP3   OH258204   0.438   1.623  10.294 -0.2737 -0.5576 -0.0595
12238TIP3    H158205   0.523   1.623  10.248 -0.5212 -0.4331 -0.5221
12238TIP3    H258206   0.440   1.544  10.348  0.7450  0.2012  1.0741
12239TIP3   OH258207   2.330   2.326  62.031 -0.0436 -0.1678  0.2812
12239TIP3    H158208   2.403   2.278  61.990  0.7433 -0.6291  2.1248
12239TIP3    H258209   2.275   2.257  62.068 -3.0815 -0.0456 -3.4740
12240TIP3   OH258210   1.117   2.011   0.413 -0.4276 -0.4879 -0.2920
12240TIP3    H158211   1.194   2.017   0.355 -1.2462  0.5021 -1.3291
12240TIP3    H258212   1.134   1.933   0.466  2.0971  0.6493  0.7284
12241TIP3   OH258213   2.578   1.015  15.338 -0.2042 -0.1524  0.0816
12241TIP3    H158214   2.652   0.972  15.295 -2.2658 -2.3007 -1.6091
12241TIP3    H258215   2.593   1.108  15.325  1.9177 -0.5543 -0.6883
12242TIP3   OH258216   0.715   0.515   4.105  0.3406 -0.3940 -0.4232
12242TIP3    H158217   0.782   0.452   4.130 -0.6932 -1.0882  0.7008
12242TIP3    H258218   0.632   0.472   4.124 -0.4091  1.4714  0.9235
12243TIP3   OH258219   3.277   2.582  63.709 -0.8929 -0.1903  0.6938
12243TIP3    H158220   3.287   2.579  63.614  0.7154  0.0825  0.8278
12243TIP3    H258221   3.365   2.600  63.742 -1.3114 -0.8416  2.2679
12244TIP3   OH258222   2.478   3.012   2.599  0.0863  0.2488  0.6779
12244TIP3    H158223   2.382   3.004   2.603 -0.1172  2.0525  0.0895
12244TIP3    H258224   2.496   3.099   2.635  1.5104 -0.0438  0.7034
12245TIP3   OH258225   0.422   0.158  55.367  0.1090  1.3196 -0.0267
12245TIP3    H158226   0.355   0.213  55.409 -1.5859 -0.6122 -0.0424
12245TIP3    H258227   0.383   0.134  55.283  0.0078 -1.2774  0.6908
12246TIP3   OH258228   2.310   1.751   4.119 -0.0121  0.7525 -0.0553
12246TIP3    H158229   2.294   1.708   4.203  1.3026 -0.7822 -0.5389
12246TIP3    H258230   2.350   1.683   4.065  0.3618  2.0767 -1.5106
12247TIP3   OH258231   1.752   1.625   8.033  0.1045  0.2030 -0.2949
12247TIP3    H158232   1.721   1.538   8.005 -1.6569  0.8335 -0.4646
12247TIP3    H258233   1.744   1.680   7.955  0.2622  0.7482  0.0673
12248TIP3   OH258234   2.481   1.174  60.498 -0.4654 -0.3918  0.2214
12248TIP3    H158235   2.566   1.143  60.469 -0.4535 -0.0049 -0.1577
12248TIP3    H258236   2.442   1.215  60.421 -1.1040 -0.7913  0.3158
12249TIP3   OH258237   0.574   2.805  53.973  0.1638  0.3027 -0.1277
12249TIP3    H158238   0.636   2.762  53.914 -0.9960  0.5605 -1.5861
12249TIP3    H258239   0.626   2.826  54.051  1.9780  0.7527 -1.3969
12250TIP3   OH258240   1.118   0.449  43.112 -0.2338  0.3896 -0.5846
12250TIP3    H158241   1.053   0.510  43.148  0.8211  0.7169  0.8798
12250TIP3    H258242   1.148   0.491  43.031 -1.0517  0.7751 -0.6931
12251TIP3   OH258243   2.935   1.462  28.629  0.5286 -0.4999 -0.5702
12251TIP3    H158244   2.973   1.538  28.585 -0.7750  1.6871  1.8174
12251TIP3    H258245   2.851   1.449  28.585  0.5393 -0.2417 -0.6680
12252TIP3   OH258246   1.376   1.423  58.117  0.0136  0.0222 -0.2437
12252TIP3    H158247   1.425   1.418  58.035  0.4506  0.2835 -0.0055
12252TIP3    H258248   1.313   1.352  58.112 -0.9613  0.9429 -1.4422
12253TIP3   OH258249   3.220   1.396  60.227  0.3657 -0.1947  0.3968
12253TIP3    H158250   3.166   1.319  60.244 -0.7332  0.5102  0.2144
12253TIP3    H258251   3.219   1.406  60.132  0.9955 -0.2918  0.3769
12254TIP3   OH258252   1.283   3.257  48.689  0.3646 -0.1550  0.5203
12254TIP3    H158253   1.280   3.328  48.753  2.8464 -0.3768  1.0015
12254TIP3    H258254   1.255   3.297  48.607 -0.6722  0.7227  1.2808
12255TIP3   OH258255   1.677   1.487  12.799  0.1430 -0.2017 -0.2790
12255TIP3    H158256   1.673   1.458  12.708  1.2150  0.8655 -0.6884
12255TIP3    H258257   1.738   1.428  12.841 -1.5558 -1.7192  0.1893
12256TIP3   OH258258   0.711   0.926  47.195  0.1768 -0.1082  0.2123
12256TIP3    H158259   0.772   0.889  47.258  0.5329  2.0928  1.2322
12256TIP3    H258260   0.766   0.966  47.128 -0.1689 -0.0515 -0.0434
12257TIP3   OH258261   1.065   2.164  55.280 -0.2979  0.0590 -0.3754
12257TIP3    H158262   0.972   2.189  55.283 -0.7989 -1.7183 -0.1082
12257TIP3    H258263   1.089   2.152  55.372  0.0200 -0.0816 -0.4742
12258TIP3   OH258264   1.804   1.895  26.816 -0.0380  0.4514 -0.1261
12258TIP3    H158265   1.783   1.840  26.892  0.5305 -0.2633 -0.4641
12258TIP3    H258266   1.785   1.839  26.741  2.0690  0.0915 -0.4658
12259TIP3   OH258267   1.670   1.594  34.409  0.6131  0.0228 -0.5669
12259TIP3    H158268   1.690   1.680  34.373 -2.6566  1.1611 -0.0531
12259TIP3    H258269   1.622   1.549  34.340 -1.1297  0.2038  0.4567
12260TIP3   OH258270   2.452   2.413  52.403 -0.1601 -0.1798 -0.1458
12260TIP3    H158271   2.483   2.429  52.314  2.5473  1.2167  0.9304
12260TIP3    H258272   2.381   2.475  52.416  1.8078  2.2220 -0.2394
12261TIP3   OH258273   0.740   3.204  49.395 -0.2172 -0.3388  0.0013
12261TIP3    H158274   0.762   3.128  49.449  1.9479  1.2965  1.5900
12261TIP3    H258275   0.790   3.276  49.432 -1.2404  1.6579 -2.1810
12262TIP3   OH258276   2.396   2.351  51.956 -0.0221 -0.1327 -0.4727
12262TIP3    H158277   2.485   2.315  51.952  0.4049  0.8259  0.1162
12262TIP3    H258278   2.385   2.396  51.872  1.1282  2.1531  0.5400
12263TIP3   OH258279   3.222   0.756  13.878 -0.3337  0.4610  0.2673
12263TIP3    H158280   3.282   0.831  13.873 -0.6424  0.7044  0.1689
12263TIP3    H258281   3.246   0.712  13.960 -0.4733  0.9470  0.5770
12264TIP3   OH258282   2.504   1.123  18.431 -0.1751 -0.6258 -0.4064
12264TIP3    H158283   2.464   1.037  18.439 -0.9682 -0.2438 -0.0800
12264TIP3    H258284   2.504   1.158  18.521  0.3116 -0.3662 -0.5062
12265TIP3   OH258285   3.222   0.084  51.478  0.1948 -0.2249 -0.0784
12265TIP3    H158286   3.132   0.105  51.502  0.6813  0.6255  1.0623
12265TIP3    H258287   3.238  -0.002  51.518  0.5265  0.5318  1.4734
12266TIP3   OH258288   0.106   1.559  11.464 -0.6196  0.4513  0.4596
12266TIP3    H158289   0.064   1.565  11.379 -0.8261 -0.0732  0.5195
12266TIP3    H258290   0.067   1.481  11.505 -0.7078  0.8344  1.1313
12267TIP3   OH258291   1.189   0.346  14.462 -0.3004 -0.2934  0.3167
12267TIP3    H158292   1.156   0.434  14.482  0.4179  0.3479 -1.1821
12267TIP3    H258293   1.143   0.289  14.523 -1.8490  0.9443  0.3601
12268TIP3   OH258294   2.285   2.744  15.198 -0.0429  0.2084 -0.0976
12268TIP3    H158295   2.264   2.652  15.213 -0.3798 -0.1482 -2.4694
12268TIP3    H258296   2.349   2.744  15.128  1.8389  1.7233  1.4960
12269TIP3   OH258297   0.220   1.121  17.939 -0.4672 -0.3381  0.2840
12269TIP3    H158298   0.195   1.201  17.985 -1.6421  0.5360 -1.7306
12269TIP3    H258299   0.144   1.063  17.951 -0.2961 -0.5442  0.3795
12270TIP3   OH258300   3.156   1.513   3.576 -0.4167 -0.0487 -0.4094
12270TIP3    H158301   3.249   1.510   3.595 -0.9171 -0.6820  2.2936
12270TIP3    H258302   3.134   1.606   3.578 -0.4177 -0.0488  2.4431
12271TIP3   OH258303   2.635   1.789   2.219  0.1309  0.1406  0.2721
12271TIP3    H158304   2.723   1.805   2.184  0.0961 -1.5595 -0.6931
12271TIP3    H258305   2.578   1.849   2.170  0.6143  0.5832  0.2380
12272TIP3   OH258306   0.764   0.822  53.227 -0.5478 -0.1652 -0.7545
12272TIP3    H158307   0.732   0.734  53.248  4.4347 -2.3120 -0.7126
12272TIP3    H258308   0.798   0.855  53.310 -1.0078  1.2201 -1.0884
12273TIP3   OH258309   1.261   0.292  17.247 -0.2557  0.2348  0.1882
12273TIP3    H158310   1.303   0.294  17.333  1.5247 -1.1866 -0.5771
12273TIP3    H258311   1.332   0.272  17.186 -1.6378  0.2556 -1.5132
12274TIP3   OH258312   0.502   0.810  65.569 -0.1455 -0.4342 -0.3226
12274TIP3    H158313   0.551   0.792  65.649  0.9847 -0.2262 -0.9455
12274TIP3    H258314   0.564   0.792  65.498 -1.2941 -1.1682 -1.1894
12275TIP3   OH258315   1.076   1.379  46.044 -0.5984 -0.3573 -0.5245
12275TIP3    H158316   1.082   1.375  45.948 -2.8420  2.8137 -0.9838
12275TIP3    H258317   0.985   1.357  46.063 -0.1958 -0.8832  0.8862
12276TIP3   OH258318   0.452   1.830  52.045 -1.0060  0.1091 -0.0119
12276TIP3    H158319   0.505   1.766  51.999  0.8498 -0.5478  2.7891
12276TIP3    H258320   0.383   1.778  52.088 -0.1991  0.0740  1.3034
12277TIP3   OH258321   3.275   1.843  21.830  0.0455 -0.4889  0.5790
12277TIP3    H158322   3.196   1.813  21.874 -0.4641  0.6814  0.5047
12277TIP3    H258323   3.243   1.901  21.760  0.8692 -1.7153 -0.8747
12278TIP3   OH258324   1.019   1.398  54.262 -0.5833 -0.2156  0.2988
12278TIP3    H158325   1.072   1.477  54.258 -0.4923 -0.3358 -1.9727
12278TIP3    H258326   1.048   1.354  54.342  1.2198  0.7755  0.2328
12279TIP3   OH258327   0.631   0.938  62.098 -0.2756 -0.3082  0.3412
12279TIP3    H158328   0.659   0.875  62.165 -0.3733 -0.1682  0.5139
12279TIP3    H258329   0.692   0.924  62.025  1.1471  0.9222  1.2202
12280TIP3   OH258330   2.359   1.369  21.403 -0.4167  0.6779 -0.2058
12280TIP3    H158331   2.412   1.301  21.361 -0.0406  1.0122 -0.2834
12280TIP3    H258332   2.291   1.321  21.450 -0.5456  0.2766 -0.7887
12281TIP3   OH258333   1.477   1.860  20.396  0.1811  0.0836 -0.1682
12281TIP3    H158334   1.478   1.955  20.394 -1.4879  0.1296 -0.0298
12281TIP3    H258335   1.436   1.834  20.314 -1.1590 -0.4269  0.6243
12282TIP3   OH258336   0.118   2.324  43.296 -0.5264  0.2466  0.2256
12282TIP3    H158337   0.114   2.410  43.254 -1.5467  0.1747  0.1548
12282TIP3    H258338   0.188   2.277  43.249  0.4799  1.2389  0.6832
12283TIP3   OH258339   0.954   2.620   8.030 -0.4005 -0.0961  0.3887
12283TIP3    H158340   0.909   2.663   7.957  1.3370  1.7800  0.3311
12283TIP3    H258341   0.974   2.532   7.997  0.6204  0.7927 -1.5959
12284TIP3   OH258342   2.264   2.939   6.039 -0.0617 -0.7139 -0.4209
12284TIP3    H158343   2.236   2.967   5.952 -2.8919 -0.1795  0.5662
12284TIP3    H258344   2.257   2.843   6.036  0.5069 -0.7463 -0.9565
12285TIP3   OH258345   0.154   1.900  13.065  0.2366 -0.1797 -0.4535
12285TIP3    H158346   0.231   1.844  13.076  1.1205  0.8054 -1.4152
12285TIP3    H258347   0.095   1.849  13.009  0.3900 -0.7482 -0.1019
12286TIP3   OH258348   2.879   3.116  30.310 -0.1214 -0.1651  0.2419
12286TIP3    H158349   2.970   3.130  30.285  0.3037 -2.5328  0.2741
12286TIP3    H258350   2.828   3.164  30.244  1.1018  1.7394  0.6085
12287TIP3   OH258351   2.122   1.351   6.607  0.0968 -0.2282  0.0978
12287TIP3    H158352   2.160   1.379   6.523  2.5486  1.3677  1.5953
12287TIP3    H258353   2.090   1.263   6.591  1.7838 -0.5145 -2.1704
12288TIP3   OH258354   2.520   1.086   9.058  0.5348 -0.1469  0.0812
12288TIP3    H158355   2.463   1.135   9.118 -0.4058  0.0110 -0.9013
12288TIP3    H258356   2.574   1.031   9.115 -0.4836 -0.1687  1.0595
12289TIP3   OH258357   3.230   0.789  15.270 -0.1098  0.5065 -0.3927
12289TIP3    H158358   3.219   0.777  15.176 -2.0692  0.8989 -0.2546
12289TIP3    H258359   3.206   0.880  15.286  2.4555  1.1645  0.2325
12290TIP3   OH258360   0.349   1.595  10.747  0.0899 -0.0115  0.9909
12290TIP3    H158361   0.415   1.636  10.690 -0.1770  0.5210  1.0645
12290TIP3    H258362   0.401   1.551  10.814  0.3915 -0.1429  0.6787
12291TIP3   OH258363   1.920   1.295  13.388 -0.0038  0.4054  0.0765
12291TIP3    H158364   1.842   1.271  13.437  0.3046  0.4909  0.6267
12291TIP3    H258365   1.926   1.390  13.397  0.4192  0.3512  0.4488
12292TIP3   OH258366   2.718   0.647  13.266 -0.7486 -0.1643 -0.1826
12292TIP3    H158367   2.756   0.641  13.179 -1.6931 -0.1512 -0.5988
12292TIP3    H258368   2.751   0.730  13.301 -0.1131 -0.3226 -0.3933
12293TIP3   OH258369   2.492   2.819  20.433  0.4028 -0.3041  0.0528
12293TIP3    H158370   2.483   2.902  20.480 -0.4327  0.1134 -0.8155
12293TIP3    H258371   2.481   2.752  20.500 -1.2429  0.2777  0.3967
12294TIP3   OH258372   3.426   1.641   5.315  0.3445 -0.3820  0.8733
12294TIP3    H158373   3.382   1.726   5.322  1.6603  0.4593 -0.4904
12294TIP3    H258374   3.490   1.641   5.386  2.3857  1.1042 -0.8377
12295TIP3   OH258375   1.397   3.135  54.966 -0.1838  0.2491  0.0386
12295TIP3    H158376   1.369   3.096  55.049 -0.7070 -0.6887 -0.5695
12295TIP3    H258377   1.347   3.216  54.959  0.6386  0.8852  1.1362
12296TIP3   OH258378   0.693   0.826  67.321  0.7173  0.6398 -0.3244
12296TIP3    H158379   0.755   0.774  67.372 -0.9331 -1.4431 -0.2927
12296TIP3    H258380   0.693   0.785  67.235  0.0665  1.2124 -0.6063
12297TIP3   OH258381   2.349   1.715  47.291 -0.4259 -0.4034  0.6608
12297TIP3    H158382   2.311   1.767  47.220 -1.4388  1.7484  2.6420
12297TIP3    H258383   2.275   1.672  47.332 -0.0775 -0.3562  1.3628
12298TIP3   OH258384   0.480   0.226  59.558 -0.1384  0.2598  0.1075
12298TIP3    H158385   0.429   0.238  59.637 -1.3098  0.1707 -0.6078
12298TIP3    H258386   0.553   0.287  59.567  1.0406 -1.3541  2.2733
12299TIP3   OH258387   1.056   1.948   3.232  0.3636  0.2336  0.4060
12299TIP3    H158388   1.113   1.943   3.309  1.6604 -0.2446 -0.5659
12299TIP3    H258389   1.067   2.037   3.200  1.7183 -0.2734 -0.6156
12300TIP3   OH258390   0.546   1.128   1.618 -0.4502  0.0599  0.6926
12300TIP3    H158391   0.493   1.086   1.686 -1.5965 -1.4037 -1.0242
12300TIP3    H258392   0.583   1.056   1.568  0.6666  1.1027 -0.0462
12301TIP3   OH258393   0.706   1.611  65.467  0.1567  0.5754  0.3221
12301TIP3    H158394   0.611   1.626  65.467  0.3810  2.1112  0.7468
12301TIP3    H258395   0.736   1.645  65.383  0.3710  0.2384  0.2582
12302TIP3   OH258396   2.641   1.517  59.260 -0.0295  0.1474  0.1830
12302TIP3    H158397   2.573   1.560  59.313  0.6291  3.6027 -1.4816
12302TIP3    H258398   2.721   1.566  59.279  1.5181 -2.1809  0.1462
12303TIP3   OH258399   0.105   2.957   0.216  0.4358 -0.0134 -0.1812
12303TIP3    H158400   0.071   2.947   0.127 -2.1920  0.0427  0.7123
12303TIP3    H258401   0.159   3.036   0.212 -0.1560  0.3540 -1.6012
12304TIP3   OH258402   2.622   0.765  65.260  0.0076 -0.0707 -1.2909
12304TIP3    H158403   2.662   0.770  65.173  1.9778  2.6893 -0.3427
12304TIP3    H258404   2.690   0.729  65.316 -1.2723 -1.8878 -0.8079
12305TIP3   OH258405   0.129   1.899  61.997  0.3646 -0.6259  0.1773
12305TIP3    H158406   0.128   1.839  62.072  1.1054 -0.3218  0.4349
12305TIP3    H258407   0.189   1.858  61.935 -0.0337 -0.7365 -0.1401
12306TIP3   OH258408   0.751   0.751  55.058 -0.1857 -0.2953 -0.2111
12306TIP3    H158409   0.801   0.829  55.033 -1.0152  0.4706  0.4353
12306TIP3    H258410   0.667   0.760  55.013  0.0009 -1.2413 -0.7703
12307TIP3   OH258411   0.354   1.038  29.116 -0.0238  0.0262 -0.0616
12307TIP3    H158412   0.317   1.124  29.138  0.8999  0.4845 -0.2258
12307TIP3    H258413   0.439   1.059  29.076  0.7759 -1.0085  1.0281
12308TIP3   OH258414   1.526   2.140  20.387 -0.1022 -0.1672 -0.3402
12308TIP3    H158415   1.505   2.206  20.320  0.4458  1.2118  0.7856
12308TIP3    H258416   1.596   2.180  20.439 -1.0440 -0.8249  1.5406
12309TIP3   OH258417   2.782   3.360  48.190  0.4772  0.9472  0.1720
12309TIP3    H158418   2.706   3.307  48.165  0.8056  1.4010 -2.0389
12309TIP3    H258419   2.847   3.298  48.222 -0.0117  0.2980 -0.0909
12310TIP3   OH258420   1.326   1.742  17.471  0.5694 -0.4895  0.1744
12310TIP3    H158421   1.322   1.837  17.459  1.6650 -0.4419  0.0865
12310TIP3    H258422   1.245   1.720  17.518  0.1288  0.4261 -0.1282
12311TIP3   OH258423   3.166   1.916   2.680  0.5854  0.0438  0.0266
12311TIP3    H158424   3.258   1.888   2.688  0.7094  0.0747 -1.1051
12311TIP3    H258425   3.117   1.834   2.671  0.8146  0.0725 -2.0297
12312TIP3   OH258426   1.383   0.179  14.369  0.0653  0.0192  0.2044
12312TIP3    H158427   1.331   0.252  14.404 -0.3988  0.1698 -0.7738
12312TIP3    H258428   1.356   0.104  14.423 -1.4982  0.0082 -0.5243
12313TIP3   OH258429   2.788   3.408  20.541  0.0674 -0.0897 -0.2166
12313TIP3    H158430   2.871   3.450  20.519 -0.1710  0.7529  0.4383
12313TIP3    H258431   2.801   3.371  20.628  0.1088 -0.9592 -0.5760
12314TIP3   OH258432   3.033   0.585  61.599  0.0488 -0.4879  0.5885
12314TIP3    H158433   2.993   0.498  61.601  0.0305 -0.4643  1.6253
12314TIP3    H258434   3.111   0.577  61.655  0.2424  0.0736  0.4059
12315TIP3   OH258435   2.640   0.087  62.324  0.0716  0.2111  0.0045
12315TIP3    H158436   2.544   0.093  62.322 -0.0125 -1.0679 -1.8156
12315TIP3    H258437   2.667   0.158  62.382 -2.0206 -0.0733  1.4371
12316TIP3   OH258438   0.825   3.001  16.384  0.7446 -0.1507 -0.1217
12316TIP3    H158439   0.742   2.997  16.430 -0.5685 -0.1877 -2.3555
12316TIP3    H258440   0.850   3.094  16.388 -0.3665  0.2088 -0.9731
12317TIP3   OH258441   1.533   2.092  61.599  0.5940  0.1539  0.1893
12317TIP3    H158442   1.605   2.040  61.563 -0.1750 -1.5258  0.9725
12317TIP3    H258443   1.513   2.156  61.530  0.8343 -1.3177 -1.3200
12318TIP3   OH258444   1.890   3.111  56.746 -0.2068 -0.2855 -0.1930
12318TIP3    H158445   1.848   3.080  56.665  0.3371 -0.8186 -0.2760
12318TIP3    H258446   1.983   3.116  56.724 -0.1250  0.1444  0.2284
12319TIP3   OH258447   0.748   1.690  18.927 -0.0107  0.1493 -0.0749
12319TIP3    H158448   0.735   1.649  19.012 -2.1696 -0.9217 -0.8251
12319TIP3    H258449   0.722   1.622  18.864 -0.2387  1.5100 -1.5117
12320TIP3   OH258450   2.796   0.506   4.201  0.2374  0.0340 -0.2246
12320TIP3    H158451   2.726   0.560   4.238  0.3899  0.1765 -0.1405
12320TIP3    H258452   2.769   0.492   4.110 -0.1949 -0.4126 -0.0328
12321TIP3   OH258453   1.155   2.296  58.740 -0.4790  0.1323  0.1296
12321TIP3    H158454   1.110   2.224  58.785 -2.7551  0.4233 -1.4852
12321TIP3    H258455   1.225   2.254  58.691 -0.7575 -0.7684  0.4838
12322TIP3   OH258456   0.796   0.375   5.851  0.5327  0.4200  0.0484
12322TIP3    H158457   0.833   0.454   5.810 -0.6173 -0.0580 -2.0930
12322TIP3    H258458   0.826   0.303   5.795  0.2151 -0.4748  1.0011
12323TIP3   OH258459   0.228   1.848  66.216  0.1918  0.6269  0.1149
12323TIP3    H158460   0.263   1.926  66.259 -1.1295  0.3602  1.8088
12323TIP3    H258461   0.285   1.834  66.141  0.8861  2.8186  0.1562
12324TIP3   OH258462   2.448   0.160   2.934 -0.4911 -0.1770  0.0344
12324TIP3    H158463   2.432   0.067   2.950  1.5378 -0.3851  1.2047
12324TIP3    H258464   2.453   0.199   3.021 -1.9684  1.1916 -0.4588
12325TIP3   OH258465   1.179   1.568  51.641 -0.1027  0.1774 -0.2108
12325TIP3    H158466   1.093   1.592  51.606 -0.2199  1.2982  0.7662
12325TIP3    H258467   1.195   1.633  51.709  0.3003 -1.6698  1.5164
12326TIP3   OH258468   1.634   2.895  57.620  0.0588 -0.0069 -0.1132
12326TIP3    H158469   1.604   2.957  57.687 -1.4265 -0.0072 -0.7406
12326TIP3    H258470   1.554   2.854  57.587  0.8409 -0.7122 -1.2206
12327TIP3   OH258471   0.438   0.263  63.734  0.5100 -0.2630 -0.2600
12327TIP3    H158472   0.386   0.187  63.709 -1.2809  0.6944  0.4176
12327TIP3    H258473   0.378   0.337  63.729  2.6316  1.4866 -2.7551
12328TIP3   OH258474   2.256   0.525  48.688 -0.1904 -0.1956  0.3690
12328TIP3    H158475   2.208   0.450  48.724  0.4031 -1.0800 -0.6327
12328TIP3    H258476   2.293   0.568  48.765 -0.4790 -0.9680  0.9636
12329TIP3   OH258477   1.445   0.156  19.257 -0.3475 -0.0872  0.2780
12329TIP3    H158478   1.526   0.174  19.208 -0.5688  0.2728  0.0411
12329TIP3    H258479   1.445   0.061  19.267 -0.5334 -0.2198 -0.8476
12330TIP3   OH258480   0.424   2.068  62.641 -0.1542 -0.9749 -0.1969
12330TIP3    H158481   0.418   2.162  62.659 -0.5219 -0.9690 -0.3573
12330TIP3    H258482   0.476   2.063  62.560 -1.3329 -0.8302 -0.9868
12331TIP3   OH258483   2.210   1.373  62.245 -0.1085  0.1676  0.0721
12331TIP3    H158484   2.254   1.452  62.277 -1.1109  0.1686  1.5893
12331TIP3    H258485   2.221   1.376  62.150  0.0249  2.0504  0.1032
12332TIP3   OH258486   2.108   2.225  48.829 -0.2143  0.0327  0.9407
12332TIP3    H158487   2.135   2.261  48.914  1.0774  0.9555  0.1776
12332TIP3    H258488   2.183   2.240  48.772 -1.3664  0.2042 -0.5920
12333TIP3   OH258489   1.205   2.293  59.931 -0.2967 -0.4243  0.0036
12333TIP3    H158490   1.259   2.219  59.958  1.6515  0.7178 -0.5750
12333TIP3    H258491   1.154   2.315  60.009 -0.8663 -2.2938  0.2014
12334TIP3   OH258492   2.567   1.361  57.965 -0.6036 -0.1822  0.3509
12334TIP3    H158493   2.555   1.414  57.886 -0.8603 -1.4178 -0.4748
12334TIP3    H258494   2.636   1.299  57.941 -0.9032 -0.7755  1.0034
12335TIP3   OH258495   1.630   2.258  17.562 -0.0261  0.2831 -0.6287
12335TIP3    H158496   1.718   2.220  17.555  0.8732  2.1943 -0.4817
12335TIP3    H258497   1.575   2.187  17.594  1.7815 -0.5777  0.7118
12336TIP3   OH258498   2.136   2.162  54.811 -0.1636 -0.2823 -0.2300
12336TIP3    H158499   2.203   2.096  54.827  0.1860 -0.5474 -2.3869
12336TIP3    H258500   2.180   2.246  54.826  0.5414 -0.4694 -1.1484
12337TIP3   OH258501   3.089   0.825  47.398  0.1384  0.1915  0.0355
12337TIP3    H158502   3.151   0.876  47.450 -0.1946  0.6012  0.0339
12337TIP3    H258503   3.006   0.871  47.408 -0.5636 -1.2556  1.3921
12338TIP3   OH258504   2.837   3.145   5.210 -0.7094 -0.1007 -0.0163
12338TIP3    H158505   2.839   3.165   5.116 -1.5770 -2.0656 -0.4929
12338TIP3    H258506   2.791   3.220   5.249  0.1587  1.0115 -1.0558
12339TIP3   OH258507   0.005   2.419  57.950  0.0676 -0.2134 -0.2663
12339TIP3    H158508   0.010   2.324  57.961  1.0701 -0.2160 -0.5695
12339TIP3    H258509   0.095   2.449  57.965 -0.3042  0.7224  0.1317
12340TIP3   OH258510   0.365   3.331  38.459 -0.0124 -0.2001  0.0705
12340TIP3    H158511   0.293   3.276  38.429  1.7411 -1.9180 -1.2399
12340TIP3    H258512   0.390   3.295  38.543  0.3124 -0.5988 -0.1953
12341TIP3   OH258513   0.452   1.936   8.545 -0.1009 -0.4380 -0.0541
12341TIP3    H158514   0.440   1.976   8.459  0.0893 -0.4596 -0.0934
12341TIP3    H258515   0.459   2.010   8.605 -0.1815 -0.4213 -0.0665
12342TIP3   OH258516   2.369   2.456  22.407 -0.0619  0.4318 -0.4184
12342TIP3    H158517   2.300   2.522  22.404  0.1096  0.5945 -2.3055
12342TIP3    H258518   2.342   2.396  22.476 -1.6944  0.9243 -0.5869
12343TIP3   OH258519   2.863   0.158  13.807 -0.0938  0.3567 -0.2642
12343TIP3    H158520   2.953   0.180  13.781  1.0376  1.6199  3.9101
12343TIP3    H258521   2.817   0.242  13.808 -0.7975 -0.0148 -0.5068
12344TIP3   OH258522   0.712   2.888  45.803 -0.7863 -0.0894  0.3736
12344TIP3    H158523   0.742   2.858  45.717 -2.4626 -0.8109 -0.0055
12344TIP3    H258524   0.636   2.833  45.822 -0.6736  0.3159  2.1646
12345TIP3   OH258525   0.508   2.187  10.053 -0.3878  0.0406 -0.0955
12345TIP3    H158526   0.522   2.282  10.050 -0.8610  0.1063 -0.2931
12345TIP3    H258527   0.518   2.159   9.962  1.8734 -0.4241  0.2241
12346TIP3   OH258528   1.479   1.168   7.479 -0.2376  0.1874 -0.5618
12346TIP3    H158529   1.387   1.193   7.487 -0.7942 -1.0298 -2.3175
12346TIP3    H258530   1.478   1.095   7.416  1.8940 -0.0922 -0.3456
12347TIP3   OH258531   0.545   2.271   9.583 -0.2780  0.3327 -0.0341
12347TIP3    H158532   0.469   2.277   9.524  0.1710  1.1917 -0.5553
12347TIP3    H258533   0.508   2.241   9.666 -1.2340  0.9589 -0.2084
12348TIP3   OH258534   2.239   2.525  47.872 -0.2080  0.0853  0.2518
12348TIP3    H158535   2.219   2.484  47.956  0.3292  2.2331  1.4983
12348TIP3    H258536   2.285   2.606  47.895  0.0640  0.6802 -2.1236
12349TIP3   OH258537   2.577   1.391  20.061 -0.6868  0.2222 -0.1071
12349TIP3    H158538   2.481   1.389  20.058 -0.7783  1.1102  1.1909
12349TIP3    H258539   2.602   1.453  19.992 -0.9297 -1.2027 -1.5256
12350TIP3   OH258540   1.914   1.460  11.034  0.5755  0.0722  0.2108
12350TIP3    H158541   1.819   1.472  11.031  0.5213 -0.4487 -0.3877
12350TIP3    H258542   1.949   1.547  11.056  0.0314  0.6019 -0.9417
12351TIP3   OH258543   1.901   3.144  47.416  0.3441 -0.0544  0.2418
12351TIP3    H158544   1.974   3.085  47.433  0.2243 -0.8851 -1.8805
12351TIP3    H258545   1.928   3.228  47.454  1.2341 -1.0053  1.8056
12352TIP3   OH258546   3.271   0.314  48.109 -0.0853 -0.2747 -0.0295
12352TIP3    H158547   3.313   0.237  48.148  1.8618  0.4520 -0.5628
12352TIP3    H258548   3.309   0.388  48.156 -0.0208  0.4683 -1.1992
12353TIP3   OH258549   0.759   3.164  48.815  0.7925  0.1573  0.7423
12353TIP3    H158550   0.740   3.255  48.792  1.4982  0.2505  0.5073
12353TIP3    H258551   0.843   3.169  48.862  1.4684 -0.4988 -0.3464
12354TIP3   OH258552   3.108   2.028  53.463 -0.5718 -0.0592 -0.4581
12354TIP3    H158553   3.045   1.959  53.482 -2.0281  1.6692  1.3809
12354TIP3    H258554   3.174   2.019  53.532 -0.5393  0.1175 -0.4672
12355TIP3   OH258555   1.388   2.203   2.058 -0.2112 -0.3973 -0.2671
12355TIP3    H158556   1.305   2.222   2.101 -0.2394  0.1236 -0.5430
12355TIP3    H258557   1.389   2.260   1.981  0.9036  0.4587  0.3512
12356TIP3   OH258558   2.155   0.239  49.671  0.0242 -0.5242  0.2741
12356TIP3    H158559   2.156   0.160  49.726 -0.5270 -0.2152  0.7436
12356TIP3    H258560   2.173   0.310  49.733  2.1660 -0.4113 -0.4096
12357TIP3   OH258561   3.442   2.458  12.191 -0.0317 -0.0544 -0.4664
12357TIP3    H158562   3.474   2.429  12.106  1.3987 -0.0663  0.0545
12357TIP3    H258563   3.490   2.539  12.209 -1.3747  0.7419 -0.3041
12358TIP3   OH258564   2.738   3.351   1.488 -0.2356 -0.2705 -0.0012
12358TIP3    H158565   2.707   3.375   1.401 -2.9324  0.8386  1.1677
12358TIP3    H258566   2.703   3.263   1.503  1.4228 -1.0557 -0.5274
12359TIP3   OH258567   1.733   2.716  11.213  0.2755 -0.0999 -0.0788
12359TIP3    H158568   1.828   2.727  11.205  0.1437  0.4508 -0.9768
12359TIP3    H258569   1.710   2.770  11.289  0.7264 -0.5434  0.3823
12360TIP3   OH258570   0.767   3.163  19.731  0.4885  0.1862 -0.6777
12360TIP3    H158571   0.757   3.252  19.764  0.3053  0.1547 -0.6472
12360TIP3    H258572   0.853   3.135  19.763  0.4552  0.2757 -0.5079
12361TIP3   OH258573   0.661   0.649  13.217 -0.1175  0.3540 -0.3164
12361TIP3    H158574   0.752   0.642  13.245 -0.1938 -0.2603 -0.2165
12361TIP3    H258575   0.636   0.561  13.191 -0.7428  0.4790 -0.1663
12362TIP3   OH258576   0.747   1.451  47.311  0.4922  0.3923  0.3407
12362TIP3    H158577   0.841   1.455  47.292  0.9396 -1.2153  1.8498
12362TIP3    H258578   0.738   1.372  47.365 -1.5717  1.1079  1.1311
12363TIP3   OH258579   0.208   1.579   5.795 -0.4868  0.3043 -0.7263
12363TIP3    H158580   0.189   1.642   5.864 -0.4436  0.6990 -1.0693
12363TIP3    H258581   0.161   1.500   5.821 -0.2527  0.3624 -0.1094
12364TIP3   OH258582   0.780   2.547  48.913  0.2481  0.0379  0.1400
12364TIP3    H158583   0.778   2.507  48.826  0.3253  0.2121  0.0544
12364TIP3    H258584   0.845   2.617  48.905  0.1262  0.1686  0.2857
12365TIP3   OH258585   2.662   1.042   4.259 -0.0127 -0.3702  0.2784
12365TIP3    H158586   2.623   1.118   4.216 -0.4492 -1.1754 -0.8301
12365TIP3    H258587   2.685   1.071   4.347 -1.6168  0.5959  0.4002
12366TIP3   OH258588   1.499   1.593   0.963  0.0482 -0.3800  0.0864
12366TIP3    H158589   1.481   1.546   0.882  1.4822 -2.3765  0.8496
12366TIP3    H258590   1.554   1.534   1.014  1.2745  1.8168  1.4854
12367TIP3   OH258591   0.594   3.335  15.840 -0.3032 -0.4687  0.7827
12367TIP3    H158592   0.525   3.275  15.811  1.0552 -1.1824 -1.2723
12367TIP3    H258593   0.667   3.317  15.780  0.2262  3.2084  0.0481
12368TIP3   OH258594   0.459   1.682  46.247 -0.4718 -0.3953 -0.7818
12368TIP3    H158595   0.444   1.647  46.335  0.4778 -0.5759 -0.6835
12368TIP3    H258596   0.548   1.655  46.225 -0.0477  1.1932 -1.0820
12369TIP3   OH258597   1.473   1.014   3.902 -0.2568 -0.3184 -0.2782
12369TIP3    H158598   1.425   1.022   3.984  0.8531  1.2451  0.2833
12369TIP3    H258599   1.417   0.960   3.846 -0.7432 -1.9879  1.6961
12370TIP3   OH258600   1.143   1.338   8.200  0.4098  0.4279 -0.5479
12370TIP3    H158601   1.167   1.376   8.284 -0.6069  0.7581 -0.3915
12370TIP3    H258602   1.106   1.252   8.222 -0.0202  0.5879 -0.6400
12371TIP3   OH258603   0.875   1.930  55.655  0.1600 -0.0955 -0.8682
12371TIP3    H158604   0.881   1.965  55.744  1.4670 -2.3625  0.0316
12371TIP3    H258605   0.806   1.864  55.660  1.9821 -2.1241 -0.7189
12372TIP3   OH258606   2.484   3.056  64.465 -0.2422  0.0774 -0.5772
12372TIP3    H158607   2.577   3.068  64.447 -0.3437  0.4570 -0.8747
12372TIP3    H258608   2.476   2.964  64.490 -0.0233 -0.3978 -2.1326
12373TIP3   OH258609   1.025   1.379  48.905 -0.5158  0.4286  0.4847
12373TIP3    H158610   1.090   1.380  48.976  0.0103  0.5356  0.0090
12373TIP3    H258611   1.053   1.308  48.848 -0.2449  1.1095 -0.2436
12374TIP3   OH258612   2.348   3.150  22.260  0.7771 -0.0336  0.2576
12374TIP3    H158613   2.417   3.165  22.325 -1.8994 -0.5758  3.4996
12374TIP3    H258614   2.321   3.059  22.275 -1.1212  0.3923 -0.3805
12375TIP3   OH258615   0.264   1.467  57.151 -0.4629 -0.2724 -0.4414
12375TIP3    H158616   0.285   1.551  57.110 -1.0905  0.3934  0.5667
12375TIP3    H258617   0.338   1.410  57.128  0.2161  0.6976 -0.7247
12376TIP3   OH258618   2.012   1.858  47.712 -0.0211  0.8172  0.5955
12376TIP3    H158619   1.976   1.928  47.766 -0.1960  1.0501  0.1847
12376TIP3    H258620   2.000   1.889  47.622  0.0743  0.3430  0.4168
12377TIP3   OH258621   1.742   1.607  51.486  0.4192  0.6383  0.0961
12377TIP3    H158622   1.655   1.576  51.460 -0.0011  2.0221 -0.2116
12377TIP3    H258623   1.728   1.697  51.515  1.7364  0.8434  0.1684
12378TIP3   OH258624   1.815   1.487   6.320  0.5370  0.3740  0.2908
12378TIP3    H158625   1.873   1.561   6.336 -1.5741  2.7316 -2.0337
12378TIP3    H258626   1.740   1.502   6.377 -0.2892  0.5565 -0.8147
12379TIP3   OH258627   1.063   2.135  44.202  0.2141 -0.3751  0.2566
12379TIP3    H158628   1.065   2.046  44.237 -0.4483 -0.9534 -1.0866
12379TIP3    H258629   1.008   2.184  44.264 -1.5818 -1.5556 -0.3012
12380TIP3   OH258630   1.400   0.764  22.270 -0.1410  0.2643 -0.4836
12380TIP3    H158631   1.387   0.786  22.363 -0.8018  0.6733 -0.6625
12380TIP3    H258632   1.364   0.676  22.261  0.1895  0.1075 -0.2941
12381TIP3   OH258633   0.077   0.999   1.534 -0.2341  0.2525  0.1015
12381TIP3    H158634   0.021   1.049   1.475 -0.5596 -1.1583 -0.8416
12381TIP3    H258635   0.140   1.062   1.567 -2.1112  1.8372  0.8993
12382TIP3   OH258636   3.418   1.565   3.596  0.1055 -0.1406 -0.3662
12382TIP3    H158637   3.491   1.616   3.631  0.5720 -0.9501 -0.1484
12382TIP3    H258638   3.451   1.476   3.591 -0.4970 -0.3205 -1.3385
12383TIP3   OH258639   0.705   3.186  50.535  0.1539  0.4814 -0.0414
12383TIP3    H158640   0.762   3.160  50.607  0.3071 -1.6068 -0.8580
12383TIP3    H258641   0.743   3.145  50.458 -0.1773  2.4194 -1.3142
12384TIP3   OH258642   2.389   3.214  53.239 -0.3815 -0.1827  0.3823
12384TIP3    H158643   2.301   3.217  53.202 -0.5598  1.3875  0.8284
12384TIP3    H258644   2.444   3.256  53.173 -0.0255 -0.8254  0.2657
12385TIP3   OH258645   0.229   2.551  58.351  0.0650  0.0489 -0.2772
12385TIP3    H158646   0.141   2.537  58.316 -1.2752  0.1855  2.6972
12385TIP3    H258647   0.247   2.644  58.335 -0.0864 -0.1016 -1.3592
12386TIP3   OH258648   2.171   0.351  66.260 -0.4390 -0.1143 -0.1010
12386TIP3    H158649   2.251   0.391  66.226  0.1525  0.2393  1.6261
12386TIP3    H258650   2.116   0.339  66.183 -0.0775  2.7122 -0.9198
12387TIP3   OH258651   0.902   1.075  12.356  0.1562 -0.3118 -0.3664
12387TIP3    H158652   0.878   0.983  12.364 -1.5500  0.0874 -0.3805
12387TIP3    H258653   0.855   1.105  12.279  2.5507  0.0596 -1.7839
12388TIP3   OH258654   3.066   2.362  20.845  0.3673 -0.1250 -0.1102
12388TIP3    H158655   3.006   2.312  20.790 -1.1284 -0.8268  2.0229
12388TIP3    H258656   3.128   2.400  20.784  0.2735 -2.7899 -2.0642
12389TIP3   OH258657   0.120   2.811  59.830 -0.1740  0.1563  0.2600
12389TIP3    H158658   0.193   2.870  59.850  0.1159 -0.5199  1.3090
12389TIP3    H258659   0.156   2.724  59.842 -1.2012 -0.1877  0.9995
12390TIP3   OH258660   1.356   3.293  53.520  0.0698  0.4039 -0.0769
12390TIP3    H158661   1.346   3.198  53.512 -0.2671  0.3920  0.4795
12390TIP3    H258662   1.270   3.325  53.547  0.5308  0.7108  1.0908
12391TIP3   OH258663   3.086   0.312  54.805 -0.0907  0.2648 -0.2008
12391TIP3    H158664   3.088   0.386  54.866  3.4084  0.1922  0.0262
12391TIP3    H258665   3.087   0.235  54.862 -3.6563 -0.0923 -0.4367
12392TIP3   OH258666   0.406   0.643  55.779 -0.2000 -0.2340 -0.7124
12392TIP3    H158667   0.331   0.584  55.767  0.7481 -1.2717 -1.8541
12392TIP3    H258668   0.449   0.644  55.694 -0.5659  2.7252 -0.9426
12393TIP3   OH258669   0.348   1.452  53.778 -0.6703  0.3822  0.0328
12393TIP3    H158670   0.413   1.382  53.771 -1.2681 -0.5580  2.5530
12393TIP3    H258671   0.398   1.529  53.804 -0.3048  0.1906 -0.1025
12394TIP3   OH258672   0.398   2.267   1.183 -0.3620  0.2151  0.1919
12394TIP3    H158673   0.382   2.348   1.134 -1.3758 -0.2754 -0.3197
12394TIP3    H258674   0.379   2.291   1.274 -0.9177  0.4912  0.0071
12395TIP3   OH258675   1.426   1.278  49.282 -0.1211 -0.2144  0.0263
12395TIP3    H158676   1.496   1.334  49.250  0.8514 -1.2965  0.2021
12395TIP3    H258677   1.421   1.296  49.376 -1.5763  1.4341 -0.2971
12396TIP3   OH258678   0.234   0.309  19.065  0.6798 -0.1140  1.0212
12396TIP3    H158679   0.275   0.346  19.143  1.5194 -1.3019  1.1672
12396TIP3    H258680   0.304   0.261  19.021 -0.1012 -0.5800  0.2475
12397TIP3   OH258681   2.770   0.240   4.286 -0.1087 -0.6647 -0.2414
12397TIP3    H158682   2.732   0.210   4.369  2.0082 -0.7113  0.7589
12397TIP3    H258683   2.761   0.336   4.290  1.4141 -0.5234  0.8416
12398TIP3   OH258684   2.343   2.258  17.311  0.7431 -0.4157  0.7342
12398TIP3    H158685   2.371   2.346  17.284 -1.2420  0.1467  0.3805
12398TIP3    H258686   2.425   2.213  17.331  1.8106  1.6976  1.5293
12399TIP3   OH258687   2.774   0.858   8.680 -0.0357  0.0036  0.6459
12399TIP3    H158688   2.775   0.860   8.776 -0.5627  1.1298  0.6423
12399TIP3    H258689   2.716   0.930   8.655 -0.0513 -0.3917 -0.5223
12400TIP3   OH258690   2.925   2.883  12.669 -1.1357  0.6039 -0.0304
12400TIP3    H158691   2.951   2.842  12.587 -0.9249  0.2392  0.2167
12400TIP3    H258692   2.991   2.952  12.683  0.7249 -1.3400  1.4025
12401TIP3   OH258693   3.367   1.123  57.278 -0.2441 -0.2733  0.1966
12401TIP3    H158694   3.392   1.061  57.346 -1.5286  0.0465  0.9789
12401TIP3    H258695   3.450   1.165  57.253  0.2047 -0.1411  1.8029
12402TIP3   OH258696   0.815   2.345   9.521 -0.0211 -0.6027  0.3936
12402TIP3    H158697   0.731   2.309   9.547 -0.8130  1.2255  0.5066
12402TIP3    H258698   0.833   2.305   9.436 -0.9807 -1.0479  0.3962
12403TIP3   OH258699   0.085   0.267  44.007 -0.2659  0.4728  0.1730
12403TIP3    H158700  -0.004   0.286  43.976  1.2244  3.4824 -2.8581
12403TIP3    H258701   0.106   0.340  44.065 -0.5433 -1.6011  3.0966
12404TIP3   OH258702   0.663   1.309  10.733 -0.3840 -0.6200 -0.4611
12404TIP3    H158703   0.636   1.373  10.668  0.3158 -0.0358 -0.1902
12404TIP3    H258704   0.688   1.232  10.682  0.7199  0.0315 -0.9479
12405TIP3   OH258705   1.231   2.538  11.792 -0.4944 -0.1011  0.4622
12405TIP3    H158706   1.295   2.585  11.846 -2.3614  0.8296  1.9986
12405TIP3    H258707   1.253   2.446  11.803  1.7808  0.2516 -0.6844
12406TIP3   OH258708   2.103   0.541  21.810  0.0054 -0.2793  0.6306
12406TIP3    H158709   2.025   0.486  21.801 -0.0823  0.0938 -1.3437
12406TIP3    H258710   2.079   0.605  21.877 -1.5370 -0.0048 -0.1152
12407TIP3   OH258711   1.831   3.196  48.971  0.1449  0.3373  0.6060
12407TIP3    H158712   1.760   3.133  48.980  1.3076 -1.4892 -1.8374
12407TIP3    H258713   1.825   3.227  48.880  2.0509  0.6253  0.5299
12408TIP3   OH258714   0.253   1.314   4.752 -0.3319  0.0726 -0.7142
12408TIP3    H158715   0.237   1.406   4.773  0.1102 -0.0607  0.2834
12408TIP3    H258716   0.326   1.316   4.690 -0.0319  0.3729 -0.3525
12409TIP3   OH258717   2.122   1.487  62.005  0.0293 -0.5442 -0.9465
12409TIP3    H158718   2.183   1.519  61.939 -1.5058 -0.1514 -2.2413
12409TIP3    H258719   2.114   1.560  62.067 -1.2822  0.5663 -2.3460
12410TIP3   OH258720   0.523   0.810  16.394 -0.0609 -0.1544 -0.4069
12410TIP3    H158721   0.523   0.735  16.334 -0.9471 -1.0200  0.6244
12410TIP3    H258722   0.481   0.777  16.474  1.6360  0.7687  0.9353
12411TIP3   OH258723   0.026   0.224  66.982  0.3090 -0.0320  0.2360
12411TIP3    H158724  -0.054   0.225  66.929 -0.4963  0.3394  1.4203
12411TIP3    H258725   0.043   0.317  67.001  1.5287 -0.0306 -0.7090
12412TIP3   OH258726   0.669   2.118  56.265 -0.2145  0.3308  0.1366
12412TIP3    H158727   0.586   2.077  56.288 -0.6813  0.8635 -0.5495
12412TIP3    H258728   0.733   2.081  56.326 -1.1251  0.5952  1.2742
12413TIP3   OH258729   1.774   1.548  61.655  0.2295  0.0561 -0.3704
12413TIP3    H158730   1.824   1.507  61.585  0.2907  0.6772 -0.7003
12413TIP3    H258731   1.685   1.515  61.643 -0.0168  1.0284 -1.4669
12414TIP3   OH258732   0.715   2.364  17.528  0.0895 -0.0048  1.0878
12414TIP3    H158733   0.763   2.359  17.611  1.0244 -2.4208  0.4772
12414TIP3    H258734   0.624   2.374  17.553  0.4698  0.3558  2.3834
12415TIP3   OH258735   3.186   0.947  19.425 -0.2086 -0.0051  0.5370
12415TIP3    H158736   3.157   1.028  19.468  2.2736  1.2857 -0.0630
12415TIP3    H258737   3.241   0.976  19.353  0.5718 -2.2396  0.1489
12416TIP3   OH258738   1.532   2.884   8.511  0.1664 -0.1347 -0.0555
12416TIP3    H158739   1.622   2.879   8.544  0.7904 -0.8115 -1.7674
12416TIP3    H258740   1.533   2.960   8.452 -0.4239 -0.0809  0.0005
12417TIP3   OH258741   3.323   1.933  47.999  0.2989 -0.5119 -0.0419
12417TIP3    H158742   3.247   1.881  47.973 -0.9846  1.0796  0.3613
12417TIP3    H258743   3.398   1.890  47.958 -0.9273 -1.5932 -1.2049
12418TIP3   OH258744   2.961   0.879  58.847 -0.3769 -0.1649 -0.2182
12418TIP3    H158745   2.881   0.900  58.799 -0.6596  2.7566  1.3335
12418TIP3    H258746   2.996   0.803  58.801 -2.0660  0.7087 -3.2619
12419TIP3   OH258747   1.393   0.359   3.075 -0.1311 -0.1171  0.0305
12419TIP3    H158748   1.346   0.442   3.068  1.7402  0.9490 -0.4155
12419TIP3    H258749   1.383   0.318   2.989  0.3619  0.4455 -0.2994
12420TIP3   OH258750   1.244   0.393   3.783  0.0539 -0.3177 -0.1901
12420TIP3    H158751   1.306   0.324   3.809  0.3238 -0.0652 -0.1519
12420TIP3    H258752   1.191   0.354   3.714  1.0623 -0.1510 -1.0835
12421TIP3   OH258753   3.018   3.206  49.093 -0.3970 -0.8596 -0.2680
12421TIP3    H158754   2.965   3.144  49.043 -2.0131  0.1523  0.1060
12421TIP3    H258755   2.988   3.197  49.183 -0.9670  0.6780 -0.2569
12422TIP3   OH258756   3.141   2.664  12.768  0.0181  0.0508 -0.1608
12422TIP3    H158757   3.158   2.654  12.674  0.6951  0.8800 -0.1356
12422TIP3    H258758   3.129   2.758  12.780 -0.7590 -0.1165  0.4801
12423TIP3   OH258759   2.250   1.661   4.389 -0.2273  0.0103 -0.5918
12423TIP3    H158760   2.159   1.643   4.363 -1.2736  1.1903  1.9395
12423TIP3    H258761   2.248   1.660   4.484  2.7525 -1.2012 -0.4401
12424TIP3   OH258762   1.487   2.741  15.766 -0.1596 -0.8172 -0.2027
12424TIP3    H158763   1.413   2.712  15.713 -1.3908  1.3450  0.1923
12424TIP3    H258764   1.462   2.721  15.856 -0.0901 -0.4646 -0.1014
12425TIP3   OH258765   0.440   0.646  34.067 -0.0200 -0.2699  0.2414
12425TIP3    H158766   0.464   0.738  34.078 -1.8852  0.2156  0.5846
12425TIP3    H258767   0.406   0.642  33.977 -0.3319 -0.5290  0.3727
12426TIP3   OH258768   0.122   1.984   9.171 -0.1291  0.0497  0.1503
12426TIP3    H158769   0.148   2.070   9.136  0.6636 -0.0448  0.4803
12426TIP3    H258770   0.115   1.928   9.094  1.7300 -0.1862  0.0931
12427TIP3   OH258771   1.357   2.273   9.416 -0.3366 -0.4377  0.6812
12427TIP3    H158772   1.319   2.320   9.341  0.0125 -0.8016  0.2690
12427TIP3    H258773   1.419   2.335   9.454  2.3431 -1.4835 -1.6286
12428TIP3   OH258774   1.924   0.150  16.261 -0.0460  0.4073 -0.2877
12428TIP3    H158775   1.958   0.079  16.206 -1.2609  0.6387 -1.3780
12428TIP3    H258776   1.985   0.222  16.248  0.4959 -0.0235 -0.1588
12429TIP3   OH258777   0.582   0.535   5.173  0.0512 -0.5515 -0.4232
12429TIP3    H158778   0.501   0.586   5.167  0.7837  0.8191  0.7544
12429TIP3    H258779   0.633   0.561   5.096  0.3779  0.4532  0.1191
12430TIP3   OH258780   0.037   3.166  64.478  0.3804 -0.2886 -0.3767
12430TIP3    H158781   0.076   3.248  64.447 -2.3219  0.5189 -2.0305
12430TIP3    H258782   0.082   3.097  64.430  0.8241  0.4618 -1.0476
12431TIP3   OH258783   2.524   1.203   0.769 -0.2772  0.1016  0.6013
12431TIP3    H158784   2.577   1.201   0.849 -0.4006  0.3181  0.6901
12431TIP3    H258785   2.468   1.125   0.776  0.8875 -0.8287 -0.0938
12432TIP3   OH258786   1.853   1.678  15.450  0.1759  0.2832 -0.3826
12432TIP3    H158787   1.765   1.643  15.439  0.3585 -0.3218  0.0578
12432TIP3    H258788   1.848   1.767  15.414 -0.4754  0.0695 -0.8331
12433TIP3   OH258789   1.237   2.679  50.572 -0.1045 -0.1498  0.0102
12433TIP3    H158790   1.173   2.608  50.586 -1.3088  0.9207  0.1395
12433TIP3    H258791   1.201   2.730  50.499 -0.1034  1.2192  0.9222
12434TIP3   OH258792   1.325   0.808  16.470 -0.3481 -0.1030 -0.1701
12434TIP3    H158793   1.235   0.804  16.501  0.3935  0.6055  2.3247
12434TIP3    H258794   1.322   0.861  16.391 -2.0405  0.3251  0.1578
12435TIP3   OH258795   1.193   0.973  20.561  0.3408 -0.1937  0.3189
12435TIP3    H158796   1.151   0.969  20.648 -2.4889  0.3409 -0.9083
12435TIP3    H258797   1.198   0.882  20.533  2.2276 -0.4737  1.3887
12436TIP3   OH258798   0.643   1.491   8.566  0.0841  0.3467  0.6150
12436TIP3    H158799   0.653   1.427   8.496  2.8296  1.5095 -0.1821
12436TIP3    H258800   0.570   1.546   8.539 -1.1221 -1.2512  0.4278
12437TIP3   OH258801   2.591   3.124  65.740  0.8348 -0.2451  0.2407
12437TIP3    H158802   2.610   3.181  65.815 -0.5852 -0.4596  0.8032
12437TIP3    H258803   2.502   3.148  65.714  1.1387 -0.4969 -1.1017
12438TIP3   OH258804   0.541   1.464  63.512 -0.4275  0.0538  0.3375
12438TIP3    H158805   0.601   1.486  63.442  1.0687 -0.5404  1.3929
12438TIP3    H258806   0.590   1.481  63.592 -1.0635 -2.0160  1.2291
12439TIP3   OH258807   0.223   0.838  22.283  0.5052 -0.5434  0.3704
12439TIP3    H158808   0.258   0.751  22.301 -0.7635 -0.8011  1.7931
12439TIP3    H258809   0.202   0.874  22.370 -2.2080 -0.2123 -0.3537
12440TIP3   OH258810   0.540   3.441   5.318 -0.1396  0.5146 -0.2629
12440TIP3    H158811   0.522   3.509   5.252 -1.9544  2.5008  2.0847
12440TIP3    H258812   0.463   3.383   5.313  0.4135 -0.1882 -0.8329
12441TIP3   OH258813   2.693   0.533   0.636 -0.0783 -0.6653  0.0171
12441TIP3    H158814   2.753   0.602   0.663 -1.0408  0.5417 -0.7894
12441TIP3    H258815   2.621   0.537   0.699 -0.6015 -0.2418 -0.5829
12442TIP3   OH258816   0.562   0.044  59.911  0.2992  0.6289  0.2691
12442TIP3    H158817   0.472   0.037  59.942  0.6404 -0.8197  1.0205
12442TIP3    H258818   0.616   0.024  59.988  1.2235  0.1220 -0.4851
12443TIP3   OH258819   1.529   0.495  65.459 -0.3230 -0.0582 -0.5704
12443TIP3    H158820   1.554   0.513  65.550  1.7775 -0.9227 -0.9172
12443TIP3    H258821   1.458   0.431  65.467 -0.4817  0.2198  0.4717
12444TIP3   OH258822   1.232   2.946  62.107 -0.3103  0.2211 -0.1143
12444TIP3    H158823   1.187   2.862  62.095 -3.6141  1.2164  3.1987
12444TIP3    H258824   1.208   2.997  62.029 -1.5403 -0.6969 -0.3726
12445TIP3   OH258825   3.320   2.144  65.581 -0.4700  0.4858  0.4263
12445TIP3    H158826   3.353   2.138  65.491 -0.8816  1.5962  0.1840
12445TIP3    H258827   3.398   2.154  65.635 -0.1637 -0.9247  0.2915
12446TIP3   OH258828   1.804   0.401  13.766 -0.3094  0.0936 -0.7352
12446TIP3    H158829   1.885   0.421  13.720 -0.0165  0.9323  0.1081
12446TIP3    H258830   1.748   0.360  13.700  0.7819 -0.4878 -1.3384
12447TIP3   OH258831   0.117   3.185   6.584  0.2762  0.1554  0.1584
12447TIP3    H158832   0.159   3.112   6.538  1.9096  0.9974  0.2161
12447TIP3    H258833   0.150   3.263   6.540  0.9622  0.9442  1.9584
12448TIP3   OH258834   1.388   1.059  50.535 -0.3744 -0.4434  0.1314
12448TIP3    H158835   1.335   1.136  50.557  0.5314  0.3607 -0.4240
12448TIP3    H258836   1.354   1.031  50.450  0.0942  0.0908 -0.2383
12449TIP3   OH258837   2.734   1.813  18.297  0.0893 -0.8269 -0.1567
12449TIP3    H158838   2.792   1.792  18.370 -1.2732 -1.7254  0.7314
12449TIP3    H258839   2.788   1.864  18.236  0.8670  1.4515  2.2276
12450TIP3   OH258840   2.565   1.158  44.204 -0.5264  0.7524 -0.3940
12450TIP3    H158841   2.546   1.067  44.180  2.2845  0.0567 -0.2693
12450TIP3    H258842   2.568   1.157  44.300 -1.1735  1.1539 -0.3627
12451TIP3   OH258843   3.129   0.132  10.115 -0.3213  0.4149 -0.1532
12451TIP3    H158844   3.169   0.101  10.034  2.5979  2.0361  0.4954
12451TIP3    H258845   3.101   0.221  10.094  0.7542  0.9651  0.6185
12452TIP3   OH258846   1.097   0.576  45.808 -0.5317  0.2659  0.0545
12452TIP3    H158847   1.005   0.555  45.790 -0.2479 -1.2524  0.2275
12452TIP3    H258848   1.106   0.565  45.903  0.7241 -3.7666 -0.3713
12453TIP3   OH258849   1.250   2.857  49.937 -0.0692 -0.7981 -0.1922
12453TIP3    H158850   1.295   2.777  49.910 -1.5340 -1.7639  0.0685
12453TIP3    H258851   1.224   2.899  49.855  1.4973 -0.0783 -0.3512
12454TIP3   OH258852   3.247   0.274  22.390  0.1007  0.8623  0.1616
12454TIP3    H158853   3.274   0.331  22.462  0.1761  0.7907  0.1914
12454TIP3    H258854   3.286   0.189  22.412 -0.2952  0.7149  0.2901
12455TIP3   OH258855   1.371   0.059  57.626 -0.0656  0.5539  0.1034
12455TIP3    H158856   1.303   0.127  57.628 -2.8395 -1.9652 -0.3152
12455TIP3    H258857   1.370   0.023  57.714  2.7747  2.1518  0.8997
12456TIP3   OH258858   3.264   0.365   2.869  0.1872  0.3369 -0.3168
12456TIP3    H158859   3.249   0.343   2.961 -0.1080 -0.8369 -0.6199
12456TIP3    H258860   3.359   0.362   2.858  0.1568 -1.1273 -0.3931
12457TIP3   OH258861   1.129   0.124  55.819  0.3984  0.3239 -0.3638
12457TIP3    H158862   1.126   0.073  55.738  0.0835  2.3452 -1.6921
12457TIP3    H258863   1.204   0.182  55.809  0.4290  0.5313  0.8544
12458TIP3   OH258864   0.684   3.403  64.117 -0.2403  0.1729 -0.3092
12458TIP3    H158865   0.607   3.451  64.085  0.0650  1.4060  0.7086
12458TIP3    H258866   0.649   3.342  64.182 -0.3700  0.7275  0.1487
12459TIP3   OH258867   0.901   2.617  54.915  0.4931  0.3235 -0.5733
12459TIP3    H158868   0.830   2.558  54.887  0.4417  0.4350 -0.6806
12459TIP3    H258869   0.907   2.682  54.844 -0.1143  1.0285  0.0106
12460TIP3   OH258870   2.817   1.652  60.872  0.0712  0.1569 -0.0976
12460TIP3    H158871   2.813   1.615  60.960  2.3772 -0.2061 -0.0749
12460TIP3    H258872   2.908   1.636  60.844 -0.6847 -0.0652 -2.6712
12461TIP3   OH258873   0.603   0.976  19.640 -0.5638  0.1721  0.1268
12461TIP3    H158874   0.612   0.919  19.564 -0.7229 -1.4941  1.2899
12461TIP3    H258875   0.509   0.994  19.646 -0.5105  0.5640 -0.2625
12462TIP3   OH258876   2.066   3.110  53.909 -0.6143  0.3286 -0.0725
12462TIP3    H158877   2.101   3.100  53.820  1.9992 -0.6251  0.9493
12462TIP3    H258878   2.020   3.193  53.907 -0.7089  0.3020 -2.3336
12463TIP3   OH258879   1.593   0.599   9.009  0.2953  0.0283 -0.0367
12463TIP3    H158880   1.592   0.618   8.916  1.8411  0.9033  0.0961
12463TIP3    H258881   1.501   0.607   9.037 -0.0896  0.3375 -1.3436
12464TIP3   OH258882   2.511   0.384  11.927  0.6378 -0.4367  0.2045
12464TIP3    H158883   2.448   0.392  11.855  0.1734  0.4693  0.6992
12464TIP3    H258884   2.545   0.473  11.939  2.1325 -0.9329 -0.1441
12465TIP3   OH258885   0.394   2.356   0.778  0.3870 -0.4109  0.2515
12465TIP3    H158886   0.420   2.442   0.811  2.4677  0.1499 -2.4732
12465TIP3    H258887   0.340   2.376   0.701 -0.4794 -1.5989  0.5120
12466TIP3   OH258888   1.809   2.952  63.372  0.2651 -0.3384 -0.9002
12466TIP3    H158889   1.812   3.017  63.442  1.9263 -0.5070 -0.7870
12466TIP3    H258890   1.716   2.935  63.359 -0.1033  0.4521  0.5605
12467TIP3   OH258891   0.773   1.386   9.012 -0.1201  0.1719  0.3244
12467TIP3    H158892   0.710   1.384   8.940  0.8479  0.2153 -0.5581
12467TIP3    H258893   0.741   1.455   9.070  0.4754  2.0333 -1.4265
12468TIP3   OH258894   1.651   1.464  46.856 -0.2472  0.2547  0.1579
12468TIP3    H158895   1.581   1.517  46.817  0.1413  0.7216  0.0799
12468TIP3    H258896   1.608   1.414  46.925 -0.8637 -0.2706 -0.5914
12469TIP3   OH258897   0.614   0.522  10.933 -0.3323 -0.4174 -0.1900
12469TIP3    H158898   0.671   0.588  10.892  0.9463 -0.3396  1.6217
12469TIP3    H258899   0.669   0.444  10.941 -0.2006 -0.1385  2.1960
12470TIP3   OH258900   2.022   2.871   7.553 -0.0414  0.0327  0.1248
12470TIP3    H158901   1.959   2.939   7.531  0.7619  0.7481 -0.0166
12470TIP3    H258902   2.047   2.833   7.468  1.6605  1.5313 -0.0931
12471TIP3   OH258903   0.168   1.404  61.484 -0.6905 -0.0304  0.3245
12471TIP3    H158904   0.200   1.383  61.571 -1.3863 -0.3928  0.5048
12471TIP3    H258905   0.234   1.367  61.425 -0.1879  0.2676  0.6909
12472TIP3   OH258906   1.113   0.556  61.408 -0.5326  0.0768 -0.0080
12472TIP3    H158907   1.112   0.532  61.316 -0.2527 -1.3644  0.3386
12472TIP3    H258908   1.024   0.588  61.426 -0.2560  1.5049 -1.0252
12473TIP3   OH258909   2.793   0.432  59.682  0.0744 -0.2225  0.1138
12473TIP3    H158910   2.711   0.407  59.724 -1.2352  0.0789 -2.0856
12473TIP3    H258911   2.766   0.483  59.606  2.2968 -0.4378 -0.8929
12474TIP3   OH258912   0.241   1.287  29.143 -0.2917  0.0427  0.8190
12474TIP3    H158913   0.210   1.320  29.059  0.4951 -1.0412  0.0749
12474TIP3    H258914   0.188   1.333  29.208 -0.4030  1.4524 -0.2211
12475TIP3   OH258915   2.635   2.331  50.676  0.5107  0.6973 -0.5618
12475TIP3    H158916   2.659   2.285  50.596  3.3370 -0.0991  0.6070
12475TIP3    H258917   2.668   2.420  50.663 -0.4438  1.0063 -0.8849
12476TIP3   OH258918   0.032   0.776   6.726 -0.0510  0.2710 -0.0408
12476TIP3    H158919  -0.024   0.709   6.687  0.2197 -0.4050  0.6960
12476TIP3    H258920   0.119   0.736   6.729  0.6132  1.4776 -1.6187
12477TIP3   OH258921   1.526   0.346  47.550  0.2268 -0.2934 -0.5309
12477TIP3    H158922   1.552   0.413  47.487  0.4607 -0.1222 -0.2539
12477TIP3    H258923   1.604   0.332  47.604 -0.2934  0.3453  0.4148
12478TIP3   OH258924   2.950   2.433  64.993 -0.1777  0.0125 -0.3035
12478TIP3    H158925   3.007   2.408  64.921 -1.8618 -1.1935 -1.2790
12478TIP3    H258926   2.883   2.489  64.953 -1.6660 -1.4112  0.0765
12479TIP3   OH258927   3.417   1.003   9.527 -0.1941 -0.4453  0.4595
12479TIP3    H158928   3.397   1.029   9.617 -1.1836 -0.2888  0.2090
12479TIP3    H258929   3.405   0.908   9.527 -0.8418 -0.3715  0.3496
12480TIP3   OH258930   2.451   3.151  59.457  0.1619  0.3127  0.0690
12480TIP3    H158931   2.359   3.139  59.436 -0.2112  0.9175  1.2901
12480TIP3    H258932   2.498   3.107  59.385 -1.0576  0.2032 -0.6820
12481TIP3   OH258933   2.333   2.843  16.869  0.6198  0.1752  0.4524
12481TIP3    H158934   2.338   2.822  16.962 -0.9398 -0.6564  0.3705
12481TIP3    H258935   2.342   2.939  16.866  2.2443  0.0911  1.2926
12482TIP3   OH258936   2.556   1.269   4.640  0.4649 -0.3450  0.1471
12482TIP3    H158937   2.471   1.285   4.599  1.8141 -0.8132 -3.1000
12482TIP3    H258938   2.585   1.355   4.670 -1.6059 -0.3539  2.5197
12483TIP3   OH258939   2.053   2.518  20.463 -0.1265 -1.1772  0.9233
12483TIP3    H158940   2.014   2.504  20.550  1.3137  0.0880  1.8402
12483TIP3    H258941   2.129   2.574  20.480 -0.1309 -0.4082 -1.2338
12484TIP3   OH258942   0.780   2.920  47.265  0.8641  0.3713 -0.1687
12484TIP3    H158943   0.736   2.836  47.279 -0.1915  0.9909  0.3447
12484TIP3    H258944   0.872   2.897  47.252  0.8980 -0.7327  1.7050
12485TIP3   OH258945   2.385   0.119  50.246  0.0010 -0.2910  0.3754
12485TIP3    H158946   2.468   0.085  50.211  0.9135 -0.1453  2.2745
12485TIP3    H258947   2.403   0.135  50.338 -2.3188 -0.7832  0.9803
12486TIP3   OH258948   2.633   0.093  42.285 -0.1665 -0.6329 -0.7030
12486TIP3    H158949   2.552   0.100  42.236  0.1975 -1.2595 -1.4073
12486TIP3    H258950   2.694   0.051  42.225  1.2125  1.3771 -0.8340
12487TIP3   OH258951   0.548   1.215  63.617  0.3237  0.3223 -0.0768
12487TIP3    H158952   0.528   1.283  63.552 -2.0725 -0.6270 -0.4568
12487TIP3    H258953   0.544   1.260  63.701 -0.8493  0.7695 -0.3468
12488TIP3   OH258954   2.532   0.674  12.374 -0.0789  0.2249 -0.1728
12488TIP3    H158955   2.527   0.587  12.335  1.5855 -0.4482  1.0349
12488TIP3    H258956   2.556   0.731  12.301  1.3547 -0.7519 -0.5043
12489TIP3   OH258957   2.060   0.907  26.200 -0.4370 -0.1063 -0.2543
12489TIP3    H158958   1.966   0.918  26.186 -0.8535 -0.0332  2.1530
12489TIP3    H258959   2.072   0.812  26.201 -1.0895 -0.2306  2.4183
12490TIP3   OH258960   2.395   2.647  67.359  0.3290 -0.2378  0.1277
12490TIP3    H158961   2.454   2.598  67.301  0.1630 -0.4846  0.1632
12490TIP3    H258962   2.337   2.581  67.395 -0.5831  0.1272 -0.6340
12491TIP3   OH258963   0.487   0.240  11.970  0.1734 -0.5968 -0.3404
12491TIP3    H158964   0.410   0.268  11.920  0.6311  1.6817  0.1022
12491TIP3    H258965   0.553   0.220  11.903  1.2154  3.6668 -0.8936
12492TIP3   OH258966   2.054   1.997   7.580  0.4669 -0.1027  0.2406
12492TIP3    H158967   1.975   2.045   7.607  0.0843 -0.8390  0.4744
12492TIP3    H258968   2.114   2.064   7.548 -1.2962  0.2535 -2.6203
12493TIP3   OH258969   2.667   1.835  22.005  0.5958  0.3081  0.6643
12493TIP3    H158970   2.701   1.921  22.028  1.5238 -0.4075  2.1491
12493TIP3    H258971   2.594   1.821  22.065 -0.7635  0.8002 -0.8280
12494TIP3   OH258972   0.380   3.405  62.917  0.2425  0.3141 -0.2558
12494TIP3    H158973   0.429   3.330  62.884  0.5069  0.2572  0.2614
12494TIP3    H258974   0.323   3.369  62.985 -1.1091  0.2366 -1.3764
12495TIP3   OH258975   1.088   2.244  59.480 -0.2919 -0.4335 -0.0719
12495TIP3    H158976   1.181   2.225  59.486 -0.4554 -1.1366  0.2528
12495TIP3    H258977   1.054   2.182  59.415 -0.6425 -0.5661  0.2368
12496TIP3   OH258978   2.243   0.066  17.136  0.5547 -0.2114 -0.0095
12496TIP3    H158979   2.325   0.107  17.108 -0.5311  1.4431 -0.9034
12496TIP3    H258980   2.269   0.007  17.207  2.4896  0.3760 -0.1681
12497TIP3   OH258981   0.057   2.744  56.667  0.9044 -0.0048 -0.3944
12497TIP3    H158982   0.149   2.755  56.689  0.4801  0.7693  1.1284
12497TIP3    H258983   0.014   2.727  56.751 -0.8348  3.1243 -0.5146
12498TIP3   OH258984   0.710   2.616   3.164  0.2213  1.0283  0.1077
12498TIP3    H158985   0.719   2.549   3.231 -0.5800  0.6993 -0.1062
12498TIP3    H258986   0.747   2.577   3.085  0.3336  1.0769  0.1360
12499TIP3   OH258987   2.536   1.431  58.217  0.1279  0.1391  0.4889
12499TIP3    H158988   2.513   1.523  58.210 -0.6161  0.0747  1.7948
12499TIP3    H258989   2.543   1.401  58.126 -2.0516  0.8897  0.0107
12500TIP3   OH258990   0.691   2.661  13.823  0.1409 -0.3762 -0.8323
12500TIP3    H158991   0.753   2.591  13.842  1.6573  0.7162 -1.5892
12500TIP3    H258992   0.668   2.696  13.910  1.6653  0.0915 -0.5845
12501TIP3   OH258993   3.206   0.761  13.147 -0.3054 -0.0874 -0.2992
12501TIP3    H158994   3.201   0.707  13.226  3.9845 -2.8637 -1.5765
12501TIP3    H258995   3.283   0.816  13.160 -1.6374  2.1395 -1.2066
12502TIP3   OH258996   2.467   1.132   1.136 -0.4679  0.1973 -0.4611
12502TIP3    H158997   2.475   1.103   1.227 -0.5452  0.3353 -0.4099
12502TIP3    H258998   2.384   1.180   1.133 -1.1529 -0.9569 -0.9149
12503TIP3   OH258999   0.375   0.834  30.940  0.2091 -0.3904  0.0733
12503TIP3    H159000   0.457   0.838  30.989 -0.6484  1.1677  1.4762
12503TIP3    H259001   0.325   0.764  30.982  0.1975 -0.2784  0.2467
12504TIP3   OH259002   0.633   2.922  11.093 -0.2463 -0.2439  0.5673
12504TIP3    H159003   0.728   2.913  11.095 -0.1198  0.9408  0.5886
12504TIP3    H259004   0.610   2.920  11.000 -0.4902 -2.9897  0.6271
12505TIP3   OH259005   0.079   0.420  48.305 -0.2323  0.8754 -0.0796
12505TIP3    H159006   0.155   0.378  48.265 -0.6699  0.7789 -0.8190
12505TIP3    H259007   0.108   0.510  48.322 -0.2544  1.1148 -1.2426
12506TIP3   OH259008   0.523   1.484  57.340 -0.1265  0.2006  0.2581
12506TIP3    H159009   0.609   1.446  57.355  0.2361  0.9046  0.0033
12506TIP3    H259010   0.538   1.578  57.341 -0.7847  0.3199 -0.4313
12507TIP3   OH259011   1.607   1.619  46.595  0.0080  0.2080  0.0659
12507TIP3    H159012   1.701   1.618  46.614 -0.2772  0.3614  1.6540
12507TIP3    H259013   1.600   1.649  46.505  1.4113  1.8933  0.4820
12508TIP3   OH259014   0.070   0.730  58.031  0.1103  0.2599  0.1169
12508TIP3    H159015   0.004   0.689  58.088 -1.0512  0.6506 -0.9195
12508TIP3    H259016   0.071   0.675  57.953 -1.1962  1.9103 -1.1426
12509TIP3   OH259017   0.377   3.274  48.059  0.0048 -0.3350  0.5769
12509TIP3    H159018   0.392   3.193  48.109  0.6602 -0.1716  0.6592
12509TIP3    H259019   0.426   3.341  48.107  2.6499 -0.6117 -1.5146
12510TIP3   OH259020   2.492   0.990  22.738 -0.3193 -0.1522  0.4198
12510TIP3    H159021   2.481   1.001  22.832 -2.2138  0.8327  0.1385
12510TIP3    H259022   2.416   0.938  22.711 -0.3172  0.3800 -0.6848
12511TIP3   OH259023   1.279   0.190  43.863 -0.0386  0.1121 -0.0623
12511TIP3    H159024   1.317   0.250  43.927 -0.0043 -0.7243  0.7194
12511TIP3    H259025   1.218   0.244  43.813  0.1149  0.8325  0.5088
12512TIP3   OH259026   3.163   3.039  56.686 -0.1459 -0.0566 -0.3527
12512TIP3    H159027   3.138   3.121  56.644  1.0128  0.4543 -0.0776
12512TIP3    H259028   3.147   2.972  56.619 -1.6326  0.3005 -0.3884
12513TIP3   OH259029   2.134   2.269   0.426 -0.3507 -0.3584  0.2524
12513TIP3    H159030   2.118   2.339   0.491 -1.0726 -1.7949  1.6945
12513TIP3    H259031   2.052   2.264   0.377  0.0188  0.3853 -0.4699
12514TIP3   OH259032   2.846   1.872  22.744  0.0829 -0.3004 -0.0425
12514TIP3    H159033   2.906   1.842  22.813  0.0575  1.6800  0.9101
12514TIP3    H259034   2.893   1.942  22.699 -0.9012  0.2201 -0.3014
12515TIP3   OH259035   1.127   1.974  61.339  0.2733 -0.0906  0.0098
12515TIP3    H159036   1.044   1.956  61.382 -0.4058 -0.7275 -1.5184
12515TIP3    H259037   1.162   1.888  61.317  1.4770  0.1560  0.8451
12516TIP3   OH259038   2.730   2.807  49.433  0.2569 -0.1229 -0.3103
12516TIP3    H159039   2.668   2.773  49.498 -0.5267 -1.1577 -1.5494
12516TIP3    H259040   2.813   2.812  49.480  0.0277 -2.1897  0.4296
12517TIP3   OH259041   2.426   2.439  56.621  0.3550 -0.3924  0.8615
12517TIP3    H159042   2.485   2.396  56.559 -0.0091 -1.0844  0.9865
12517TIP3    H259043   2.477   2.512  56.656  0.9387 -0.6411  0.5439
12518TIP3   OH259044   2.854   3.036   4.461 -0.4056 -0.3463 -0.4443
12518TIP3    H159045   2.767   3.015   4.496 -0.0094  0.1084  0.8579
12518TIP3    H259046   2.841   3.118   4.413 -0.9038 -0.8419 -1.1759
12519TIP3   OH259047   1.135   1.476  11.208  0.8362  0.4468  0.3666
12519TIP3    H159048   1.101   1.566  11.216  0.2359  0.0780  2.4335
12519TIP3    H259049   1.212   1.475  11.264  0.1688 -0.6256  1.2996
12520TIP3   OH259050   0.104   0.985  49.739 -0.3118 -0.9363  0.4187
12520TIP3    H159051   0.132   1.076  49.746 -0.9341 -0.7253  0.1570
12520TIP3    H259052   0.178   0.935  49.775  0.0430 -0.3359  0.5386
12521TIP3   OH259053   0.166   2.860  67.445 -0.2550 -0.2588  0.2802
12521TIP3    H159054   0.258   2.853  67.421  0.2922  0.9685  1.8483
12521TIP3    H259055   0.152   2.789  67.508  0.1229  0.6707  1.4307
12522TIP3   OH259056   0.598   0.442  21.871 -0.1156 -0.0618  0.2445
12522TIP3    H159057   0.683   0.464  21.834  0.8581 -1.4066  1.5646
12522TIP3    H259058   0.589   0.500  21.947 -1.0027  0.9937 -0.6379
12523TIP3   OH259059   2.590   3.041  51.631 -0.4746 -0.2761  1.0222
12523TIP3    H159060   2.654   3.091  51.580  0.1171 -0.7878  1.2476
12523TIP3    H259061   2.617   3.054  51.722 -1.8563  1.0900  1.2705
12524TIP3   OH259062   0.259   3.228  53.603  0.1754 -0.0443  0.0878
12524TIP3    H159063   0.354   3.239  53.606  0.2008 -0.4297  1.1705
12524TIP3    H259064   0.225   3.300  53.656  0.1389 -2.3393  3.5820
12525TIP3   OH259065   2.750   3.030  54.531 -0.4914 -0.6400  0.1370
12525TIP3    H159066   2.707   2.985  54.603 -0.1533  0.0807  0.8025
12525TIP3    H259067   2.679   3.075  54.485 -0.6227 -0.5234  0.4476
12526TIP3   OH259068   1.224   3.441  10.998  0.5528 -0.3652  0.3088
12526TIP3    H159069   1.129   3.437  10.986  0.6746  0.0019 -1.0198
12526TIP3    H259070   1.245   3.534  10.997  0.9890 -0.4587 -0.1058
12527TIP3   OH259071   1.074   1.692   0.807  0.1041  0.7346  0.1384
12527TIP3    H159072   1.022   1.714   0.884  0.2141 -0.8057  0.6818
12527TIP3    H259073   1.115   1.609   0.829  2.1334  1.4742 -0.6131
12528TIP3   OH259074   0.353   1.862   2.355  1.0641  0.1593 -0.1034
12528TIP3    H159075   0.315   1.941   2.395  1.8174  0.4695  0.0340
12528TIP3    H259076   0.357   1.799   2.427  1.4145  0.3537  0.0554
12529TIP3   OH259077   0.304   0.926  14.158  0.2591 -0.7044 -0.3395
12529TIP3    H159078   0.391   0.967  14.154  0.4246 -1.0002  0.1337
12529TIP3    H259079   0.313   0.857  14.224 -0.2648 -0.9121 -0.4786
12530TIP3   OH259080   2.601   1.834   6.516  0.4094  0.3221 -0.0716
12530TIP3    H159081   2.581   1.761   6.457 -0.1838  0.2367  0.2338
12530TIP3    H259082   2.657   1.796   6.584 -1.6844 -0.3894  1.3391
12531TIP3   OH259083   2.842   1.398   0.824  0.3168  0.4731  0.1051
12531TIP3    H159084   2.812   1.481   0.862 -1.2401 -0.2885  0.6346
12531TIP3    H259085   2.769   1.338   0.837  0.4740 -0.3842 -2.3624
12532TIP3   OH259086   0.964   1.406  14.827  0.4186  0.1084  0.2090
12532TIP3    H159087   1.031   1.416  14.760  0.5959  0.1748  0.3941
12532TIP3    H259088   0.933   1.316  14.818  1.6515 -0.4289  1.1557
12533TIP3   OH259089   1.564   3.277  60.187  0.6785 -0.3187  0.2343
12533TIP3    H159090   1.548   3.294  60.094 -0.4644 -2.2049  0.0105
12533TIP3    H259091   1.607   3.355  60.220 -1.3661  1.5517 -1.2596
12534TIP3   OH259092   3.046   1.229  44.756  0.6040  0.4806  0.4540
12534TIP3    H159093   2.995   1.196  44.829 -2.0281  0.2710 -1.3685
12534TIP3    H259094   3.054   1.155  44.695 -0.9037  1.6860 -1.3241
12535TIP3   OH259095   2.002   0.166  18.567 -0.0302 -0.0610 -0.4118
12535TIP3    H159096   2.027   0.174  18.659 -0.1899 -0.3605 -0.3421
12535TIP3    H259097   2.041   0.083  18.538 -0.0087  0.0147 -0.6054
12536TIP3   OH259098   3.307   0.575  44.801 -0.2560 -0.5753  0.4673
12536TIP3    H159099   3.401   0.557  44.794 -0.5590 -2.1294 -0.1110
12536TIP3    H259100   3.300   0.670  44.792  1.0970 -0.6046 -1.5667
12537TIP3   OH259101   3.002   1.100  50.815  0.2405 -0.8540 -0.4548
12537TIP3    H159102   3.031   1.180  50.772 -0.6250 -0.2492  0.0767
12537TIP3    H259103   3.075   1.038  50.802  1.3006  0.2835 -0.0973
12538TIP3   OH259104   3.312   1.696   0.547  0.4683 -0.5670 -0.0102
12538TIP3    H159105   3.289   1.762   0.612 -1.1952 -0.1668 -0.9505
12538TIP3    H259106   3.373   1.742   0.488  0.8898 -0.5073  0.4624
12539TIP3   OH259107   1.472   1.901  18.059  0.0168  0.0896 -0.0831
12539TIP3    H159108   1.427   1.895  18.143 -0.5169 -1.0463 -0.4299
12539TIP3    H259109   1.521   1.819  18.052  0.7926  0.5723 -0.4765
12540TIP3   OH259110   0.246   2.323   4.775 -0.1493 -0.2396  0.4634
12540TIP3    H159111   0.152   2.336   4.768 -0.0230  0.7354  0.4483
12540TIP3    H259112   0.265   2.248   4.718 -0.9286 -0.5491  0.6023
12541TIP3   OH259113   0.145   0.602   1.301  0.3439 -0.2333  0.1589
12541TIP3    H159114   0.079   0.655   1.346 -0.5008  0.3518 -1.6461
12541TIP3    H259115   0.102   0.517   1.287  0.6799 -0.4837  0.6308
12542TIP3   OH259116   3.252   1.071   7.626 -0.2157  0.3647  0.3167
12542TIP3    H159117   3.226   1.030   7.709  0.6816 -1.1626 -0.1039
12542TIP3    H259118   3.348   1.066   7.626 -0.2242 -1.1734 -1.4766
12543TIP3   OH259119   1.125   2.778  10.646 -0.1613  0.1328 -0.4632
12543TIP3    H159120   1.076   2.765  10.565 -1.2711  0.8190  0.0754
12543TIP3    H259121   1.173   2.696  10.658  1.2350  0.5353 -2.5907
12544TIP3   OH259122   1.654   0.294  66.865 -0.4503  0.0408 -0.2760
12544TIP3    H159123   1.749   0.297  66.859 -0.4302  0.2067  0.1231
12544TIP3    H259124   1.635   0.205  66.897 -0.3798  0.2955  0.4944
12545TIP3   OH259125   0.293   0.298  19.409  0.2446  0.3947  0.1474
12545TIP3    H159126   0.256   0.319  19.495  0.1994  1.7011 -0.1669
12545TIP3    H259127   0.276   0.204  19.398 -0.2988  0.3368  1.2942
12546TIP3   OH259128   0.539   2.046  61.351  0.2352  0.4150 -0.0156
12546TIP3    H159129   0.468   2.029  61.413 -1.2587  0.8122 -1.5160
12546TIP3    H259130   0.572   2.133  61.375  0.6183 -0.0162  1.0555
12547TIP3   OH259131   1.621   2.151  58.785 -0.2938 -0.9298 -0.4877
12547TIP3    H159132   1.704   2.199  58.788 -0.4580 -0.6990  1.4806
12547TIP3    H259133   1.646   2.061  58.763  0.2540 -0.4958 -1.7692
12548TIP3   OH259134   1.513   2.951  51.892 -0.1426 -0.3977 -0.3233
12548TIP3    H159135   1.570   2.981  51.962  0.1961 -2.5232  0.3690
12548TIP3    H259136   1.431   2.928  51.935 -1.1389  1.4355 -1.1346
12549TIP3   OH259137   2.709   1.999  20.462  0.2598 -0.2905  0.0526
12549TIP3    H159138   2.801   1.989  20.437 -0.0677 -1.7100 -0.6998
12549TIP3    H259139   2.663   2.011  20.379 -0.2957 -0.0739  0.3877
12550TIP3   OH259140   1.429   0.090  51.013  0.0297 -0.0743 -0.2464
12550TIP3    H159141   1.367   0.078  50.941 -0.1385 -2.2152  0.1961
12550TIP3    H259142   1.514   0.099  50.969 -0.4404  2.2535 -0.8214
12551TIP3   OH259143   0.510   2.706  44.587  0.1903  0.6510  0.4003
12551TIP3    H159144   0.434   2.653  44.561  1.1814  0.0457 -1.4400
12551TIP3    H259145   0.505   2.709  44.683 -1.5105 -0.3343  0.3854
12552TIP3   OH259146   0.366   0.848  58.983 -0.3182 -0.1522 -0.1972
12552TIP3    H159147   0.356   0.847  59.078 -0.5591  2.6561 -0.1145
12552TIP3    H259148   0.293   0.901  58.952 -0.0161 -0.6946 -1.9457
12553TIP3   OH259149   3.076   0.873   9.471  0.1195 -0.7340  0.4831
12553TIP3    H159150   3.147   0.852   9.410 -0.5291  1.0408 -0.9628
12553TIP3    H259151   2.997   0.843   9.426 -0.7147  3.2421 -1.1165
12554TIP3   OH259152   0.940   2.399  65.344 -0.4962  0.1605  0.3257
12554TIP3    H159153   0.863   2.358  65.385 -1.0320 -0.3778 -1.1472
12554TIP3    H259154   1.002   2.410  65.416 -1.9388  0.6066  1.5604
12555TIP3   OH259155   2.949   2.694  19.871  0.0761  0.1563  0.0781
12555TIP3    H159156   2.869   2.733  19.903 -1.0739 -0.9528 -1.2997
12555TIP3    H259157   2.971   2.744  19.792  0.4045  0.0664  0.1090
12556TIP3   OH259158   1.983   1.399   1.297  0.6900 -0.0497  0.1718
12556TIP3    H159159   1.956   1.325   1.352  2.0875 -0.4340  0.3797
12556TIP3    H259160   1.919   1.401   1.226  0.7554 -1.6075  0.0399
12557TIP3   OH259161   3.141   2.004  10.112  0.2339 -0.3213  0.2538
12557TIP3    H159162   3.146   1.963  10.026  2.5041  0.0035  0.1712
12557TIP3    H259163   3.190   2.086  10.102 -0.9936  0.5977  1.4085
12558TIP3   OH259164   0.332   1.488  14.039  0.4626 -0.6617  0.3579
12558TIP3    H159165   0.266   1.543  13.998  0.6874 -1.1930 -0.7522
12558TIP3    H259166   0.398   1.549  14.071  1.5769 -0.2945 -2.3777
12559TIP3   OH259167   0.663   3.374  67.326  0.1717  0.3534  0.0389
12559TIP3    H159168   0.580   3.357  67.281  0.4843  0.8781 -0.7681
12559TIP3    H259169   0.687   3.463  67.299  0.2903  0.7532  1.3918
12560TIP3   OH259170   2.148   1.419  43.549 -0.0754 -0.3801 -0.5821
12560TIP3    H159171   2.154   1.386  43.639  1.8449  0.1112 -0.5054
12560TIP3    H259172   2.222   1.380  43.503 -0.0610  0.7017 -1.5238
12561TIP3   OH259173   2.317   0.437  51.343  0.4316  0.2170 -0.3814
12561TIP3    H159174   2.313   0.532  51.337  1.7561  0.4422  1.5116
12561TIP3    H259175   2.398   0.419  51.391  0.1098 -1.8548 -0.5218
12562TIP3   OH259176   1.633   3.328  45.477  0.1757  0.3127 -0.6907
12562TIP3    H159177   1.620   3.407  45.425  0.7533 -0.2578 -1.7437
12562TIP3    H259178   1.556   3.274  45.457 -0.5362  0.8359  0.5158
12563TIP3   OH259179   3.212   0.325  20.472 -0.8137  0.0339  0.0079
12563TIP3    H159180   3.249   0.310  20.559 -0.9588 -0.1671  0.0358
12563TIP3    H259181   3.127   0.281  20.474  0.5243 -2.9066 -1.2742
12564TIP3   OH259182   2.840   2.201  59.716 -0.1624  0.8471  0.5061
12564TIP3    H159183   2.929   2.169  59.730  0.1075  1.1065 -0.5545
12564TIP3    H259184   2.848   2.267  59.648 -1.4726 -0.7210 -1.2925
12565TIP3   OH259185   1.022   1.231  50.457  0.2632  0.2512  0.2392
12565TIP3    H159186   0.999   1.300  50.520 -3.1444 -1.7279  1.4359
12565TIP3    H259187   1.063   1.163  50.510  0.8705  0.1221 -0.3878
12566TIP3   OH259188   1.691   0.029  43.573  0.3403  0.6438  0.1689
12566TIP3    H159189   1.712   0.090  43.503 -0.9975  1.7920  0.7170
12566TIP3    H259190   1.642   0.081  43.636 -2.6133 -1.3804 -0.2551
12567TIP3   OH259191   0.030   2.416  47.607 -0.0603  0.0042 -0.5277
12567TIP3    H159192   0.109   2.417  47.554  0.9715  1.1834  0.9259
12567TIP3    H259193   0.032   2.499  47.655 -2.6423  0.4806 -1.0735
12568TIP3   OH259194   1.451   3.397  57.156 -0.3643  1.3466  0.1404
12568TIP3    H159195   1.516   3.344  57.201  0.3133  1.2371 -0.9200
12568TIP3    H259196   1.381   3.410  57.220  0.2317  0.6052  0.9620
12569TIP3   OH259197   1.640   2.117  11.264  0.3054 -0.0630  1.1533
12569TIP3    H159198   1.632   2.143  11.172 -0.6669 -0.2895  1.1631
12569TIP3    H259199   1.619   2.197  11.313 -1.5015 -0.5180  1.1768
12570TIP3   OH259200   1.691   2.962  15.725 -0.7506 -0.1510  0.1980
12570TIP3    H159201   1.772   2.935  15.768 -0.1630  4.1090  2.3202
12570TIP3    H259202   1.631   2.889  15.739  1.8381 -2.2678  1.0840
12571TIP3   OH259203   2.408   3.320  43.564 -0.1790 -0.6201 -0.0642
12571TIP3    H159204   2.363   3.294  43.644  0.2811 -0.8946  0.1064
12571TIP3    H259205   2.362   3.274  43.494 -0.5872 -0.3717  0.0433
12572TIP3   OH259206   3.313   0.801  15.586 -0.5935 -0.6888 -0.1376
12572TIP3    H159207   3.320   0.759  15.672  0.3055 -0.8636 -0.2829
12572TIP3    H259208   3.354   0.887  15.598 -1.9400 -0.0403  0.0197
12573TIP3   OH259209   1.515   2.467  63.632  0.1350  0.6504 -0.2197
12573TIP3    H159210   1.478   2.431  63.551 -0.6883  0.4558  0.2280
12573TIP3    H259211   1.524   2.391  63.689 -0.3427  0.9394  0.2557
12574TIP3   OH259212   2.043   2.886  56.465  0.1189  0.1485  0.1975
12574TIP3    H159213   2.116   2.825  56.454  0.9793  1.4331 -1.7507
12574TIP3    H259214   1.984   2.866  56.392 -1.0778 -0.2853  1.2542
12575TIP3   OH259215   2.407   0.576  60.777  0.3795  0.3777  0.5176
12575TIP3    H159216   2.496   0.571  60.742  0.8643  2.3484  1.3556
12575TIP3    H259217   2.353   0.602  60.703  0.0462 -2.8857 -0.5479
12576TIP3   OH259218   1.070   3.400  58.501 -0.5146  0.3977 -0.0586
12576TIP3    H159219   1.101   3.417  58.411  0.0840  0.9999  0.2505
12576TIP3    H259220   0.986   3.357  58.489 -1.1589  1.7919 -0.9218
12577TIP3   OH259221   2.400   0.538  57.196 -0.1275 -0.8215 -0.2512
12577TIP3    H159222   2.423   0.619  57.150 -0.9578  0.2185  1.0794
12577TIP3    H259223   2.314   0.555  57.234  0.0568 -2.0127  0.7831
12578TIP3   OH259224   2.074   2.018  67.416 -0.1763  0.1614  0.3755
12578TIP3    H159225   2.055   1.937  67.463 -1.3106 -0.3450 -0.8993
12578TIP3    H259226   1.995   2.035  67.365  0.7915  0.9904 -0.8917
12579TIP3   OH259227   1.721   2.132   1.152  0.1742  0.0563  0.1245
12579TIP3    H159228   1.678   2.061   1.105 -0.1083  0.9050 -0.9476
12579TIP3    H259229   1.679   2.212   1.119 -1.4283  0.6576  3.2215
12580TIP3   OH259230   0.899   3.281  59.577 -0.2494  0.4592 -0.4083
12580TIP3    H159231   0.859   3.195  59.560 -0.0587  0.7385 -2.5973
12580TIP3    H259232   0.839   3.324  59.638  0.2085 -1.5807  1.6097
12581TIP3   OH259233   0.553   1.277  53.734 -0.5960  0.1896  0.1544
12581TIP3    H159234   0.620   1.330  53.693 -0.6149  0.9191  1.0450
12581TIP3    H259235   0.581   1.267  53.825 -1.3133 -0.1253  0.3535
12582TIP3   OH259236   0.513   1.167  11.563  0.5939  0.0215 -0.1493
12582TIP3    H159237   0.479   1.248  11.525  1.7775  0.5615 -0.1140
12582TIP3    H259238   0.513   1.104  11.491  0.8425  0.4257 -0.5103
12583TIP3   OH259239   2.244   3.102  42.896 -0.2641  0.4026 -0.4792
12583TIP3    H159240   2.179   3.076  42.961 -0.5788  0.0777 -0.9197
12583TIP3    H259241   2.270   3.190  42.922 -0.5975  0.3870 -0.0807
12584TIP3   OH259242   2.978   0.606   6.836 -0.2016 -0.0097 -0.0545
12584TIP3    H159243   2.938   0.686   6.801 -0.7299 -0.4493 -0.4656
12584TIP3    H259244   2.904   0.547   6.851  0.1759 -0.3846  0.3551
12585TIP3   OH259245   1.834   3.178  51.984 -0.8687 -0.4232 -0.5050
12585TIP3    H159246   1.761   3.238  51.966  0.1445  1.0495  0.0306
12585TIP3    H259247   1.891   3.187  51.908 -0.8205 -0.8837 -0.5206
12586TIP3   OH259248   2.812   1.514  56.602 -0.2004 -1.1704  0.6296
12586TIP3    H159249   2.868   1.441  56.576  2.4892  0.9821 -0.1188
12586TIP3    H259250   2.764   1.537  56.523 -0.1712 -1.4009  0.5460
12587TIP3   OH259251   0.633   2.304  57.766  0.1595  0.3403 -0.4034
12587TIP3    H159252   0.638   2.329  57.858 -2.6886  0.8914 -0.3048
12587TIP3    H259253   0.632   2.208  57.767 -1.3807  0.3305  0.3271
12588TIP3   OH259254   0.978   2.932  45.152  0.4140  0.3757 -0.4392
12588TIP3    H159255   1.013   2.971  45.072 -1.8930  0.9974 -1.2202
12588TIP3    H259256   0.952   3.007  45.206 -3.8923  0.1555 -1.8751
12589TIP3   OH259257   0.070   1.398  16.823 -0.1774 -0.4345  0.5379
12589TIP3    H159258   0.061   1.403  16.919 -0.3433 -2.2192  0.6496
12589TIP3    H259259   0.135   1.330  16.809 -0.2808 -0.3050 -0.6400
12590TIP3   OH259260   1.028   0.921  60.273  0.6685 -0.3610  0.8590
12590TIP3    H159261   1.103   0.980  60.284  0.6247 -0.1553  0.0908
12590TIP3    H259262   1.032   0.894  60.182 -0.6906  0.3330  0.5800
12591TIP3   OH259263   1.501   1.355  66.655  0.2515  0.0015  0.0425
12591TIP3    H159264   1.593   1.360  66.630 -0.0441 -0.2352 -1.1583
12591TIP3    H259265   1.479   1.262  66.648 -0.4629  0.2392 -1.1832
12592TIP3   OH259266   2.720   0.828  65.006 -0.0758  0.0969  0.3178
12592TIP3    H159267   2.772   0.786  64.938 -0.7370 -0.2774  0.0411
12592TIP3    H259268   2.667   0.893  64.959 -0.9871 -0.5878  0.3860
12593TIP3   OH259269   1.244   2.961  19.944  0.0016  0.4524  0.3843
12593TIP3    H159270   1.161   2.970  19.898 -0.3052  1.4212  1.1141
12593TIP3    H259271   1.271   3.050  19.965 -0.1885  0.0495  2.6286
12594TIP3   OH259272   0.513   1.129  47.902  0.0991  0.2240 -0.5462
12594TIP3    H159273   0.468   1.053  47.867 -1.9910  1.7665 -1.4374
12594TIP3    H259274   0.597   1.130  47.856 -0.1837 -1.0637 -1.1266
12595TIP3   OH259275   2.408   1.547  51.976  0.5087  0.4027  0.1134
12595TIP3    H159276   2.409   1.474  51.914 -2.5707  1.1973 -1.0534
12595TIP3    H259277   2.387   1.507  52.060 -1.6290 -0.1193 -0.5949
12596TIP3   OH259278   1.055   2.651  46.780  0.4854 -0.3631  0.3256
12596TIP3    H159279   1.049   2.703  46.700 -1.8110  1.1950  1.3999
12596TIP3    H259280   1.049   2.560  46.750 -1.7022  0.2112 -1.2577
12597TIP3   OH259281   0.457   2.688  20.474 -0.8337  0.2929 -0.2719
12597TIP3    H159282   0.438   2.617  20.536 -1.5410 -0.4892 -1.3618
12597TIP3    H259283   0.531   2.735  20.514 -0.5048 -0.9089  0.5829
12598TIP3   OH259284   3.187   2.884  60.599  0.1464 -0.1733 -0.0540
12598TIP3    H159285   3.244   2.951  60.560  2.0098 -2.5140 -1.5750
12598TIP3    H259286   3.216   2.878  60.689  0.8711  0.1240 -0.2611
12599TIP3   OH259287   1.267   2.262   6.042  0.5354  0.3494  0.3178
12599TIP3    H159288   1.226   2.345   6.017 -0.1108 -0.7024 -2.5673
12599TIP3    H259289   1.360   2.283   6.050  0.2655  1.5257  0.4662
12600TIP3   OH259290   2.964   2.160  29.607  0.0828  0.2699 -0.3699
12600TIP3    H159291   3.042   2.107  29.590  0.6027 -0.0353  2.3831
12600TIP3    H259292   2.976   2.239  29.554  0.9846 -0.8581 -1.9097
12601TIP3   OH259293   1.803   3.130  61.247  0.0546  0.5638  0.0479
12601TIP3    H159294   1.890   3.156  61.218  0.3759 -1.0739 -0.5637
12601TIP3    H259295   1.766   3.209  61.287  0.9958  1.8827 -1.5691
12602TIP3   OH259296   2.339   2.359  64.323  0.3598  0.1882 -0.2666
12602TIP3    H159297   2.429   2.373  64.353  0.1111 -0.1705  0.6594
12602TIP3    H259298   2.287   2.421  64.374  0.0062 -0.0064 -0.3910
12603TIP3   OH259299   1.481   3.101  16.885 -0.3265  0.4063 -0.1836
12603TIP3    H159300   1.528   3.097  16.969  0.4364  0.9365 -0.5712
12603TIP3    H259301   1.437   3.186  16.887 -0.2330  0.4590 -0.3523
12604TIP3   OH259302   0.301   1.307  48.094  0.2950 -0.9686  0.2074
12604TIP3    H159303   0.219   1.354  48.110 -0.1120 -1.6181  0.1169
12604TIP3    H259304   0.322   1.325  48.002  0.1489 -0.9490  0.1784
12605TIP3   OH259305   3.172   1.154  67.061  0.0839  0.1237 -0.5534
12605TIP3    H159306   3.173   1.134  67.154  0.0967 -0.0184 -0.5865
12605TIP3    H259307   3.177   1.069  67.017 -2.9372 -0.0824 -0.7046
12606TIP3   OH259308   1.684   2.971   3.787 -0.3981 -0.4015  0.3485
12606TIP3    H159309   1.637   2.915   3.725 -0.4418  0.7749 -0.7195
12606TIP3    H259310   1.683   3.057   3.746 -0.7637  0.5001  2.1759
12607TIP3   OH259311   0.248   1.304  56.042 -0.0926  0.3673 -0.0435
12607TIP3    H159312   0.325   1.304  56.100  0.3454  2.2047 -0.5782
12607TIP3    H259313   0.284   1.298  55.954 -0.8016 -4.4122 -0.2786
12608TIP3   OH259314   2.015   0.262  60.470 -0.3134  0.8118  0.0498
12608TIP3    H159315   1.925   0.291  60.486 -0.9102 -0.3597 -0.9701
12608TIP3    H259316   2.062   0.342  60.446 -1.3585  1.2760 -0.5044
12609TIP3   OH259317   0.721   2.404  49.388 -0.3653  0.2079  0.1139
12609TIP3    H159318   0.675   2.321  49.377  2.2655 -1.4507  0.7709
12609TIP3    H259319   0.720   2.443  49.300 -2.4959  0.0091  0.0052
12610TIP3   OH259320   0.139   2.272  16.457  0.0326 -0.3422 -0.2481
12610TIP3    H159321   0.078   2.286  16.529  0.2712  0.7481 -0.2326
12610TIP3    H259322   0.205   2.212  16.492  0.0491  0.0415  0.3876
12611TIP3   OH259323   2.567   3.082  11.683 -0.2796  0.2502 -0.0052
12611TIP3    H159324   2.661   3.066  11.676 -0.4310 -0.3147 -0.8915
12611TIP3    H259325   2.548   3.072  11.776  0.6590  1.1166  0.2979
12612TIP3   OH259326   0.165   1.749   3.674  0.1988  0.1381  0.1000
12612TIP3    H159327   0.129   1.831   3.707 -0.1825 -0.8137  2.2211
12612TIP3    H259328   0.252   1.773   3.641 -1.3064  2.0352 -2.9363
12613TIP3   OH259329   1.623   0.541  38.876 -0.1862  0.6358  0.3442
12613TIP3    H159330   1.618   0.622  38.824 -0.1665  0.5740  0.2467
12613TIP3    H259331   1.533   0.509  38.879  0.2995 -1.5335 -3.0921
12614TIP3   OH259332   1.415   3.422  66.655  0.1845 -0.2457  0.6840
12614TIP3    H159333   1.404   3.515  66.636 -0.4021 -0.3623  0.4243
12614TIP3    H259334   1.386   3.377  66.576  2.2640 -0.6231  0.0835
12615TIP3   OH259335   0.254   1.166   6.679 -0.1195 -0.5821 -0.3236
12615TIP3    H159336   0.293   1.253   6.670 -1.3310  0.1157  0.8826
12615TIP3    H259337   0.327   1.105   6.664  0.7372  0.6333 -1.1835
12616TIP3   OH259338   1.052   2.129  61.118 -0.2208 -0.0120  0.1662
12616TIP3    H159339   1.063   2.097  61.208  0.7813  0.7238  0.3208
12616TIP3    H259340   1.116   2.200  61.110  0.8462 -1.0946 -1.6350
12617TIP3   OH259341   0.251   2.508  53.428 -0.5458 -0.5375 -0.0864
12617TIP3    H159342   0.222   2.436  53.485  0.8715 -1.4659 -0.4949
12617TIP3    H259343   0.237   2.587  53.481 -1.7773 -1.1279  0.5163
12618TIP3   OH259344   1.053   2.446  56.635 -0.1321  0.0097  0.1349
12618TIP3    H159345   1.090   2.387  56.569  0.6393 -0.6125  1.0799
12618TIP3    H259346   1.126   2.503  56.659 -0.1860 -0.2418  0.9434
12619TIP3   OH259347   2.795   0.981   3.297  0.0058  0.3186  0.4433
12619TIP3    H159348   2.725   0.982   3.231 -2.4757 -1.6061  2.8007
12619TIP3    H259349   2.868   0.936   3.254 -0.2492  1.9827 -1.9592
12620TIP3   OH259350   2.200   1.715  59.165  0.2500 -0.1167  0.1024
12620TIP3    H159351   2.288   1.722  59.129  0.2751  2.7459  0.5038
12620TIP3    H259352   2.213   1.687  59.255  0.6495 -0.8646 -0.1825
12621TIP3   OH259353   1.450   1.386  59.059 -0.2110  0.6055 -0.3221
12621TIP3    H159354   1.375   1.334  59.087  0.2946 -0.2353 -0.4764
12621TIP3    H259355   1.475   1.348  58.974  1.1356  0.0581  0.2959
12622TIP3   OH259356   3.337   2.106  19.429  0.6705 -0.0838 -0.2518
12622TIP3    H159357   3.294   2.033  19.386 -0.3773  0.0856  0.4733
12622TIP3    H259358   3.417   2.068  19.466  0.3229 -0.7785 -0.2003
12623TIP3   OH259359   0.480   1.138   9.001 -0.2724 -0.2746 -0.3072
12623TIP3    H159360   0.501   1.158   8.910  0.4801  0.8167  0.0812
12623TIP3    H259361   0.564   1.137   9.045 -0.6893 -0.0634  0.5114
12624TIP3   OH259362   0.800   0.329  21.480  0.5532 -0.4909 -0.2449
12624TIP3    H159363   0.710   0.297  21.469 -0.4423  1.9731 -0.0790
12624TIP3    H259364   0.839   0.269  21.543 -1.2551 -1.1817  0.2908
12625TIP3   OH259365   0.376   2.559  47.514  0.1795  0.1699 -0.4325
12625TIP3    H159366   0.460   2.549  47.470  1.5725 -0.5370  2.1626
12625TIP3    H259367   0.377   2.648  47.549 -0.0302  0.0776 -0.1863
12626TIP3   OH259368   3.439   0.602   2.685 -0.2900  1.1852  0.7942
12626TIP3    H159369   3.401   0.584   2.599  0.2780  0.3837  0.7038
12626TIP3    H259370   3.468   0.693   2.680 -2.0731  1.8087  0.8276
12627TIP3   OH259371   1.400   0.191  55.840 -0.4108 -0.6649  0.1991
12627TIP3    H159372   1.393   0.097  55.822 -0.3261 -0.9847  1.7079
12627TIP3    H259373   1.379   0.200  55.932  0.3945  0.7002  0.2893
12628TIP3   OH259374   3.113   0.350  19.644  0.4426  0.3958  0.0730
12628TIP3    H159375   3.147   0.430  19.604 -0.9906  0.3013 -1.4390
12628TIP3    H259376   3.036   0.379  19.693  0.5916  0.0849  0.5061
12629TIP3   OH259377   1.066   1.508  44.884  0.5174 -0.6438 -0.7832
12629TIP3    H159378   1.119   1.539  44.958 -0.6792  1.6171 -0.7744
12629TIP3    H259379   1.060   1.414  44.896 -0.3292 -0.2796  2.5057
12630TIP3   OH259380   1.737   1.517  12.056 -0.0043 -0.0169 -0.8786
12630TIP3    H159381   1.682   1.439  12.058 -0.4158  0.2136 -2.3030
12630TIP3    H259382   1.813   1.492  12.003  0.0993  0.4003 -0.9298
12631TIP3   OH259383   1.030   1.339  37.334  0.3089  0.4158  0.0517
12631TIP3    H159384   0.982   1.318  37.414 -1.3305  1.5130 -0.5825
12631TIP3    H259385   0.966   1.327  37.264  1.4888  0.2214 -1.0207
12632TIP3   OH259386   0.673   2.538  19.428  0.5690  0.3165  0.1597
12632TIP3    H159387   0.682   2.631  19.448  0.1772  0.6085 -0.9689
12632TIP3    H259388   0.709   2.528  19.340 -1.5890 -0.1244 -0.7401
12633TIP3   OH259389   2.972   2.831  15.834  0.4343  0.1216  0.2313
12633TIP3    H159390   3.053   2.790  15.803  1.0174  1.4898 -0.1370
12633TIP3    H259391   2.997   2.873  15.916 -0.4989 -1.3888  1.3393
12634TIP3   OH259392   1.128   1.167   3.105 -0.3835 -0.1319  0.0976
12634TIP3    H159393   1.112   1.150   3.012 -1.2187 -0.7798  0.3475
12634TIP3    H259394   1.043   1.195   3.139  0.3787  2.1886  0.2447
12635TIP3   OH259395   2.762   3.106  52.192  0.6450  0.1983  0.1537
12635TIP3    H159396   2.766   3.171  52.122  2.3542 -0.0179  0.0084
12635TIP3    H259397   2.716   3.031  52.153  2.7799 -0.4624 -1.2475
12636TIP3   OH259398   1.901   1.949   1.300 -0.0747  0.4515 -0.3060
12636TIP3    H159399   1.844   1.877   1.273 -0.5922  1.3126 -1.6172
12636TIP3    H259400   1.869   1.974   1.386  0.2375 -0.9948  0.2620
12637TIP3   OH259401   1.288   1.711  53.618 -0.1944 -0.1876  0.3579
12637TIP3    H159402   1.203   1.752  53.609 -0.0447  0.0499  0.0376
12637TIP3    H259403   1.290   1.643  53.551  0.2691  0.4924 -0.3390
12638TIP3   OH259404   3.112   1.319  20.274 -0.5494  0.3423  0.0069
12638TIP3    H159405   3.138   1.360  20.356 -1.0566 -0.1054  0.3994
12638TIP3    H259406   3.066   1.388  20.226 -1.6242  0.1851  0.7719
12639TIP3   OH259407   1.948   0.713  13.991  0.3907 -0.4849  0.5665
12639TIP3    H159408   1.971   0.797  14.030 -2.1780  1.8109 -2.3528
12639TIP3    H259409   2.015   0.698  13.924  0.7708 -0.7318  0.9954
12640TIP3   OH259410   0.249   0.874  20.717 -0.3437  0.0295  0.0159
12640TIP3    H159411   0.203   0.946  20.760  0.3713  0.2337  0.4519
12640TIP3    H259412   0.342   0.890  20.736 -0.2459 -1.6588  1.1677
12641TIP3   OH259413   3.194   1.226  43.761  0.1742  0.5713 -0.1831
12641TIP3    H159414   3.184   1.183  43.846 -1.2812 -0.7057 -0.9309
12641TIP3    H259415   3.288   1.228  43.745  0.4386  0.3853  1.2287
12642TIP3   OH259416   0.061   1.494  45.987  0.3447 -0.5028  0.1653
12642TIP3    H159417   0.025   1.582  45.973  1.5589  0.3004  1.6261
12642TIP3    H259418  -0.008   1.434  45.960 -0.2421  0.8901 -1.5717
12643TIP3   OH259419   1.213   2.535  62.770  0.1801  0.1042 -0.0502
12643TIP3    H159420   1.200   2.456  62.822  1.0771  0.0856  0.1462
12643TIP3    H259421   1.232   2.503  62.682  1.7164  0.0588  0.2809
12644TIP3   OH259422   2.856   1.920   4.388  0.0348  0.1001  0.3383
12644TIP3    H159423   2.786   1.945   4.327 -0.1157 -0.9202  0.0636
12644TIP3    H259424   2.849   1.824   4.393  0.4344  0.1221  1.4938
12645TIP3   OH259425   2.780   0.815  64.326  0.0942 -0.5980 -0.6916
12645TIP3    H159426   2.706   0.777  64.279 -0.8107 -0.9169  0.9157
12645TIP3    H259427   2.754   0.906  64.341  0.0299 -0.7069 -0.1376
12646TIP3   OH259428   0.939   1.979  51.089 -0.2171  0.4652  0.3409
12646TIP3    H159429   0.858   1.954  51.132  0.2470 -0.7378  0.5639
12646TIP3    H259430   0.912   2.008  51.001 -0.8575 -0.3157  0.2655
12647TIP3   OH259431   1.599   2.571  11.553  0.9769  0.1452  0.5258
12647TIP3    H159432   1.511   2.571  11.516  0.8667 -0.7680  0.7753
12647TIP3    H259433   1.587   2.543  11.644  1.7763 -2.2964 -0.0588
12648TIP3   OH259434   1.004   0.547  65.557  0.2022 -0.4397  0.0283
12648TIP3    H159435   1.016   0.456  65.584  0.1347 -0.4374  0.0634
12648TIP3    H259436   1.063   0.558  65.482 -1.5727 -1.2179 -1.5537
12649TIP3   OH259437   0.125   0.961  42.987 -0.4445  0.5873  0.3303
12649TIP3    H159438   0.116   0.934  43.078 -1.8023 -0.6732 -0.1536
12649TIP3    H259439   0.097   1.053  42.986 -1.0467  0.4140  1.0619
12650TIP3   OH259440   1.816   1.037  18.983 -0.1176  0.0108  0.0487
12650TIP3    H159441   1.850   0.975  18.919  0.8423 -0.0776  0.6280
12650TIP3    H259442   1.844   1.003  19.068 -3.7837 -1.4554  0.8605
12651TIP3   OH259443   0.854   2.080  50.225  0.4084  0.6072 -0.0819
12651TIP3    H159444   0.767   2.090  50.186 -0.4227  0.7286  1.6611
12651TIP3    H259445   0.897   2.164  50.211 -1.0774  1.8106  1.9297
12652TIP3   OH259446   3.059   0.782  47.966 -0.6009  0.1943  0.1242
12652TIP3    H159447   3.029   0.873  47.968 -0.4687  0.5059 -3.6537
12652TIP3    H259448   3.145   0.786  47.925 -0.9672 -1.6484 -0.9422
12653TIP3   OH259449   1.401   2.036  13.196  0.0925  0.2173 -0.5550
12653TIP3    H159450   1.486   2.022  13.154  0.3846  0.6931 -0.1387
12653TIP3    H259451   1.367   1.948  13.211  0.2827  0.0359 -1.1887
12654TIP3   OH259452   0.808   2.269  52.112 -0.0638 -0.2473  0.4166
12654TIP3    H159453   0.811   2.363  52.128  0.2804 -0.3551  1.0100
12654TIP3    H259454   0.737   2.237  52.168 -1.3142 -0.1208 -1.0194
12655TIP3   OH259455   1.410   0.690  49.075  0.5312  0.2388 -0.5081
12655TIP3    H159456   1.393   0.739  48.994  1.9705  1.3350 -0.1891
12655TIP3    H259457   1.499   0.658  49.064  0.5877  0.0466  0.4779
12656TIP3   OH259458   2.553   2.999  29.888  0.0515  0.3938  0.2727
12656TIP3    H159459   2.487   2.977  29.953 -0.1080  1.7003  0.5949
12656TIP3    H259460   2.532   3.089  29.862  1.2519  0.5712 -0.1664
12657TIP3   OH259461   3.173   1.449  13.732  0.0819  0.4708  0.0768
12657TIP3    H159462   3.097   1.398  13.760  0.2581  0.8929  1.3599
12657TIP3    H259463   3.151   1.477  13.643 -1.2883  0.6017  0.4383
12658TIP3   OH259464   2.795   2.495  14.722 -0.2741  0.1920 -0.3176
12658TIP3    H159465   2.799   2.400  14.715 -0.5217  0.1743 -0.2140
12658TIP3    H259466   2.870   2.518  14.777 -1.7083 -0.1822  1.9285
12659TIP3   OH259467   1.215   1.693  62.321  0.2974 -0.3162 -0.3737
12659TIP3    H159468   1.310   1.682  62.312  0.6323  1.6697  0.3462
12659TIP3    H259469   1.192   1.755  62.251 -0.7922 -2.0380 -1.6251
12660TIP3   OH259470   1.576   2.050  16.117 -0.7000  0.1537 -0.0852
12660TIP3    H159471   1.595   2.045  16.023 -4.5465  0.9182 -1.1235
12660TIP3    H259472   1.526   1.970  16.136  1.5123 -0.8774  1.8561
12661TIP3   OH259473   0.428   2.424  55.295 -0.1027  0.1736 -0.6945
12661TIP3    H159474   0.370   2.359  55.335 -0.0649  0.0194 -0.8854
12661TIP3    H259475   0.373   2.472  55.234 -0.7431  1.9833  1.2003
12662TIP3   OH259476   3.102   3.068  61.321  0.1015  0.1395  0.0792
12662TIP3    H159477   3.105   3.164  61.325 -0.0443  0.2802 -1.9203
12662TIP3    H259478   3.009   3.047  61.314  0.0873 -0.2157  1.1410
12663TIP3   OH259479   1.848   2.381  44.555  0.6048 -0.7972  0.4110
12663TIP3    H159480   1.766   2.338  44.579  0.6858 -1.4085 -0.3559
12663TIP3    H259481   1.834   2.473  44.573  0.1298 -1.0359  1.3029
12664TIP3   OH259482   0.020   2.946  50.111  0.0031  0.4732 -0.7546
12664TIP3    H159483   0.051   3.003  50.041  2.0698  0.7383  0.3015
12664TIP3    H259484   0.056   2.860  50.091 -0.8125  0.1541 -0.8915
12665TIP3   OH259485   2.993   2.146   0.106  0.7501 -0.3313  0.0690
12665TIP3    H159486   2.968   2.238   0.107  0.6339 -0.3593 -0.1760
12665TIP3    H259487   2.973   2.115   0.194  0.8250 -0.1120  0.1619
12666TIP3   OH259488   1.658   0.965  21.780  0.1075  0.4606  0.3114
12666TIP3    H159489   1.650   0.873  21.757  2.8860 -0.5166  2.6177
12666TIP3    H259490   1.732   0.997  21.728 -0.3834  1.2120  0.0523
12667TIP3   OH259491   1.004   2.315  48.261 -0.2728  0.7747 -0.2848
12667TIP3    H159492   1.037   2.228  48.240 -0.8596  0.3896  0.3549
12667TIP3    H259493   1.075   2.374  48.237  0.9088 -0.0258  1.0771
12668TIP3   OH259494   1.436   1.628  43.884  0.3331 -0.4926 -0.3149
12668TIP3    H159495   1.468   1.718  43.879 -3.4543  0.9983 -4.1807
12668TIP3    H259496   1.450   1.602  43.975  1.6326  3.9659  0.9926
12669TIP3   OH259497   0.311   1.952  43.706  0.0660  0.4030 -0.2073
12669TIP3    H159498   0.297   1.960  43.800 -0.2740 -0.4540 -0.1793
12669TIP3    H259499   0.281   2.036  43.670  0.0919  0.6917  0.4251
12670TIP3   OH259500   0.433   0.769   9.616  0.2426  0.1239 -0.5384
12670TIP3    H159501   0.457   0.854   9.578 -1.4897  0.5514 -0.7553
12670TIP3    H259502   0.375   0.729   9.551  0.1416 -0.7419  0.0594
12671TIP3   OH259503   2.140   1.773   2.119  0.2498 -0.2887 -0.3799
12671TIP3    H159504   2.131   1.788   2.213  0.3796 -0.9044 -0.2597
12671TIP3    H259505   2.131   1.678   2.110  0.8149 -0.2948 -0.9188
12672TIP3   OH259506   2.742   1.105   3.587 -0.6340  0.2220  0.3090
12672TIP3    H159507   2.789   1.107   3.504 -0.5847 -0.5069  0.3124
12672TIP3    H259508   2.805   1.137   3.652 -0.2728 -0.3303  0.2424
12673TIP3   OH259509   0.139   2.522  64.494 -0.1142 -0.0278 -0.4041
12673TIP3    H159510   0.081   2.598  64.484 -1.1419 -0.9002 -1.4369
12673TIP3    H259511   0.085   2.448  64.468  1.0492 -1.0534  0.0189
12674TIP3   OH259512   2.078   2.838  12.938  0.1071  0.5806 -0.8215
12674TIP3    H159513   1.991   2.879  12.938  0.4626  1.3461 -0.3987
12674TIP3    H259514   2.139   2.911  12.939  0.7512  0.0662  1.0835
12675TIP3   OH259515   2.822   0.384  58.042 -0.1266 -0.3983 -0.6263
12675TIP3    H159516   2.913   0.363  58.021  0.3407  0.8342  0.0952
12675TIP3    H259517   2.821   0.479  58.054 -1.8948 -0.0930 -2.5173
12676TIP3   OH259518   1.023   1.959  64.871  0.5391  0.0984  0.1863
12676TIP3    H159519   0.968   1.884  64.894 -0.7283  0.8386 -0.3432
12676TIP3    H259520   1.031   1.954  64.775  2.4198 -0.6699  0.3302
12677TIP3   OH259521   2.129   0.463   0.134 -0.7175  0.2729  0.3439
12677TIP3    H159522   2.056   0.516   0.167 -1.6307 -0.6790 -0.1014
12677TIP3    H259523   2.128   0.385   0.190 -1.2913 -0.6374 -0.8982
12678TIP3   OH259524   0.752   0.337  48.306 -0.2916  0.5167  0.2344
12678TIP3    H159525   0.664   0.344  48.267 -0.2843 -1.1560 -0.1340
12678TIP3    H259526   0.741   0.371  48.394 -0.9647  1.6997 -0.2757
12679TIP3   OH259527   2.530   1.225  57.118  0.1548 -0.2257  0.3159
12679TIP3    H159528   2.455   1.214  57.177 -0.5858 -2.1307 -0.8865
12679TIP3    H259529   2.565   1.137  57.107  1.2865  0.3358 -0.7992
12680TIP3   OH259530   0.173   0.598   9.905 -0.1347 -0.5530 -0.3711
12680TIP3    H159531   0.202   0.555   9.825 -0.8750  0.7843 -1.3983
12680TIP3    H259532   0.096   0.648   9.879 -0.2529  0.1058  1.1259
12681TIP3   OH259533   0.036   1.417  56.444  0.0711 -0.6005  0.8742
12681TIP3    H159534   0.012   1.361  56.370  2.4464  0.5050 -0.8796
12681TIP3    H259535  -0.033   1.483  56.448 -0.7220 -1.3921  0.4545
12682TIP3   OH259536   2.944   2.132  53.256  1.0071  0.4817 -0.5144
12682TIP3    H159537   2.986   2.118  53.341 -2.0600  0.2402  1.0989
12682TIP3    H259538   2.940   2.227  53.247 -2.4140  0.7289  1.8324
12683TIP3   OH259539   2.571   1.269  15.302 -0.0672 -0.1172  0.1056
12683TIP3    H159540   2.585   1.344  15.360 -1.6825  0.3049 -0.0094
12683TIP3    H259541   2.625   1.288  15.226 -1.3208  1.5638 -0.4405
12684TIP3   OH259542   3.001   1.679  58.516  0.2822  0.0488 -0.8301
12684TIP3    H159543   2.907   1.691  58.535  0.7017 -0.1900  1.9068
12684TIP3    H259544   3.044   1.702  58.599  2.6503  0.0606 -2.0077
12685TIP3   OH259545   2.884   1.338  61.635 -0.7904 -0.1590 -0.2898
12685TIP3    H159546   2.812   1.303  61.584  0.9924 -2.2047 -1.5866
12685TIP3    H259547   2.943   1.264  61.649  1.4733  1.5472 -0.0269
12686TIP3   OH259548   0.445   0.270  56.443  0.1466 -0.0934 -0.4632
12686TIP3    H159549   0.390   0.235  56.374  0.4631 -1.8365  0.1264
12686TIP3    H259550   0.516   0.316  56.398  0.8264 -1.9374 -1.3464
12687TIP3   OH259551   1.449   1.086   1.700  0.2707 -0.4052 -0.1628
12687TIP3    H159552   1.520   1.023   1.699 -1.4287 -2.4445  0.0773
12687TIP3    H259553   1.412   1.082   1.612  0.5597  0.8130 -0.3641
12688TIP3   OH259554   1.905   3.163  62.205 -0.3760  0.4441  0.6079
12688TIP3    H159555   1.907   3.236  62.268 -0.0197  1.1448 -0.2016
12688TIP3    H259556   1.994   3.127  62.208 -0.2185  0.7871  0.1581
12689TIP3   OH259557   3.254   3.345  52.044 -0.1212 -0.5221 -0.7266
12689TIP3    H159558   3.298   3.428  52.064 -0.0494 -0.2364 -1.9521
12689TIP3    H259559   3.196   3.330  52.118 -0.4854  0.8898 -0.6970
12690TIP3   OH259560   1.650   1.738   0.181  0.2804  0.1463  0.1021
12690TIP3    H159561   1.681   1.662   0.132  0.2761  0.7541 -0.8679
12690TIP3    H259562   1.560   1.715   0.204  0.6887 -0.6748  0.9596
12691TIP3   OH259563   1.709   2.263  54.512 -0.1218 -0.6921 -0.0067
12691TIP3    H159564   1.693   2.296  54.423  0.5510 -0.9879 -0.2503
12691TIP3    H259565   1.764   2.330  54.553  0.2985 -0.9620 -0.1177
12692TIP3   OH259566   1.539   0.980  19.593 -0.3556 -1.0138  0.1256
12692TIP3    H159567   1.576   1.059  19.554  0.4614 -0.5985  1.6629
12692TIP3    H259568   1.462   1.011  19.643  0.2103 -1.0930  1.0785
12693TIP3   OH259569   1.781   0.591  55.899  0.3053 -0.0846 -0.4383
12693TIP3    H159570   1.828   0.572  55.980  1.7602  0.3429 -1.1442
12693TIP3    H259571   1.723   0.664  55.922 -1.9276 -2.1805  1.0824
12694TIP3   OH259572   2.734   1.518  12.601  0.0188  0.3319  0.4391
12694TIP3    H159573   2.758   1.587  12.540  1.6792 -0.5959 -0.0104
12694TIP3    H259574   2.641   1.533  12.619 -0.6456  0.4766 -2.5422
12695TIP3   OH259575   3.172   2.255  20.468  0.2258  0.4779 -0.0369
12695TIP3    H159576   3.267   2.255  20.453  0.1246 -0.2985 -0.7841
12695TIP3    H259577   3.161   2.302  20.550  1.3287 -0.0769  0.4628
12696TIP3   OH259578   1.447   2.016  14.560 -0.2588 -0.8055  0.1993
12696TIP3    H159579   1.419   1.970  14.481 -1.0658 -1.0863  0.6396
12696TIP3    H259580   1.414   2.105  14.550  0.0484 -0.7087  0.0135
12697TIP3   OH259581   2.596   2.337  64.436 -1.0251 -0.1958  0.3131
12697TIP3    H159582   2.632   2.364  64.351 -1.8333  2.3232  0.6746
12697TIP3    H259583   2.654   2.268  64.466 -0.4602 -0.8649 -2.0861
12698TIP3   OH259584   1.919   0.954  44.638 -0.2015  0.0792  0.2835
12698TIP3    H159585   1.941   0.864  44.617 -0.4904  0.3518 -1.2503
12698TIP3    H259586   1.904   0.953  44.733 -1.3271 -1.7100  0.1194
12699TIP3   OH259587   3.197   2.188  60.210  0.3092  0.3030  0.4774
12699TIP3    H159588   3.195   2.280  60.183  0.0932 -0.1466 -1.1945
12699TIP3    H259589   3.111   2.154  60.187 -0.0025 -0.0710  2.1062
12700TIP3   OH259590   2.027   1.077  55.044  0.1199 -0.1238  0.5243
12700TIP3    H159591   2.109   1.048  55.083  0.2363  0.1117  0.4525
12700TIP3    H259592   1.962   1.012  55.073  0.4178 -0.5706  0.1872
12701TIP3   OH259593   2.129   0.683  63.506 -0.0555 -0.7491 -0.3628
12701TIP3    H159594   2.157   0.615  63.568 -1.1387 -2.3688 -1.5634
12701TIP3    H259595   2.188   0.671  63.431 -0.0015 -0.0953 -0.4217
12702TIP3   OH259596   2.019   0.871  66.558  0.5454  0.5750  0.0247
12702TIP3    H159597   2.057   0.934  66.497  1.5957 -0.6101 -0.5871
12702TIP3    H259598   1.925   0.879  66.545  0.6549  1.9930 -0.0500
12703TIP3   OH259599   3.028   0.967  53.538 -0.0667  0.2925 -0.4464
12703TIP3    H159600   2.993   1.051  53.510  0.0476  0.7794  0.8030
12703TIP3    H259601   3.002   0.959  53.630  0.5403 -0.7037 -0.3401
12704TIP3   OH259602   2.748   0.424  58.576 -0.4638 -0.0498 -0.0678
12704TIP3    H159603   2.750   0.520  58.572 -0.1534  0.0974  2.3220
12704TIP3    H259604   2.656   0.402  58.560 -0.5249  0.6396 -0.7130
12705TIP3   OH259605   2.425   1.089  17.618 -0.1928 -0.1127  0.4519
12705TIP3    H159606   2.419   1.176  17.657 -3.0882 -0.9160  2.0706
12705TIP3    H259607   2.393   1.101  17.528  1.2882  0.7743  0.0072
12706TIP3   OH259608   1.811   2.884  14.890  0.0821  0.1843  0.1154
12706TIP3    H159609   1.885   2.850  14.941  0.7153  2.5017  0.8665
12706TIP3    H259610   1.827   2.853  14.801  0.3316 -1.8101  0.8108
12707TIP3   OH259611   3.187   0.036   0.388  0.6549  0.1326 -0.2507
12707TIP3    H159612   3.203   0.122   0.349 -1.3463 -0.1086 -1.7437
12707TIP3    H259613   3.116   0.050   0.450  2.0836 -0.0031  1.5239
12708TIP3   OH259614   1.623   1.070  47.673 -0.5524 -0.5495  0.5449
12708TIP3    H159615   1.623   1.151  47.723 -0.0146  0.6006 -1.2187
12708TIP3    H259616   1.551   1.081  47.610  0.1205 -1.0250 -0.3313
12709TIP3   OH259617   1.117   3.130  62.544  0.1049 -0.2836  0.5682
12709TIP3    H159618   1.159   3.141  62.459  2.9042 -0.5954  1.8173
12709TIP3    H259619   1.126   3.036  62.563  0.3777 -0.0535  1.6211
12710TIP3   OH259620   0.469   3.392  67.136 -0.0129 -0.4072  0.1166
12710TIP3    H159621   0.396   3.453  67.126 -0.4403  0.0578  4.2857
12710TIP3    H259622   0.428   3.305  67.139  0.0532 -0.4897 -0.9508
12711TIP3   OH259623   0.637   0.756  55.309 -0.3000 -0.0292 -0.0850
12711TIP3    H159624   0.696   0.753  55.234 -0.9592  1.3520 -0.6869
12711TIP3    H259625   0.551   0.732  55.273 -0.0455 -2.8548  0.9316
12712TIP3   OH259626   1.020   2.005   9.642  0.2418 -0.4460 -0.6852
12712TIP3    H159627   1.105   1.981   9.608  0.7019  0.5980 -0.3286
12712TIP3    H259628   1.038   2.077   9.704 -0.7509 -1.0496  0.3523
12713TIP3   OH259629   0.099   2.255  55.602 -0.0461 -0.3783  0.4214
12713TIP3    H159630   0.151   2.251  55.522 -2.9674  0.2129 -1.6762
12713TIP3    H259631   0.070   2.346  55.608 -1.5451 -0.8423  0.9520
12714TIP3   OH259632   1.605   1.912  44.890  0.1079 -0.0639  0.1069
12714TIP3    H159633   1.642   1.996  44.864 -1.2953  0.4246 -0.4386
12714TIP3    H259634   1.514   1.932  44.912 -1.3381 -1.9378 -3.3717
12715TIP3   OH259635   2.902   1.210  48.732  0.5196 -0.2753  0.4065
12715TIP3    H159636   2.956   1.276  48.775 -0.0051  2.0826 -2.2300
12715TIP3    H259637   2.964   1.148  48.695  1.0506 -1.0791  2.5293
12716TIP3   OH259638   0.407   0.934  52.673 -0.5208 -0.2003  0.4136
12716TIP3    H159639   0.318   0.959  52.649  0.1156  0.6767 -1.1496
12716TIP3    H259640   0.424   0.853  52.624  0.5145  1.1850 -1.6438
12717TIP3   OH259641   3.446   1.299   3.604  0.0542  0.1041 -0.5126
12717TIP3    H159642   3.471   1.223   3.657  1.7195 -0.3323 -1.8201
12717TIP3    H259643   3.471   1.275   3.515  2.6506  2.9288 -0.7084
12718TIP3   OH259644   2.847   2.591  59.814  0.2555  0.3040  0.5002
12718TIP3    H159645   2.796   2.669  59.791  0.9556  0.9615  1.0918
12718TIP3    H259646   2.847   2.537  59.735 -1.8818 -0.0311  0.6884
12719TIP3   OH259647   2.812   2.716   5.016  0.8078  0.2711  0.1108
12719TIP3    H159648   2.789   2.628   5.043  2.0473 -0.0214  0.2727
12719TIP3    H259649   2.777   2.773   5.084  1.7520 -0.2672  1.0661
12720TIP3   OH259650   0.892   0.104  62.095 -0.2785 -0.4071 -0.0116
12720TIP3    H159651   0.962   0.114  62.030 -0.1073  0.2682  0.2680
12720TIP3    H259652   0.858   0.016  62.079 -0.4155 -0.1659 -1.1833
12721TIP3   OH259653   2.464   1.574  64.192 -0.4040 -0.3871  0.5672
12721TIP3    H159654   2.429   1.485  64.200 -1.6967 -0.3178 -2.5848
12721TIP3    H259655   2.538   1.565  64.131 -0.0583  0.6021  0.8214
12722TIP3   OH259656   1.984   0.169  53.678 -0.2603  0.2323  0.4601
12722TIP3    H159657   2.077   0.183  53.662 -0.0380  0.1529  1.6020
12722TIP3    H259658   1.977   0.076  53.700 -0.5676  0.3071  0.6843
12723TIP3   OH259659   3.086   0.236   8.700  0.1911 -0.0098  0.1306
12723TIP3    H159660   3.077   0.234   8.605  0.2902 -0.0763  0.1231
12723TIP3    H259661   3.027   0.167   8.731 -0.6861  0.7352  0.1826
12724TIP3   OH259662   2.845   0.436  16.856 -0.9186 -0.0600 -0.6696
12724TIP3    H159663   2.915   0.477  16.804  0.6378 -0.0030  1.3369
12724TIP3    H259664   2.839   0.490  16.935 -1.7400 -1.2985  0.1567
12725TIP3   OH259665   2.673   1.594  57.148  0.1809  0.1851 -0.0025
12725TIP3    H159666   2.722   1.668  57.183  2.3343 -1.5631  0.9036
12725TIP3    H259667   2.718   1.570  57.068  1.2524 -1.7940  1.1317
12726TIP3   OH259668   3.166   2.820  11.788 -0.2329  0.0488  0.2477
12726TIP3    H159669   3.175   2.759  11.861  0.1573  0.1561  0.2912
12726TIP3    H259670   3.085   2.794  11.744 -0.8415  0.4108  1.1176
12727TIP3   OH259671   0.368   0.728   5.333  0.5055  0.1276  0.3240
12727TIP3    H159672   0.347   0.821   5.343 -1.0138 -0.1767  0.2510
12727TIP3    H259673   0.323   0.702   5.252  2.2804 -0.3167 -0.5746
12728TIP3   OH259674   1.767   0.000   9.210 -0.0821  0.2463  0.3774
12728TIP3    H159675   1.859   0.020   9.190  0.3447  1.2128  2.9077
12728TIP3    H259676   1.765  -0.095   9.221  0.4766  0.1500 -0.2719
12729TIP3   OH259677   0.004   0.218   3.354 -0.2456 -0.4309  0.4234
12729TIP3    H159678  -0.013   0.294   3.410 -0.7924  1.7656 -2.4494
12729TIP3    H259679  -0.068   0.158   3.372  0.0377 -0.2131  2.5656
12730TIP3   OH259680   2.320   1.676  11.851  0.0763  0.2458  0.4736
12730TIP3    H159681   2.278   1.672  11.765  0.7723 -1.9262  0.1613
12730TIP3    H259682   2.406   1.714  11.834 -0.8265  2.6172  0.7624
12731TIP3   OH259683   2.847   0.608   2.670 -0.5835  0.1471  0.0409
12731TIP3    H159684   2.797   0.582   2.747  0.4429  1.5610  1.2299
12731TIP3    H259685   2.938   0.586   2.692 -0.2000  1.1123 -0.5275
12732TIP3   OH259686   2.271   3.419  52.803  0.1689 -0.3537 -0.4107
12732TIP3    H159687   2.181   3.424  52.835 -0.0915  0.2457 -1.1955
12732TIP3    H259688   2.311   3.501  52.829  0.5898 -0.7472  0.2044
12733TIP3   OH259689   2.633   0.394  27.260 -0.5069  0.4958  0.5983
12733TIP3    H159690   2.631   0.455  27.186 -0.3536  0.4003  0.5136
12733TIP3    H259691   2.541   0.380  27.283 -0.5415  0.7606  0.6219
12734TIP3   OH259692   3.208   0.771  50.989 -0.4017  0.5309  0.2303
12734TIP3    H159693   3.169   0.697  51.036  0.8463  0.8129  1.8021
12734TIP3    H259694   3.150   0.845  51.007 -1.3868  0.0706 -0.9453
12735TIP3   OH259695   0.437   0.803  58.102 -0.0709 -0.1186 -0.0406
12735TIP3    H159696   0.434   0.839  58.191  0.0460 -0.1559 -0.0228
12735TIP3    H259697   0.417   0.710  58.113 -3.4535  0.4530 -0.4163
12736TIP3   OH259698   1.335   0.966  48.908 -0.6206 -0.1583 -0.3263
12736TIP3    H159699   1.316   1.045  48.857 -0.7706 -0.8274 -1.3365
12736TIP3    H259700   1.431   0.959  48.905 -0.6318 -0.2360 -0.5993
12737TIP3   OH259701   1.449   2.527  20.701  0.6393  0.3662  0.5363
12737TIP3    H159702   1.388   2.518  20.774 -0.6800  0.2999 -0.5361
12737TIP3    H259703   1.395   2.559  20.629  1.3723 -1.7457 -1.0656
12738TIP3   OH259704   0.864   0.783  45.357 -0.2229  0.3908  0.1712
12738TIP3    H159705   0.889   0.869  45.324 -1.5334  1.5912  2.0827
12738TIP3    H259706   0.866   0.793  45.453  0.4262 -1.9774  0.4843
12739TIP3   OH259707   1.545   3.178  51.713  0.0876  0.4640 -0.1242
12739TIP3    H159708   1.554   3.256  51.766 -0.6980  0.5252 -0.0723
12739TIP3    H259709   1.541   3.106  51.776  0.0765  0.4518 -0.1401
12740TIP3   OH259710   0.763   0.538  14.166 -0.2116  0.2892 -0.4556
12740TIP3    H159711   0.759   0.596  14.242  0.4716  0.6390 -0.6723
12740TIP3    H259712   0.848   0.493  14.175 -1.2709 -1.6556  0.3983
12741TIP3   OH259713   2.746   1.140  43.010 -0.2508  0.1695  0.1713
12741TIP3    H159714   2.768   1.094  42.929  0.1169 -1.2784  1.0638
12741TIP3    H259715   2.829   1.180  43.037 -0.1304 -0.2247  0.3833
12742TIP3   OH259716   2.207   2.448  65.355  0.0203  0.3223 -0.7102
12742TIP3    H159717   2.154   2.376  65.388  0.1452  0.5567  0.0340
12742TIP3    H259718   2.209   2.511  65.427  0.0406  0.9994 -1.2883
12743TIP3   OH259719   1.776   0.368  15.557  0.0979 -0.1121  0.5041
12743TIP3    H159720   1.784   0.274  15.576  1.9702  0.1621  1.3497
12743TIP3    H259721   1.811   0.378  15.468 -1.4688 -0.3801 -0.1682
12744TIP3   OH259722   1.432   1.379  47.749 -0.0884 -0.2965 -0.1686
12744TIP3    H159723   1.510   1.420  47.713 -0.2725 -0.7883 -1.1445
12744TIP3    H259724   1.426   1.414  47.838 -0.1221  1.6165 -0.8804
12745TIP3   OH259725   1.464   3.303  20.593 -0.0544 -0.2715  0.0220
12745TIP3    H159726   1.464   3.242  20.666  0.8047 -0.8495 -0.4351
12745TIP3    H259727   1.378   3.293  20.553 -0.4683 -0.0761  0.8427
12746TIP3   OH259728   3.445   2.492  64.102  0.9732 -0.2796  0.4807
12746TIP3    H159729   3.360   2.534  64.093  1.1065 -0.1063 -0.0425
12746TIP3    H259730   3.425   2.398  64.104  0.7731 -0.2435  0.2560
12747TIP3   OH259731   1.853   2.846  49.749 -0.3186 -0.4544  1.0150
12747TIP3    H159732   1.758   2.833  49.750 -0.7987  2.0057 -1.0731
12747TIP3    H259733   1.885   2.782  49.686 -1.0974  0.8370 -0.7662
12748TIP3   OH259734   0.262   1.068  16.384 -0.2060 -0.5165 -0.0345
12748TIP3    H159735   0.260   1.044  16.291  0.4456  0.0262 -0.2009
12748TIP3    H259736   0.289   0.988  16.429  0.0776 -0.6208 -0.3796
12749TIP3   OH259737   0.430   2.551   2.843 -0.1140 -0.0090 -0.1752
12749TIP3    H159738   0.392   2.537   2.756 -0.1690 -1.1123  0.0118
12749TIP3    H259739   0.512   2.596   2.827 -0.0996 -0.2505 -0.8089
12750TIP3   OH259740   1.593   3.100  63.164 -0.1151 -0.3017  0.8294
12750TIP3    H159741   1.501   3.107  63.189 -0.3418 -0.0711 -0.0316
12750TIP3    H259742   1.601   3.012  63.126 -0.2566  0.0973 -0.1513
12751TIP3   OH259743   0.921   0.563   9.073 -0.3862  0.3343 -0.6662
12751TIP3    H159744   0.841   0.552   9.124 -0.5203  0.8521 -0.7579
12751TIP3    H259745   0.903   0.638   9.016  0.1465  0.4314 -0.7161
12752TIP3   OH259746   0.601   2.516   1.300 -0.3118 -0.4874 -0.2132
12752TIP3    H159747   0.627   2.581   1.366 -0.8738 -0.2174 -0.2455
12752TIP3    H259748   0.682   2.490   1.257  0.0632 -0.7236  0.6414
12753TIP3   OH259749   1.290   2.811  66.323  0.6879  0.1526 -0.4841
12753TIP3    H159750   1.245   2.759  66.257 -0.6212  0.7642 -0.0993
12753TIP3    H259751   1.352   2.865  66.274  1.3544 -1.0027 -0.9694
12754TIP3   OH259752   0.873   3.414  34.074 -0.3661 -0.2751 -0.1808
12754TIP3    H159753   0.779   3.398  34.084 -0.1206 -1.2483  0.6259
12754TIP3    H259754   0.882   3.509  34.087 -1.0744 -0.3635  1.1498
12755TIP3   OH259755   3.297   0.122  52.286  0.0210  0.1269  0.6268
12755TIP3    H159756   3.366   0.167  52.238 -0.3506 -0.5135 -0.5366
12755TIP3    H259757   3.233   0.191  52.307  0.6341  0.5780  1.0510
12756TIP3   OH259758   2.449   1.069  47.900  0.3341 -0.5226 -0.5918
12756TIP3    H159759   2.423   1.144  47.846  0.7668 -0.0526 -0.1572
12756TIP3    H259760   2.366   1.027  47.923 -0.0482  0.7158  0.4242
12757TIP3   OH259761   1.627   0.070  56.053  0.5144 -0.5911  0.3983
12757TIP3    H159762   1.652   0.159  56.077  0.1973 -1.0489  2.7091
12757TIP3    H259763   1.537   0.061  56.083  1.3203 -2.3992  2.6867
12758TIP3   OH259764   2.050   0.850  43.359  0.3898 -0.3884  0.4828
12758TIP3    H159765   2.113   0.814  43.296 -0.4895 -1.1364  0.0002
12758TIP3    H259766   2.073   0.942  43.366  0.7704 -0.3825 -0.6283
12759TIP3   OH259767   2.663   1.909  45.331  0.2005  0.2979  0.4013
12759TIP3    H159768   2.721   1.843  45.292  2.7131  2.4702  0.2164
12759TIP3    H259769   2.624   1.954  45.256  0.9995  1.0805  0.4384
12760TIP3   OH259770   1.846   0.470  64.490 -0.3236  0.0747  0.1292
12760TIP3    H159771   1.836   0.375  64.490  0.4466 -0.0291 -1.1083
12760TIP3    H259772   1.870   0.492  64.580 -1.0064 -0.8320  0.5418
12761TIP3   OH259773   0.966   0.432  62.466 -0.0838 -0.0939  0.3944
12761TIP3    H159774   0.999   0.473  62.546  0.6790  2.1969 -0.9754
12761TIP3    H259775   0.871   0.427  62.478 -0.0582  0.9155  1.1611
12762TIP3   OH259776   2.946   1.871   9.103 -0.4300 -0.4162 -0.2502
12762TIP3    H159777   2.860   1.839   9.076 -0.9018 -0.4920  1.2638
12762TIP3    H259778   2.966   1.824   9.183  0.4519  0.5223  0.1102
12763TIP3   OH259779   1.496   1.828  60.304  0.2133 -0.2549 -0.3097
12763TIP3    H159780   1.468   1.785  60.224 -1.2715  0.3926 -0.1715
12763TIP3    H259781   1.422   1.817  60.364  0.6655  0.6212  0.4346
12764TIP3   OH259782   0.030   0.183  21.686 -0.5933 -0.2069  0.2039
12764TIP3    H159783  -0.060   0.213  21.695 -0.5282 -0.0119  0.2117
12764TIP3    H259784   0.035   0.150  21.596 -0.5157  0.3250  0.0062
12765TIP3   OH259785   1.677   3.048  10.802  0.1027 -0.1093  0.4006
12765TIP3    H159786   1.700   2.966  10.759  1.4433  0.8383 -0.7928
12765TIP3    H259787   1.595   3.029  10.848 -0.2553 -1.7790 -0.8136
12766TIP3   OH259788   2.087   0.242  51.367  0.3855  0.1053  0.3851
12766TIP3    H159789   2.158   0.302  51.388  2.2973 -1.7653 -0.3173
12766TIP3    H259790   2.064   0.262  51.276  0.4550  0.2852  0.4067
12767TIP3   OH259791   1.675   0.847  46.431 -0.2766  0.3887  0.6078
12767TIP3    H159792   1.634   0.807  46.353 -1.1909  0.4946  1.0272
12767TIP3    H259793   1.767   0.822  46.424  0.0151  1.7774 -1.3841
12768TIP3   OH259794   3.076   3.199   5.393  0.4548  0.6327 -0.6254
12768TIP3    H159795   3.127   3.139   5.338  0.5804  0.4284 -0.2867
12768TIP3    H259796   2.986   3.191   5.360  0.6076  0.8547 -1.1016
12769TIP3   OH259797   0.244   1.162  63.552  0.0169  0.8591  0.1182
12769TIP3    H159798   0.151   1.177  63.536 -0.1661 -0.8683 -0.6648
12769TIP3    H259799   0.273   1.240  63.599 -1.7843  1.5003  0.2517
12770TIP3   OH259800   1.012   2.475  35.168 -0.4179  0.9947 -0.3962
12770TIP3    H159801   0.922   2.457  35.141 -0.1626  0.6139 -1.0239
12770TIP3    H259802   1.050   2.389  35.184 -0.0782  1.1350 -0.4323
12771TIP3   OH259803   1.106   2.652   2.578 -0.2707 -0.0560 -0.8091
12771TIP3    H159804   1.089   2.744   2.595  0.1332  0.0260 -0.8287
12771TIP3    H259805   1.037   2.625   2.517 -0.1526  0.3376 -1.1228
12772TIP3   OH259806   1.101   0.396  63.523  0.0447 -0.8404 -0.1393
12772TIP3    H159807   1.035   0.431  63.582  0.0703 -1.4163  0.2405
12772TIP3    H259808   1.163   0.468  63.511 -0.9733 -0.0939 -1.0052
12773TIP3   OH259809   2.743   1.403  49.928 -0.5144 -0.2234 -0.0385
12773TIP3    H159810   2.660   1.359  49.910 -0.6377 -0.1278  0.2807
12773TIP3    H259811   2.792   1.341  49.982  0.2641 -0.9314 -1.5017
12774TIP3   OH259812   2.884   2.771  21.629 -0.2876  0.0793  0.3748
12774TIP3    H159813   2.814   2.835  21.638 -0.8283 -0.3754 -0.4533
12774TIP3    H259814   2.943   2.808  21.563 -0.5583 -0.2178 -0.0457
12775TIP3   OH259815   2.016   0.608  54.505  0.2003  0.2979  0.1799
12775TIP3    H159816   1.975   0.689  54.476  1.5349  0.8018 -0.3790
12775TIP3    H259817   2.022   0.554  54.426  1.4677  0.6209  0.0402
12776TIP3   OH259818   2.956   1.758  63.740 -0.7402 -0.2376 -0.2409
12776TIP3    H159819   3.036   1.729  63.697 -1.0279 -0.6112 -0.5319
12776TIP3    H259820   2.935   1.842  63.698 -0.8447 -0.4465 -0.6085
12777TIP3   OH259821   2.246   2.110   2.249  0.0146  0.3944 -0.0498
12777TIP3    H159822   2.306   2.182   2.228 -1.1653  0.8084 -2.2845
12777TIP3    H259823   2.165   2.132   2.204 -0.6989 -1.8970 -0.0191
12778TIP3   OH259824   0.187   3.169  60.247 -0.3118 -0.4878 -0.3418
12778TIP3    H159825   0.222   3.087  60.212  0.0891 -0.5832  0.2722
12778TIP3    H259826   0.264   3.214  60.283 -0.7429 -0.4519  0.5392
12779TIP3   OH259827   3.024   0.025  61.142  0.3058 -0.3911 -0.3115
12779TIP3    H159828   3.030   0.113  61.178 -1.9823 -0.7350  1.1322
12779TIP3    H259829   3.047   0.035  61.049  3.4080  1.0555  0.4935
12780TIP3   OH259830   1.218   3.345  36.542 -0.3389  0.6064  0.3698
12780TIP3    H159831   1.266   3.427  36.553 -0.4840  0.8760 -0.8547
12780TIP3    H259832   1.280   3.287  36.497 -0.5260  0.3346  0.4608
12781TIP3   OH259833   0.507   3.249  46.562 -0.1114 -0.2922 -0.2273
12781TIP3    H159834   0.571   3.195  46.608  0.6982 -0.2629 -1.2871
12781TIP3    H259835   0.470   3.305  46.630  0.3131 -0.9532  0.5692
12782TIP3   OH259836   2.583   2.651   2.705 -0.0752 -0.1555 -0.1438
12782TIP3    H159837   2.588   2.623   2.796  1.1381 -0.8415 -0.4013
12782TIP3    H259838   2.497   2.619   2.675 -0.4186 -0.0484  0.7092
12783TIP3   OH259839   2.565   0.883  17.779 -0.0671  0.1423 -0.0535
12783TIP3    H159840   2.532   0.949  17.718  1.5224  1.3302  0.3180
12783TIP3    H259841   2.537   0.914  17.865  2.0129  1.2245  0.2754
12784TIP3   OH259842   0.286   2.164  47.240 -0.0613 -0.5097  0.0595
12784TIP3    H159843   0.204   2.157  47.289  0.5472 -1.0202  1.0391
12784TIP3    H259844   0.312   2.073  47.224 -0.1320 -0.3514 -1.0375
12785TIP3   OH259845   0.738   0.466  54.996 -0.0736  0.0532 -0.3074
12785TIP3    H159846   0.735   0.556  55.027 -0.3851  0.3575 -1.1801
12785TIP3    H259847   0.803   0.423  55.052 -1.3587  0.2795  1.4480
12786TIP3   OH259848   2.595   1.266  14.502  0.0752 -0.5228 -0.0171
12786TIP3    H159849   2.674   1.283  14.553  1.1415 -2.3064 -0.9427
12786TIP3    H259850   2.556   1.352  14.487  2.6169  0.5854 -0.7041
12787TIP3   OH259851   0.695   1.797   5.752  0.3743  0.1099 -0.2561
12787TIP3    H159852   0.690   1.814   5.658  0.2922  1.1087 -0.0861
12787TIP3    H259853   0.606   1.772   5.777  0.7903 -2.0358 -0.7579
12788TIP3   OH259854   1.072   0.253  43.656  0.0579 -0.3446  0.3035
12788TIP3    H159855   1.088   0.248  43.562 -0.5752  0.8312  0.1102
12788TIP3    H259856   1.020   0.176  43.676 -1.3760  0.3259 -0.6774
12789TIP3   OH259857   0.849   0.539  45.208 -0.4231 -0.1146  0.2458
12789TIP3    H159858   0.809   0.570  45.127 -0.0571  0.0240  0.1158
12789TIP3    H259859   0.862   0.618  45.260 -0.2229 -0.1455  0.2447
12790TIP3   OH259860   1.342   2.012  62.774 -0.5364 -0.0084  1.0394
12790TIP3    H159861   1.337   1.952  62.849 -0.6461 -0.6803  0.5070
12790TIP3    H259862   1.390   1.963  62.707 -1.1585  0.2666  0.3771
12791TIP3   OH259863   2.782   1.858  20.072 -0.0853 -0.1503 -0.2726
12791TIP3    H159864   2.858   1.916  20.066 -0.2856  0.1691  0.1867
12791TIP3    H259865   2.707   1.916  20.082 -0.2221 -0.4869  0.8151
12792TIP3   OH259866   2.724   2.251  66.399 -0.0516 -0.6050  0.0327
12792TIP3    H159867   2.809   2.257  66.355 -0.9787  0.6288 -1.6938
12792TIP3    H259868   2.692   2.341  66.402 -1.5476 -1.1095  0.1253
12793TIP3   OH259869   2.701   0.236  63.381 -0.1207 -0.4482 -0.3164
12793TIP3    H159870   2.791   0.263  63.394  0.3079 -0.8162 -2.1692
12793TIP3    H259871   2.707   0.145  63.352 -1.2791 -1.3017  1.9276
12794TIP3   OH259872   1.630   2.880  53.250  0.3675 -0.8100 -0.2555
12794TIP3    H159873   1.550   2.910  53.207  1.0815  1.9398  0.1710
12794TIP3    H259874   1.693   2.951  53.238  2.3197 -2.2800  0.6540
12795TIP3   OH259875   1.749   1.251  50.618 -0.5585 -0.2780 -0.3148
12795TIP3    H159876   1.675   1.307  50.639  0.1929  0.9931 -0.9193
12795TIP3    H259877   1.721   1.203  50.540 -0.2598  1.2892 -1.4464
12796TIP3   OH259878   2.495   1.613   3.633 -0.1347  0.4536  0.1912
12796TIP3    H159879   2.573   1.659   3.603  0.8487 -1.0220  0.3470
12796TIP3    H259880   2.527   1.556   3.704 -1.4296  0.1104  0.5216
12797TIP3   OH259881   1.469   1.242  59.464  0.1552  0.1346  0.0757
12797TIP3    H159882   1.385   1.274  59.431  0.9858  1.4765 -0.8806
12797TIP3    H259883   1.503   1.187  59.394  0.0297 -0.5018  0.5074
12798TIP3   OH259884   2.082   2.285  53.773  0.0117  0.1299  0.2403
12798TIP3    H159885   2.079   2.220  53.843 -0.3267  0.0535  0.1547
12798TIP3    H259886   2.084   2.369  53.818 -1.1991  0.1207  0.3387
12799TIP3   OH259887   1.981   1.782  55.695  0.0593 -0.3954  0.1300
12799TIP3    H159888   2.014   1.728  55.767  1.6956  1.4328  0.8510
12799TIP3    H259889   2.013   1.870  55.715 -2.3976  0.8724 -1.0139
12800TIP3   OH259890   1.744   0.716  45.564 -0.1467 -0.0690  0.2328
12800TIP3    H159891   1.807   0.646  45.544  1.0157  0.6084  1.3190
12800TIP3    H259892   1.782   0.794  45.525 -2.2101 -0.2248 -2.3388
12801TIP3   OH259893   1.834   1.434  53.971 -0.2992 -0.0244 -0.3352
12801TIP3    H159894   1.766   1.473  54.027  0.4268 -0.4909  0.9157
12801TIP3    H259895   1.901   1.502  53.965  0.7794 -0.8598  1.5078
12802TIP3   OH259896   2.611   0.162  22.659  0.3554  0.0686 -0.2620
12802TIP3    H159897   2.553   0.102  22.613  2.5368 -0.5370 -2.4056
12802TIP3    H259898   2.695   0.117  22.661  1.2035  1.6223  1.2157
12803TIP3   OH259899   3.255   0.783  55.396 -0.2819  0.2627 -0.3164
12803TIP3    H159900   3.164   0.755  55.402 -0.2055  0.0469 -0.1670
12803TIP3    H259901   3.250   0.875  55.371 -0.5504  0.3635  0.0987
12804TIP3   OH259902   0.632   1.321  15.274  0.1105 -0.2396 -0.5512
12804TIP3    H159903   0.644   1.248  15.335 -1.0214 -0.9352 -1.1280
12804TIP3    H259904   0.676   1.292  15.194 -0.2564 -0.2543 -0.7487
12805TIP3   OH259905   1.705   1.418  66.437  0.4529  0.5407 -0.0167
12805TIP3    H159906   1.647   1.494  66.447 -1.4720 -1.0556  2.4009
12805TIP3    H259907   1.661   1.363  66.373  0.6805  0.5072 -0.1426
12806TIP3   OH259908   2.466   2.091  61.303  0.0143 -0.6247  0.0580
12806TIP3    H159909   2.424   2.158  61.357 -0.0556  0.1501 -0.9197
12806TIP3    H259910   2.395   2.030  61.282 -0.9255  1.1265 -2.2817
12807TIP3   OH259911   1.960   0.260  66.908  0.4128 -0.2242 -0.1320
12807TIP3    H159912   1.979   0.351  66.931 -0.2019 -0.3618  0.9559
12807TIP3    H259913   2.031   0.210  66.949  0.9862 -0.2202 -1.0852
12808TIP3   OH259914   0.315   2.216  59.882  0.2915 -0.0944  0.0781
12808TIP3    H159915   0.363   2.298  59.865  0.7857 -0.6267 -1.2088
12808TIP3    H259916   0.361   2.176  59.956 -0.5421  1.2194  1.3704
12809TIP3   OH259917   1.369   0.702  54.340 -0.3482 -0.1018 -0.7651
12809TIP3    H159918   1.322   0.748  54.409  0.0099  0.6845 -1.0365
12809TIP3    H259919   1.423   0.638  54.387  0.9885  1.4017 -0.1812
12810TIP3   OH259920   2.535   0.325  56.215 -0.0506  0.2575 -0.5192
12810TIP3    H159921   2.605   0.270  56.180  0.7824  0.4557  0.7990
12810TIP3    H259922   2.522   0.393  56.149 -0.0646 -0.6460 -1.4719
12811TIP3   OH259923   1.778   3.177  11.120 -0.0805 -0.2733 -0.3242
12811TIP3    H159924   1.798   3.266  11.149  0.0483 -0.6523  0.8012
12811TIP3    H259925   1.842   3.122  11.165 -0.2443 -0.9524 -0.8999
12812TIP3   OH259926   2.200   1.699   8.258  0.0642 -0.0093 -0.1274
12812TIP3    H159927   2.178   1.792   8.246  0.3126 -0.1218 -1.7451
12812TIP3    H259928   2.277   1.700   8.315 -1.0626  0.6482  1.4692
12813TIP3   OH259929   0.940   3.177  47.858  0.1547  0.3331 -0.5581
12813TIP3    H159930   0.934   3.268  47.886 -1.0586  0.8764 -2.3715
12813TIP3    H259931   0.911   3.125  47.933 -2.7040  1.6663 -0.6328
12814TIP3   OH259932   1.481   0.135  10.837  0.2707 -0.3435  0.4584
12814TIP3    H159933   1.527   0.067  10.788  0.8227 -0.6038  1.3261
12814TIP3    H259934   1.539   0.156  10.910 -0.2770  0.4583  0.6843
12815TIP3   OH259935   1.546   1.622  56.770 -0.5982  0.1649  0.2807
12815TIP3    H159936   1.516   1.711  56.787 -3.2191 -1.2115  4.1485
12815TIP3    H259937   1.470   1.579  56.730  0.4167 -0.5628 -0.9485
12816TIP3   OH259938   0.795   1.198  17.001  0.1821  0.2638  0.0053
12816TIP3    H159939   0.776   1.113  16.962  0.9621  0.0250  0.1322
12816TIP3    H259940   0.709   1.232  17.028 -0.3238  0.2397 -1.4740
12817TIP3   OH259941   1.448   1.363  53.184 -0.1943 -0.2065  0.0665
12817TIP3    H159942   1.472   1.335  53.272 -1.6758 -0.2866  0.4801
12817TIP3    H259943   1.528   1.356  53.133  0.4223 -1.2507  1.1412
12818TIP3   OH259944   0.067   2.781  55.603  0.0153 -0.1024 -0.4635
12818TIP3    H159945   0.015   2.847  55.556  1.0273  0.8778 -0.2333
12818TIP3    H259946   0.054   2.801  55.695 -0.4679 -0.8613 -0.3555
12819TIP3   OH259947   0.843   2.946  12.764  0.1159 -0.4093  0.4795
12819TIP3    H159948   0.936   2.968  12.773 -0.2519  1.3645  0.2384
12819TIP3    H259949   0.838   2.902  12.680  0.6106  0.3451  0.0391
12820TIP3   OH259950   2.105   2.806  61.939 -0.5914 -0.2761  0.0618
12820TIP3    H159951   2.131   2.716  61.924 -0.9884 -1.1096  3.4369
12820TIP3    H259952   2.108   2.816  62.035 -2.1733  2.7778 -0.0761
12821TIP3   OH259953   2.932   0.610  66.380  0.2831 -0.1921 -0.6298
12821TIP3    H159954   2.908   0.649  66.464  1.0547 -1.3611  0.1473
12821TIP3    H259955   2.990   0.675  66.339 -0.0441  0.3472 -0.2438
12822TIP3   OH259956   0.863   0.679  61.501  0.1432 -0.1479  0.2658
12822TIP3    H159957   0.793   0.728  61.459 -1.0178 -2.0988 -0.2376
12822TIP3    H259958   0.896   0.736  61.570  0.7053  2.3447 -1.9291
12823TIP3   OH259959   0.122   1.647  18.056 -0.4111 -0.4121 -0.1891
12823TIP3    H159960   0.078   1.731  18.046 -1.9267 -1.0920  0.4265
12823TIP3    H259961   0.215   1.668  18.057 -0.5515  0.9392 -3.3263
12824TIP3   OH259962   2.351   2.705   3.129  0.1340  0.2380 -0.2930
12824TIP3    H159963   2.377   2.738   3.215  0.1695 -0.0184 -0.2063
12824TIP3    H259964   2.327   2.784   3.080  0.6124  0.4341 -0.2208
12825TIP3   OH259965   2.549   1.758  26.001 -0.5745 -0.1691  0.0501
12825TIP3    H159966   2.612   1.769  25.930 -0.4177 -1.3563 -0.0169
12825TIP3    H259967   2.474   1.713  25.961 -0.4187 -0.9909  0.6550
12826TIP3   OH259968   0.599   2.863   8.619 -0.3921 -0.0057  0.3378
12826TIP3    H159969   0.686   2.888   8.587 -0.2856  0.0088  0.6409
12826TIP3    H259970   0.538   2.902   8.556 -0.2601  1.4967  1.1087
12827TIP3   OH259971   2.643   0.950  13.087  0.3956  0.5721 -0.0416
12827TIP3    H159972   2.624   0.876  13.029 -0.6491  0.7896  0.0067
12827TIP3    H259973   2.568   1.007  13.079 -0.4595 -0.0409  2.5328
12828TIP3   OH259974   1.551   2.009  48.417  0.5514  0.3799 -0.4887
12828TIP3    H159975   1.645   1.993  48.425  0.3465 -0.3402  0.7334
12828TIP3    H259976   1.510   1.927  48.446 -0.4647  1.2744  0.7276
12829TIP3   OH259977   2.023   3.178  10.035 -0.1236 -0.1044  0.0892
12829TIP3    H159978   1.964   3.200  10.106 -1.3151  0.8035 -1.1223
12829TIP3    H259979   2.107   3.160  10.077 -0.1838  2.5663  1.5805
12830TIP3   OH259980   1.273   1.152  58.059  0.1437 -0.1882  0.0120
12830TIP3    H159981   1.187   1.126  58.091  0.1167 -1.8485 -1.2497
12830TIP3    H259982   1.284   1.102  57.978  2.8526 -1.0433  0.8105
12831TIP3   OH259983   0.493   1.799  10.509  0.6422 -0.4198 -0.0554
12831TIP3    H159984   0.448   1.756  10.436  0.5708  2.7974 -2.1285
12831TIP3    H259985   0.426   1.858  10.545  0.7148 -1.8588  2.6688
12832TIP3   OH259986   2.247   2.660  65.559  0.8122 -0.2035  0.1131
12832TIP3    H159987   2.197   2.721  65.613  0.2670 -0.5065 -0.0357
12832TIP3    H259988   2.327   2.644  65.609  1.3384  1.2526 -0.2247
12833TIP3   OH259989   1.441   0.969  54.265  0.3135  0.2210 -0.1145
12833TIP3    H159990   1.408   0.987  54.353 -1.0397 -0.3644 -0.4741
12833TIP3    H259991   1.417   0.877  54.249  1.2061  0.0934 -0.8162
12834TIP3   OH259992   0.696   0.681  58.032 -0.3845 -0.7149 -0.1658
12834TIP3    H159993   0.624   0.740  58.051  0.5447  0.1610  0.7856
12834TIP3    H259994   0.667   0.630  57.956 -1.5344  0.3770 -0.4789
12835TIP3   OH259995   1.064   1.137  59.217 -0.3790 -0.0343  0.0014
12835TIP3    H159996   0.973   1.167  59.224 -0.4497 -0.6128  3.5663
12835TIP3    H259997   1.113   1.214  59.191 -1.8078  0.3730 -1.6617
12836TIP3   OH259998   3.273   3.109  42.827 -0.1478 -0.2673  0.4124
12836TIP3    H159999   3.268   3.031  42.882 -0.7715 -0.1516  0.5236
12836TIP3    H260000   3.274   3.182  42.888  1.2993 -0.1942  0.3481
12837TIP3   OH260001   0.045   0.505  10.181 -0.4401  0.2542 -0.6070
12837TIP3    H160002   0.088   0.432  10.225 -2.8395 -1.0955 -0.3382
12837TIP3    H260003   0.117   0.557  10.146  1.3988 -1.5399  0.2766
12838TIP3   OH260004   0.376   0.603  56.569 -0.1056  0.5990 -0.2600
12838TIP3    H160005   0.281   0.593  56.576 -0.3236  2.7737  0.7456
12838TIP3    H260006   0.410   0.571  56.653  0.4064 -2.8171 -1.6320
12839TIP3   OH260007   1.616   1.070  65.222 -0.1984  0.1501 -0.2680
12839TIP3    H160008   1.682   1.132  65.192 -1.0296  1.1673 -0.0654
12839TIP3    H260009   1.622   1.073  65.318  0.3235 -0.7388 -0.2597
12840TIP3   OH260010   0.752   2.802  11.725 -0.4428 -0.3409  0.1859
12840TIP3    H160011   0.752   2.885  11.678 -0.3165 -0.9293 -0.8911
12840TIP3    H260012   0.831   2.757  11.695  1.2840  0.4263  3.1787
12841TIP3   OH260013   2.253   2.886  27.898 -0.5289 -0.4325  0.1723
12841TIP3    H160014   2.270   2.930  27.815  0.3441 -1.0995 -0.0154
12841TIP3    H260015   2.160   2.865  27.896 -0.7477  0.5319 -0.1513
12842TIP3   OH260016   1.652   0.549  66.621 -0.2007  0.1370  0.2048
12842TIP3    H160017   1.686   0.460  66.625  2.3659  1.0644  1.4007
12842TIP3    H260018   1.619   0.558  66.531  2.0679 -1.1858 -0.8659
12843TIP3   OH260019   0.531   0.652  13.784  0.7196  0.5533  0.1669
12843TIP3    H160020   0.531   0.704  13.865 -2.4378 -0.0019  0.6646
12843TIP3    H260021   0.467   0.695  13.728 -1.8383 -2.4895  0.4835
12844TIP3   OH260022   1.429   0.701  50.136 -0.1355  0.6633 -0.2707
12844TIP3    H160023   1.360   0.751  50.092 -3.0390 -1.5886  1.3637
12844TIP3    H260024   1.469   0.648  50.067 -0.8178  1.1688 -1.0651
12845TIP3   OH260025   2.683   0.444  54.025 -0.1966  0.1491  0.0517
12845TIP3    H160026   2.777   0.423  54.026  0.6299  3.3085  1.2119
12845TIP3    H260027   2.669   0.494  54.105 -2.9980 -0.4626  0.0476
12846TIP3   OH260028   2.634   2.983  60.161  0.2555 -0.0064 -0.5026
12846TIP3    H160029   2.546   3.014  60.138  0.7308  0.0989 -2.3901
12846TIP3    H260030   2.633   2.890  60.140  0.7837  0.1439 -1.2698
12847TIP3   OH260031   3.332   2.712  19.755  0.1171  0.1850  0.4050
12847TIP3    H160032   3.328   2.741  19.846 -0.8608 -0.8860  0.7283
12847TIP3    H260033   3.325   2.617  19.760  0.7986  0.0548 -0.7568
12848TIP3   OH260034   1.103   3.190  39.091  0.0435 -0.1393 -0.4333
12848TIP3    H160035   1.117   3.283  39.108 -0.5533 -0.2292  0.5936
12848TIP3    H260036   1.180   3.147  39.128  0.8730  0.0139 -1.9000
12849TIP3   OH260037   2.508   3.052  54.426 -0.7359 -0.3524 -0.2135
12849TIP3    H160038   2.477   3.133  54.466  0.6468  0.7197 -1.2240
12849TIP3    H260039   2.449   3.037  54.352 -0.8619 -0.1346 -0.1562
12850TIP3   OH260040   2.053   3.190   7.566  0.3592  0.7424  0.1503
12850TIP3    H160041   2.117   3.119   7.576 -1.6587 -1.3637 -0.8164
12850TIP3    H260042   2.007   3.192   7.649  0.3510  0.8506  0.1427
12851TIP3   OH260043   1.321   0.589  48.779  0.1022  0.0757 -0.6312
12851TIP3    H160044   1.240   0.637  48.796 -0.3672 -0.9324  0.0305
12851TIP3    H260045   1.333   0.596  48.684 -0.3040  0.9307 -0.6321
12852TIP3   OH260046   1.677   2.648  65.848 -0.3379 -0.1693  0.6289
12852TIP3    H160047   1.690   2.561  65.811  1.2374 -0.0478  0.8019
12852TIP3    H260048   1.608   2.637  65.913  0.2550 -1.4429  1.0823
12853TIP3   OH260049   0.424   3.085  12.478  0.0246  0.0715 -0.3836
12853TIP3    H160050   0.342   3.100  12.525 -1.0215 -0.2326 -2.0173
12853TIP3    H260051   0.472   3.023  12.533 -0.2651  1.2051  1.2088
12854TIP3   OH260052   3.075   2.329  50.073  0.2425  0.1027  0.4910
12854TIP3    H160053   3.010   2.354  50.008  0.4332  0.5923  0.4803
12854TIP3    H260054   3.088   2.235  50.060 -0.2544  0.0574  0.3118
12855TIP3   OH260055   3.433   0.253  64.680 -0.5236  0.1484  0.2401
12855TIP3    H160056   3.517   0.232  64.722 -0.8738 -0.8746  0.4576
12855TIP3    H260057   3.429   0.348  64.681  0.4457  0.1981  0.6125
12856TIP3   OH260058   1.500   1.411  59.808 -0.0838 -0.5530  0.1263
12856TIP3    H160059   1.423   1.428  59.754  1.5269 -0.0304 -2.1412
12856TIP3    H260060   1.544   1.496  59.815  1.6471 -1.2960 -0.9135
12857TIP3   OH260061   0.393   0.379   8.737 -0.0308 -0.0341  0.1608
12857TIP3    H160062   0.414   0.315   8.669  0.2210  1.4201 -1.1919
12857TIP3    H260063   0.298   0.383   8.738 -0.0404  1.6358 -1.8370
12858TIP3   OH260064   2.568   0.026  59.354 -0.4578 -0.2837  0.1715
12858TIP3    H160065   2.528   0.111  59.372 -0.1096 -0.2892  1.0216
12858TIP3    H260066   2.495  -0.036  59.357 -0.6947 -0.0383 -0.3374
12859TIP3   OH260067   2.245   0.486  65.801  0.1922  0.5474  0.3632
12859TIP3    H160068   2.249   0.393  65.823  0.0055  0.5690  0.4942
12859TIP3    H260069   2.265   0.531  65.883 -1.1423  0.6363  0.6570
12860TIP3   OH260070   0.049   2.164   7.533  0.2379 -0.3743  0.2547
12860TIP3    H160071   0.120   2.106   7.562 -0.3137 -0.7134  0.9616
12860TIP3    H260072  -0.006   2.175   7.611 -0.7168 -0.4635 -0.3836
12861TIP3   OH260073   3.303   1.490  50.754  0.1269  0.6618 -0.8244
12861TIP3    H160074   3.370   1.478  50.821 -1.4226 -0.8176  0.5447
12861TIP3    H260075   3.296   1.585  50.744  0.1261  0.9614  1.4235
12862TIP3   OH260076   1.059   0.673  21.574  0.3495 -0.4248 -0.4749
12862TIP3    H160077   1.052   0.595  21.518  0.9439  0.3551 -1.6756
12862TIP3    H260078   1.102   0.738  21.519 -0.0238  0.7215  0.5515
12863TIP3   OH260079   0.795   0.086  54.136  0.2079 -0.8620 -0.8052
12863TIP3    H160080   0.722   0.135  54.174  0.9500  0.6212 -1.2225
12863TIP3    H260081   0.761  -0.003  54.125 -1.0824 -0.5304  0.2563
12864TIP3   OH260082   2.031   1.976  60.858  0.6046 -0.5618  0.0228
12864TIP3    H160083   2.059   1.893  60.817  0.4897 -0.0642 -1.1083
12864TIP3    H260084   1.951   1.953  60.906 -0.7954 -0.6800 -2.2120
12865TIP3   OH260085   0.770   0.342   1.954 -0.3456 -0.5893 -0.2620
12865TIP3    H160086   0.685   0.312   1.923 -0.7201  1.1083 -0.9750
12865TIP3    H260087   0.766   0.437   1.949  1.9762 -0.4755 -1.4005
12866TIP3   OH260088   1.104   3.322  37.063  0.6285  0.1074 -0.2830
12866TIP3    H160089   1.078   3.376  37.138 -2.3463 -0.1494 -1.0063
12866TIP3    H260090   1.117   3.385  36.992  0.9979  0.1626 -0.1656
12867TIP3   OH260091   0.459   1.825   6.954  0.1960 -0.3525 -0.0133
12867TIP3    H160092   0.367   1.820   6.981 -0.0838 -0.3624 -0.9593
12867TIP3    H260093   0.500   1.749   6.997 -0.4124 -0.8357 -0.2628
12868TIP3   OH260094   1.096   2.239  17.707  0.4076 -0.5253 -0.1837
12868TIP3    H160095   1.057   2.292  17.638  3.1386  0.1487 -1.2971
12868TIP3    H260096   1.100   2.150  17.671 -1.4172 -0.9644  0.5541
12869TIP3   OH260097   3.416   0.896  22.005 -0.2267 -0.0577 -0.3662
12869TIP3    H160098   3.328   0.932  21.992 -0.1442 -0.1667 -1.2640
12869TIP3    H260099   3.401   0.815  22.054 -0.6598 -0.2522 -0.8104
12870TIP3   OH260100   0.823   1.057  64.261  0.7605 -0.5265 -0.8401
12870TIP3    H160101   0.789   0.987  64.206  0.6732 -1.2459  0.0934
12870TIP3    H260102   0.837   1.015  64.346  0.3135  0.6849 -0.1452
12871TIP3   OH260103   1.158   1.266  38.312 -0.6103 -0.1653  0.6474
12871TIP3    H160104   1.140   1.212  38.235  0.2559 -0.5039  0.6786
12871TIP3    H260105   1.103   1.344  38.300  1.6560  1.1844 -1.8017
12872TIP3   OH260106   1.413   3.137  14.953 -0.1414 -0.7287 -0.6695
12872TIP3    H160107   1.497   3.103  14.922 -0.5617 -0.3309 -2.3093
12872TIP3    H260108   1.411   3.228  14.923 -0.4601 -0.2209  0.8049
12873TIP3   OH260109   3.381   2.104  53.518 -0.3413 -0.6013 -0.1834
12873TIP3    H160110   3.403   2.013  53.499 -1.8033 -0.9814 -0.1679
12873TIP3    H260111   3.441   2.129  53.589  0.2845 -1.4303 -0.4011
12874TIP3   OH260112   2.726   1.468  42.072 -0.0313  0.7637  0.2013
12874TIP3    H160113   2.803   1.512  42.037  0.9056  1.5469  3.0365
12874TIP3    H260114   2.735   1.377  42.043  1.7772  0.9271  0.1777
12875TIP3   OH260115   1.613   2.853  60.754 -0.3043  0.1091  0.3346
12875TIP3    H160116   1.691   2.903  60.778 -1.1213  1.7429 -0.1922
12875TIP3    H260117   1.550   2.873  60.823 -0.0523 -1.8158  1.1767
12876TIP3   OH260118   2.045   2.947  62.678  0.2254  0.1620  0.2677
12876TIP3    H160119   1.987   2.996  62.736  1.8490  0.3647  1.8093
12876TIP3    H260120   2.124   3.001  62.673  1.1863 -1.2082  0.1656
12877TIP3   OH260121   0.469   1.105  17.802  0.0167 -0.4092 -0.0132
12877TIP3    H160122   0.389   1.113  17.853  0.8282 -0.8815  1.3871
12877TIP3    H260123   0.537   1.141  17.858  1.1367 -2.0604 -0.2354
12878TIP3   OH260124   0.214   2.690  54.616  0.3636 -0.5855  0.5091
12878TIP3    H160125   0.252   2.749  54.682  1.1257 -2.1061  1.4799
12878TIP3    H260126   0.261   2.711  54.535 -0.4767  1.1927  0.4225
12879TIP3   OH260127   1.225   2.705   6.271  0.2060 -0.3340  0.0223
12879TIP3    H160128   1.151   2.645   6.284  0.4715 -0.2734  2.2653
12879TIP3    H260129   1.197   2.762   6.200 -1.9014 -0.3579  0.7483
12880TIP3   OH260130   1.592   2.752  10.895 -0.0535 -0.3108 -0.4784
12880TIP3    H160131   1.542   2.685  10.850 -0.8299 -0.0874  0.0298
12880TIP3    H260132   1.682   2.718  10.897 -0.5529 -1.6591  0.3864
12881TIP3   OH260133   3.016   0.526  49.607  0.4073  0.3917 -0.4970
12881TIP3    H160134   3.074   0.590  49.648  0.9614 -0.9617  0.9486
12881TIP3    H260135   3.074   0.453  49.584 -0.2550  0.2442 -1.7715
12882TIP3   OH260136   1.825   2.660  22.168  0.1992  0.7462 -0.0544
12882TIP3    H160137   1.884   2.614  22.228  0.5087  2.6237  1.1748
12882TIP3    H260138   1.741   2.660  22.213  0.2576  1.5146  0.0805
12883TIP3   OH260139   2.822   2.028  65.285 -0.3110 -0.1388  0.0355
12883TIP3    H160140   2.820   2.086  65.209 -2.2479 -1.4902 -1.0427
12883TIP3    H260141   2.751   2.059  65.342  1.3443  1.0832  1.5529
12884TIP3   OH260142   1.167   2.841  62.578 -0.0599 -0.1024  0.4788
12884TIP3    H160143   1.259   2.818  62.577  0.0007  0.1504  0.0458
12884TIP3    H260144   1.126   2.778  62.638  0.2152 -0.8547 -0.1143
12885TIP3   OH260145   1.882   3.168  65.902  0.0874  0.4360  0.5762
12885TIP3    H160146   1.961   3.142  65.949  0.9348 -0.0264 -1.0329
12885TIP3    H260147   1.831   3.218  65.966  1.2506 -0.0295  1.9133
12886TIP3   OH260148   2.759   1.805   5.884 -0.0208  0.0759  0.2656
12886TIP3    H160149   2.695   1.736   5.862 -1.7792  1.3150  1.2157
12886TIP3    H260150   2.831   1.791   5.822 -1.1667 -1.4368 -0.8262
12887TIP3   OH260151   0.553   1.165  16.606  0.2149 -0.0561  0.2682
12887TIP3    H160152   0.587   1.179  16.517  0.1583 -1.8049 -0.0737
12887TIP3    H260153   0.460   1.186  16.600  0.3425  0.4620  0.0828
12888TIP3   OH260154   3.148   0.535  29.657 -0.3198 -0.3220 -0.2274
12888TIP3    H160155   3.146   0.440  29.644  0.7236 -0.2463 -1.0242
12888TIP3    H260156   3.134   0.572  29.570  1.9155  0.2218 -0.4133
12889TIP3   OH260157   1.851   3.064   3.981 -0.4427 -0.2738  0.1558
12889TIP3    H160158   1.903   3.126   3.929  0.4790 -1.1362  0.0221
12889TIP3    H260159   1.785   3.031   3.921  0.4259 -1.0381 -0.4005
12890TIP3   OH260160   2.763   1.057  29.698 -0.4520 -0.0312  0.4157
12890TIP3    H160161   2.818   0.996  29.649  0.2721 -0.0959  1.2907
12890TIP3    H260162   2.739   1.009  29.777  0.5705  0.9823  1.3731
12891TIP3   OH260163   2.497   0.956  63.851 -0.0986  0.1229  0.5404
12891TIP3    H160164   2.444   0.939  63.774  0.2148 -1.1340  0.5791
12891TIP3    H260165   2.565   1.016  63.821 -0.6858  0.5958  0.1447
12892TIP3   OH260166   3.415   1.597   5.033  0.4036  0.3683 -0.2207
12892TIP3    H160167   3.409   1.685   4.997 -0.0920  0.7171  0.6894
12892TIP3    H260168   3.385   1.605   5.123 -1.1721 -0.9895 -0.5523
12893TIP3   OH260169   0.785   1.581  53.171 -0.4053 -0.0087  0.3475
12893TIP3    H160170   0.792   1.510  53.235  1.8598  1.0742  1.3832
12893TIP3    H260171   0.788   1.537  53.086 -0.1816 -1.2349  0.9755
12894TIP3   OH260172   0.756   1.541  66.730 -0.7562 -0.0642 -0.0957
12894TIP3    H160173   0.806   1.543  66.649  0.3297 -0.4757  0.5496
12894TIP3    H260174   0.697   1.616  66.724 -0.3314  0.2024 -1.0380
12895TIP3   OH260175   0.714   3.340  51.923 -0.0834  0.4526 -0.3370
12895TIP3    H160176   0.708   3.365  51.831 -0.3250 -0.8913 -0.6934
12895TIP3    H260177   0.800   3.373  51.950 -1.0284  3.1749 -0.2832
12896TIP3   OH260178   2.346   2.413  21.314  0.5435 -0.6949 -0.6635
12896TIP3    H160179   2.431   2.453  21.330 -0.1488  0.0958  1.3688
12896TIP3    H260180   2.333   2.354  21.388 -1.5358  0.7864  0.2526
12897TIP3   OH260181   0.822   3.115  55.102  0.0763  0.7337  0.1220
12897TIP3    H160182   0.874   3.035  55.093 -0.7127  0.1430  0.7036
12897TIP3    H260183   0.794   3.116  55.193 -1.1689  0.8811 -0.2460
12898TIP3   OH260184   2.016   0.356  20.126 -0.1346 -0.2970 -0.4191
12898TIP3    H160185   1.935   0.305  20.136  0.2657 -1.1537 -1.3208
12898TIP3    H260186   1.988   0.447  20.135 -0.5542 -0.6589  3.3895
12899TIP3   OH260187   0.143   2.111  44.006  0.0288  0.3086 -0.2479
12899TIP3    H160188   0.149   2.023  43.968  0.6308  0.0216  0.4880
12899TIP3    H260189   0.223   2.120  44.058  0.7769  1.9013 -1.5714
12900TIP3   OH260190   1.636   2.054   2.067  0.1181 -0.0298  0.4296
12900TIP3    H160191   1.669   2.034   1.980  0.3143 -1.2148  0.7638
12900TIP3    H260192   1.557   2.106   2.052 -2.0135 -3.3071 -0.6094
12901TIP3   OH260193   3.043   1.445  11.965  0.1501  0.0104 -0.4737
12901TIP3    H160194   2.996   1.522  11.999 -0.2890  0.3358 -1.7605
12901TIP3    H260195   2.978   1.375  11.964 -0.6779  0.7045 -3.1663
12902TIP3   OH260196   2.928   0.537  61.210  0.4709 -0.2246 -0.2005
12902TIP3    H160197   2.918   0.614  61.266 -0.5761 -1.8813  2.0262
12902TIP3    H260198   2.858   0.477  61.237  1.6785 -2.2690 -1.3094
12903TIP3   OH260199   0.117   3.054   9.149 -0.2142 -0.7181  0.1338
12903TIP3    H160200   0.152   3.050   9.238 -1.3290 -1.1273  0.5685
12903TIP3    H260201   0.107   3.148   9.132  0.4801 -0.6170  0.2361
12904TIP3   OH260202   1.285   2.850  43.044 -0.0322  0.2669  0.3919
12904TIP3    H160203   1.315   2.852  42.953 -0.0121 -0.0323  0.3915
12904TIP3    H260204   1.363   2.826  43.094 -0.2599 -0.4853  0.3947
12905TIP3   OH260205   3.159   2.314  50.616 -0.3982 -0.0099 -0.1117
12905TIP3    H160206   3.131   2.307  50.707  0.7664  1.6881  0.4305
12905TIP3    H260207   3.234   2.373  50.619  0.9334 -1.4958 -1.9417
12906TIP3   OH260208   3.310   0.150  11.387 -0.1224  0.0987 -0.0511
12906TIP3    H160209   3.382   0.095  11.417 -0.1286  0.7797  1.2571
12906TIP3    H260210   3.273   0.188  11.466 -0.5731  1.4287 -0.8528
12907TIP3   OH260211   0.253   3.280   2.807 -0.1179 -0.0718  0.2823
12907TIP3    H160212   0.232   3.192   2.776  0.6927  0.1797 -1.1122
12907TIP3    H260213   0.169   3.319   2.831 -0.6322 -0.7902 -0.3242
12908TIP3   OH260214   2.132   0.293  51.756  0.7645  0.2187 -0.3041
12908TIP3    H160215   2.171   0.289  51.843  0.0208 -0.1075  0.0239
12908TIP3    H260216   2.166   0.374  51.718 -0.2334  1.2551  0.9434
12909TIP3   OH260217   3.066   1.657   6.099 -0.0526  0.5022  0.1973
12909TIP3    H160218   2.987   1.620   6.060  0.7816 -1.1877  0.0239
12909TIP3    H260219   3.094   1.591   6.162 -0.8235  2.7060  3.0760
12910TIP3   OH260220   0.258   2.271  43.050 -0.0647 -0.2226  0.0118
12910TIP3    H160221   0.235   2.259  42.958  0.6628  2.3311 -0.5953
12910TIP3    H260222   0.315   2.196  43.070 -0.8194 -1.2173 -1.3743
12911TIP3   OH260223   1.672   1.760  21.589 -0.3350  0.5342  0.4070
12911TIP3    H160224   1.748   1.806  21.552  1.7356 -1.5406  1.7546
12911TIP3    H260225   1.600   1.822  21.581  1.6919  3.0006 -0.1365
12912TIP3   OH260226   1.027   0.709  58.278 -0.7579 -0.0317 -0.3675
12912TIP3    H160227   0.995   0.795  58.249 -2.4867 -0.3608  0.4871
12912TIP3    H260228   0.948   0.658  58.296  0.2495 -1.4967  0.0656
12913TIP3   OH260229   0.073   1.198  14.719 -0.0843  0.4043  0.2081
12913TIP3    H160230   0.044   1.289  14.729 -0.4343  0.3996 -0.6730
12913TIP3    H260231   0.106   1.193  14.629  1.8308  0.1669  0.8830
12914TIP3   OH260232   2.027   2.065   8.643 -0.0907 -0.1216  0.7746
12914TIP3    H160233   2.060   1.986   8.602  0.3436 -0.5598  1.9146
12914TIP3    H260234   1.932   2.053   8.647  0.0540 -1.0155  1.7765
12915TIP3   OH260235   1.226   2.248   5.492  0.3000 -0.2342  0.3491
12915TIP3    H160236   1.223   2.152   5.489 -0.5640 -0.2112 -0.3515
12915TIP3    H260237   1.316   2.269   5.514  1.0070 -1.1997 -1.4048
12916TIP3   OH260238   1.469   1.496  17.819  0.1508 -0.0725 -0.9317
12916TIP3    H160239   1.469   1.417  17.873 -0.0907  0.7218  0.2709
12916TIP3    H260240   1.377   1.521  17.813  0.2570  0.3136 -0.9955
12917TIP3   OH260241   1.143   1.873  49.786  0.1492 -0.4655  0.2338
12917TIP3    H160242   1.232   1.856  49.816  1.0027  2.2019 -0.4879
12917TIP3    H260243   1.154   1.928  49.708 -2.0717  1.7720  1.3359
12918TIP3   OH260244   0.864   0.153  60.386 -0.0755  0.1619  0.1608
12918TIP3    H160245   0.790   0.211  60.369  0.0857  0.5178  0.6631
12918TIP3    H260246   0.900   0.135  60.299 -0.2438  0.6621 -0.0166
12919TIP3   OH260247   2.759   0.124  61.790  0.0102  0.4037  0.0548
12919TIP3    H160248   2.710   0.158  61.865 -0.8119  1.4552 -0.9205
12919TIP3    H260249   2.696   0.125  61.718  0.9321 -0.0864 -0.7804
12920TIP3   OH260250   3.012   0.310  22.647  0.0439  0.1538  0.4288
12920TIP3    H160251   3.104   0.334  22.651 -0.2665  1.6579 -0.3323
12920TIP3    H260252   2.997   0.286  22.555 -0.1522 -0.8684  0.7204
12921TIP3   OH260253   3.232   0.457  22.615 -0.0003 -0.2362  0.0628
12921TIP3    H160254   3.306   0.474  22.673 -1.1129 -0.3949  1.5727
12921TIP3    H260255   3.218   0.539  22.568  0.2235  0.2396  0.8254
12922TIP3   OH260256   3.182   1.309  48.808 -0.0347  0.4495  0.0594
12922TIP3    H160257   3.218   1.241  48.865 -0.0422  1.5857  1.4547
12922TIP3    H260258   3.247   1.317  48.737 -0.1441 -1.1325 -0.2632
12923TIP3   OH260259   3.147   3.323  16.980  0.4465 -0.4806  0.3260
12923TIP3    H160260   3.198   3.306  16.900  1.9321 -1.1305  1.3558
12923TIP3    H260261   3.094   3.244  16.992 -4.2793  1.7581 -3.0421
12924TIP3   OH260262   0.989   1.238  20.424 -0.2336  0.6106 -0.0452
12924TIP3    H160263   1.015   1.210  20.336 -1.8595 -0.5202 -0.2095
12924TIP3    H260264   1.046   1.189  20.483  0.5659  1.0438 -0.4442
12925TIP3   OH260265   0.980   0.651  47.110  0.0703  0.7300 -0.7321
12925TIP3    H160266   1.063   0.604  47.106  0.4988  1.5369 -2.1662
12925TIP3    H260267   0.986   0.716  47.040 -1.8034  0.7728 -0.9107
12926TIP3   OH260268   2.399   1.937  57.523  0.0690 -0.1679 -0.3965
12926TIP3    H160269   2.455   1.942  57.600  2.4581 -0.5488 -2.0125
12926TIP3    H260270   2.459   1.926  57.450 -2.1652 -1.1287 -2.2183
12927TIP3   OH260271   0.912   1.755  52.310 -0.1332 -0.4983 -0.0360
12927TIP3    H160272   0.872   1.734  52.226 -0.2546 -1.0630  0.1568
12927TIP3    H260273   0.884   1.844  52.329 -0.5528 -0.5664 -0.3320
12928TIP3   OH260274   1.440   1.296   0.486 -1.0581  0.4109  0.5639
12928TIP3    H160275   1.533   1.283   0.506  0.5506  5.1685 -2.0125
12928TIP3    H260276   1.433   1.274   0.393 -1.9222  1.9016  0.2328
12929TIP3   OH260277   1.404   2.694  56.518  0.5114 -0.1897  0.1077
12929TIP3    H160278   1.376   2.688  56.426  0.3783 -3.2959  0.2671
12929TIP3    H260279   1.496   2.670  56.516  1.0096  1.5261  0.6396
12930TIP3   OH260280   1.582   0.266  45.842 -0.3448 -0.1574  0.7996
12930TIP3    H160281   1.614   0.353  45.817  1.2388 -0.8501  0.3345
12930TIP3    H260282   1.660   0.212  45.847 -1.4260 -1.9401 -0.4686
12931TIP3   OH260283   2.718   1.206  47.591 -0.2099  0.1832  0.7753
12931TIP3    H160284   2.679   1.205  47.504 -0.0067 -0.1238  0.6868
12931TIP3    H260285   2.675   1.279  47.636  0.5628  1.1125  0.0199
12932TIP3   OH260286   0.726   2.767  57.241  0.4519 -0.1181  0.1569
12932TIP3    H160287   0.645   2.808  57.211 -0.3176 -1.7445 -0.0811
12932TIP3    H260288   0.760   2.722  57.164 -0.4321 -2.5508  1.0771
12933TIP3   OH260289   0.034   3.336  54.758  0.3918  0.8802 -0.2272
12933TIP3    H160290   0.067   3.258  54.803  1.6618  0.8181 -1.2259
12933TIP3    H260291   0.006   3.304  54.672  0.6619  1.4661 -0.5399
12934TIP3   OH260292   1.798   0.331  55.157 -0.1399 -0.5096  0.4578
12934TIP3    H160293   1.827   0.399  55.217  2.6043 -0.2787 -0.9406
12934TIP3    H260294   1.794   0.251  55.210  0.6553 -0.0179  1.2843
12935TIP3   OH260295   0.214   3.081  57.745  0.0908 -0.0241 -0.7013
12935TIP3    H160296   0.174   3.167  57.727 -0.0692  0.2414  0.7775
12935TIP3    H260297   0.294   3.081  57.693 -0.1177  0.8593 -1.0504
12936TIP3   OH260298   0.159   2.590  55.398 -0.2484  0.3221  0.2700
12936TIP3    H160299   0.155   2.669  55.451 -0.6990  0.9171 -0.6351
12936TIP3    H260300   0.071   2.578  55.364 -0.0867 -0.3325  0.0534
12937TIP3   OH260301   2.660   2.400  64.167  0.1652  0.4415 -0.9228
12937TIP3    H160302   2.611   2.362  64.094  0.4991  1.2189 -1.5682
12937TIP3    H260303   2.675   2.491  64.140  0.5309  0.6594  0.0033
12938TIP3   OH260304   3.144   2.596  54.442  0.3304  0.5930 -0.1325
12938TIP3    H160305   3.154   2.506  54.474  2.8060  0.9964  0.3905
12938TIP3    H260306   3.080   2.635  54.502  0.2362 -0.4251  0.4540
12939TIP3   OH260307   1.578   1.636  53.923  0.0179 -0.4079  0.1771
12939TIP3    H160308   1.658   1.671  53.963  0.5265  0.8343 -1.7931
12939TIP3    H260309   1.602   1.622  53.832 -1.7641 -0.9320 -0.2429
12940TIP3   OH260310   2.982   2.577  49.513  0.1683 -0.1505  0.5155
12940TIP3    H160311   2.924   2.502  49.500 -2.3043  1.9640 -2.0162
12940TIP3    H260312   2.938   2.630  49.578 -0.8002  1.3889 -1.2966
12941TIP3   OH260313   3.190   2.727  59.079  0.7087 -0.0588  0.1135
12941TIP3    H160314   3.142   2.677  59.013  0.2562  0.7744 -0.1973
12941TIP3    H260315   3.165   2.818  59.064 -1.5327 -0.0369  3.0839
12942TIP3   OH260316   0.037   1.194  14.989  0.3065 -0.1297 -0.3359
12942TIP3    H160317  -0.058   1.205  14.995  0.2261 -1.1629  0.6282
12942TIP3    H260318   0.056   1.195  14.895 -0.4495  1.5590 -0.4972
12943TIP3   OH260319   0.051   0.512  10.945 -0.5915  0.1863  0.1798
12943TIP3    H160320   0.070   0.455  10.870 -0.4580 -3.1237  2.4970
12943TIP3    H260321   0.134   0.557  10.962 -0.5853  0.8852 -1.4966
12944TIP3   OH260322   2.266   2.819  13.926  0.6651  0.8407 -0.3939
12944TIP3    H160323   2.247   2.807  13.833  3.3830 -1.1283 -0.8108
12944TIP3    H260324   2.354   2.856  13.928  2.2928 -2.6341  1.2816
12945TIP3   OH260325   1.634   3.024  67.480  0.3170  0.1673 -0.2377
12945TIP3    H160326   1.672   2.977  67.406  0.9279 -1.7444  1.2019
12945TIP3    H260327   1.542   2.998  67.481  0.5761 -0.8302  0.3453
12946TIP3   OH260328   1.212   1.354  59.186  0.4236 -0.1568 -0.1516
12946TIP3    H160329   1.172   1.436  59.156 -0.2925 -0.5276 -0.2488
12946TIP3    H260330   1.221   1.365  59.281  1.2824  0.4258 -0.2881
12947TIP3   OH260331   3.042   0.539  62.158  0.0802  0.7435  0.1690
12947TIP3    H160332   3.062   0.630  62.178 -0.6298  0.6164  1.5853
12947TIP3    H260333   3.099   0.489  62.216 -1.6886  0.3558  1.6952
12948TIP3   OH260334   1.845   0.214  11.631  0.8098 -0.0884  0.8663
12948TIP3    H160335   1.805   0.265  11.561  0.7078 -0.9950  0.2357
12948TIP3    H260336   1.935   0.246  11.636  0.3618  1.1188  1.4607
12949TIP3   OH260337   0.761   3.171   9.564  0.0183  0.1303 -0.3211
12949TIP3    H160338   0.773   3.082   9.596 -0.0864  0.0265 -0.5762
12949TIP3    H260339   0.847   3.196   9.530  0.9421  1.2278  2.5053
12950TIP3   OH260340   0.431   2.461  50.100  0.0786 -0.0606  0.7414
12950TIP3    H160341   0.361   2.482  50.039  0.7229 -0.2261 -0.0849
12950TIP3    H260342   0.387   2.421  50.174 -0.6272 -1.0222 -0.1575
12951TIP3   OH260343   1.902   1.746   0.379  0.2598 -0.5848 -0.0782
12951TIP3    H160344   1.885   1.652   0.373 -0.0534 -0.5127 -0.3305
12951TIP3    H260345   1.875   1.781   0.294 -2.6451  0.2159  1.0684
12952TIP3   OH260346   1.533   3.320  17.739  0.4662 -0.3216 -0.0268
12952TIP3    H160347   1.581   3.276  17.668 -0.1425 -0.6502 -0.2459
12952TIP3    H260348   1.503   3.249  17.795 -0.4246 -0.1916 -0.3202
12953TIP3   OH260349   1.593   0.825  20.933 -0.5243 -0.2350  0.7603
12953TIP3    H160350   1.538   0.799  21.007 -1.1851 -1.0154  0.0043
12953TIP3    H260351   1.536   0.821  20.857  0.1637  0.5069  0.1839
12954TIP3   OH260352   2.283   1.674   7.715  0.5009  0.2371  0.2422
12954TIP3    H160353   2.245   1.659   7.801 -0.0175  0.0127 -0.0182
12954TIP3    H260354   2.208   1.668   7.655  0.2836  3.2451  0.0329
12955TIP3   OH260355   2.859   2.230  14.790  0.6809 -0.2905  0.1399
12955TIP3    H160356   2.898   2.145  14.767  0.7955 -0.5424  1.2207
12955TIP3    H260357   2.907   2.258  14.867  0.5409  0.7017 -0.1237
12956TIP3   OH260358   1.460   3.053  67.190  0.4991 -0.6647  0.3638
12956TIP3    H160359   1.405   3.025  67.264 -0.3947 -0.9273 -0.3804
12956TIP3    H260360   1.459   2.979  67.130 -1.4764  0.7151 -1.4145
12957TIP3   OH260361   2.504   1.654  53.406  0.3739  0.4082 -1.1013
12957TIP3    H160362   2.551   1.605  53.339  1.2095  0.1760 -0.3646
12957TIP3    H260363   2.414   1.658  53.374  0.4618 -0.9097 -1.5577
12958TIP3   OH260364   0.264   2.020   5.719 -0.7682  0.1298 -0.1203
12958TIP3    H160365   0.295   2.106   5.747 -0.2615  0.2435 -1.0015
12958TIP3    H260366   0.230   2.034   5.631 -0.8228 -0.5475 -0.2150
12959TIP3   OH260367   0.015   0.195  19.205  0.3623  0.5149 -0.2469
12959TIP3    H160368   0.076   0.253  19.159  1.2416 -1.8775 -2.3213
12959TIP3    H260369  -0.065   0.198  19.153 -0.0042  0.7450  0.3199
12960TIP3   OH260370   3.030   0.363   6.686  0.1900  0.7473  0.0809
12960TIP3    H160371   3.112   0.337   6.644 -0.0828  0.2992 -0.1887
12960TIP3    H260372   3.026   0.458   6.677  0.3184  0.6925 -0.5672
12961TIP3   OH260373   3.065   0.379  21.126 -0.5030 -0.6204  0.1449
12961TIP3    H160374   3.074   0.369  21.031 -1.6926 -0.2978 -0.0186
12961TIP3    H260375   3.072   0.473  21.142 -1.2015 -0.5764  0.2533
12962TIP3   OH260376   2.207   1.392  50.474  0.0146 -0.3100 -0.4048
12962TIP3    H160377   2.279   1.362  50.529  0.3970 -0.0758 -0.7766
12962TIP3    H260378   2.215   1.340  50.393  0.5285  0.5968 -0.9491
12963TIP3   OH260379   1.827   1.257  45.384 -0.2129 -0.2071 -0.6998
12963TIP3    H160380   1.867   1.263  45.470  0.0451  1.0650 -0.8941
12963TIP3    H260381   1.895   1.288  45.324 -0.2571 -1.4174 -1.4166
12964TIP3   OH260382   0.695   2.956  49.540  0.5730 -0.7844 -0.0187
12964TIP3    H160383   0.671   2.883  49.484  1.9612  0.1416 -1.9062
12964TIP3    H260384   0.612   2.985  49.578 -0.2580 -2.0633 -0.7715
12965TIP3   OH260385   3.115   3.224  45.660 -0.2747 -0.2943 -0.3571
12965TIP3    H160386   3.123   3.212  45.755 -0.6817 -0.5824 -0.3551
12965TIP3    H260387   3.158   3.147  45.623  3.2975  1.5991 -0.5214
12966TIP3   OH260388   2.382   3.237  19.985 -0.1638 -0.1972 -0.7822
12966TIP3    H160389   2.430   3.269  19.909 -0.0676  0.1875 -0.5615
12966TIP3    H260390   2.342   3.315  20.023  0.1597 -0.3174 -0.1829
12967TIP3   OH260391   2.028   2.122  10.293 -0.0992 -0.7797 -0.2803
12967TIP3    H160392   1.984   2.208  10.293 -0.3153 -0.8557  1.3157
12967TIP3    H260393   1.996   2.079  10.214 -0.0455  0.5775 -1.0821
12968TIP3   OH260394   1.430   3.324  67.045 -0.1029 -0.0347  0.0735
12968TIP3    H160395   1.351   3.319  66.991  0.0849  0.9178 -0.3147
12968TIP3    H260396   1.424   3.248  67.103  0.0297 -1.5287 -1.7419
12969TIP3   OH260397   3.447   1.305  51.687  0.2303  0.0794  0.1948
12969TIP3    H160398   3.414   1.216  51.689 -1.3164  0.6253  0.2036
12969TIP3    H260399   3.438   1.335  51.778  1.0727  0.1357  0.2612
12970TIP3   OH260400   3.237   3.212  14.152 -0.0966 -0.3103 -0.0722
12970TIP3    H160401   3.248   3.302  14.124  0.8264 -0.3393  0.1824
12970TIP3    H260402   3.317   3.191  14.201  0.3654 -1.7224 -1.3666
12971TIP3   OH260403   3.045   3.202  52.787  0.0533  0.3747 -0.5732
12971TIP3    H160404   3.093   3.143  52.728 -1.4654 -0.7516 -0.7320
12971TIP3    H260405   3.013   3.272  52.730 -0.9540 -0.4269 -1.0094
12972TIP3   OH260406   2.953   3.137   8.193 -0.1116  0.2065 -0.2534
12972TIP3    H160407   2.858   3.127   8.193 -0.1123 -0.1571 -2.1575
12972TIP3    H260408   2.970   3.207   8.131  0.8785 -0.0428 -0.2765
12973TIP3   OH260409   1.070   0.407  20.167 -0.5261 -0.5160 -0.0139
12973TIP3    H160410   1.008   0.393  20.095 -1.1222 -0.4181  0.4738
12973TIP3    H260411   1.015   0.421  20.244  0.0927  0.8336  0.1988
12974TIP3   OH260412   2.499   1.772  65.846 -0.1548 -0.9191 -0.2702
12974TIP3    H160413   2.563   1.729  65.903 -0.2026  0.4108  0.8324
12974TIP3    H260414   2.548   1.842  65.803 -0.4250 -1.1124 -0.9183
12975TIP3   OH260415   1.275   0.181  19.547 -0.2173 -0.4084 -1.1516
12975TIP3    H160416   1.312   0.201  19.462 -1.0000  0.4937 -1.3077
12975TIP3    H260417   1.350   0.180  19.607  0.2622 -0.4694 -1.7466
12976TIP3   OH260418   0.762   0.934  60.255 -0.3602 -0.0395 -0.1009
12976TIP3    H160419   0.856   0.917  60.252 -0.3174  0.3253 -1.7151
12976TIP3    H260420   0.750   1.012  60.201 -1.4727  0.5473  0.9649
12977TIP3   OH260421   1.429   1.063  61.029 -0.6176 -0.0163 -0.1905
12977TIP3    H160422   1.437   1.060  61.125  0.5583  0.9319 -0.2380
12977TIP3    H260423   1.337   1.079  61.013 -0.8191 -0.1099  0.7851
12978TIP3   OH260424   2.240   2.883  59.535 -0.1599 -0.9259 -0.0502
12978TIP3    H160425   2.222   2.948  59.603  1.1117 -1.1264  0.5072
12978TIP3    H260426   2.232   2.932  59.453  1.4790  0.1531  0.3845
12979TIP3   OH260427   1.777   0.963  66.503  0.0574 -0.2282 -0.1071
12979TIP3    H160428   1.766   1.055  66.479  1.2310 -0.1366 -0.3410
12979TIP3    H260429   1.713   0.949  66.572  0.0411  0.8425  0.1198
12980TIP3   OH260430   0.503   1.756  56.421  0.3974 -0.2162  0.0201
12980TIP3    H160431   0.414   1.742  56.450  0.0383 -1.1153 -1.4122
12980TIP3    H260432   0.505   1.847  56.391 -0.6408 -0.7510 -1.8215
12981TIP3   OH260433   3.071   1.368  18.883  0.3922 -0.3867 -0.5181
12981TIP3    H160434   3.012   1.324  18.945 -0.2759  2.3097  0.9417
12981TIP3    H260435   3.084   1.455  18.921  2.3464  0.3841 -2.7411
12982TIP3   OH260436   3.210   1.117  56.772 -0.4756 -0.5039 -0.3769
12982TIP3    H160437   3.151   1.074  56.711 -0.7459 -0.0884 -0.4127
12982TIP3    H260438   3.169   1.103  56.858 -1.0548  0.4464 -0.4750
12983TIP3   OH260439   1.638   3.030  21.354 -0.1305 -0.1703  0.3643
12983TIP3    H160440   1.594   3.111  21.378  0.2262  0.2029 -0.1864
12983TIP3    H260441   1.586   2.995  21.282 -0.5261 -0.6534  0.8902
12984TIP3   OH260442   3.220   0.444  43.899  0.3605  0.6154  0.1209
12984TIP3    H160443   3.136   0.491  43.905 -0.0382  0.0741 -0.9228
12984TIP3    H260444   3.240   0.444  43.806  1.7191  1.0484  0.3995
12985TIP3   OH260445   2.865   1.620  10.933  0.3903  0.0762  0.5595
12985TIP3    H160446   2.958   1.601  10.948  0.0614 -1.4015  0.9464
12985TIP3    H260447   2.820   1.581  11.008 -0.4001  2.8557  1.6569
12986TIP3   OH260448   1.816   3.393  61.412  0.7737  0.1790  0.3932
12986TIP3    H160449   1.910   3.375  61.416  0.6245 -0.7745 -0.0748
12986TIP3    H260450   1.809   3.474  61.362  1.3246  0.1168  0.2102
12987TIP3   OH260451   1.233   1.687  57.415  0.7865 -0.8609  0.5060
12987TIP3    H160452   1.286   1.763  57.440  0.2813 -0.3711  0.1361
12987TIP3    H260453   1.295   1.627  57.374  0.9765 -0.0129 -0.5224
12988TIP3   OH260454   3.115   0.113  60.370  0.0882  0.1689 -0.0366
12988TIP3    H160455   3.197   0.096  60.325  0.0613  0.3853 -0.1706
12988TIP3    H260456   3.141   0.146  60.457  0.1402 -0.1103  0.0537
12989TIP3   OH260457   2.633   0.905  50.652 -0.3224  0.2650  0.1414
12989TIP3    H160458   2.610   0.997  50.667 -1.8881  0.2853 -1.8979
12989TIP3    H260459   2.553   0.857  50.671  0.4628 -0.7119  1.1222
12990TIP3   OH260460   1.365   2.662   1.471  0.3870 -0.2273 -0.2701
12990TIP3    H160461   1.375   2.705   1.556 -0.5500 -1.1752  0.3414
12990TIP3    H260462   1.271   2.662   1.455  0.3797 -1.8026 -0.3660
12991TIP3   OH260463   0.721   2.768  55.117  0.5468  0.1049 -0.0298
12991TIP3    H160464   0.667   2.722  55.053 -0.3709 -0.0341  0.8142
12991TIP3    H260465   0.811   2.750  55.090  0.1961 -1.1442 -0.4525
12992TIP3   OH260466   1.985   1.031  62.503 -0.4406  0.1443  0.4713
12992TIP3    H160467   1.929   1.101  62.470  0.4511 -0.2153 -1.9739
12992TIP3    H260468   2.074   1.065  62.495 -0.0647 -0.8396  0.3172
12993TIP3   OH260469   2.349   0.872  50.329 -0.1489 -0.0715 -0.6478
12993TIP3    H160470   2.328   0.806  50.395  1.0776 -0.0485 -0.2058
12993TIP3    H260471   2.328   0.831  50.245  0.4921 -1.0049 -0.3723
12994TIP3   OH260472   0.947   0.567  18.779 -0.2650 -0.0833 -0.0057
12994TIP3    H160473   0.882   0.560  18.849 -0.6737 -1.9255 -0.5288
12994TIP3    H260474   0.946   0.482  18.736  0.6321  0.7057 -1.6949
12995TIP3   OH260475   0.126   1.990  50.998  0.2840  0.0757 -0.1377
12995TIP3    H160476   0.039   1.985  51.038 -0.2668  0.2665 -1.2670
12995TIP3    H260477   0.170   2.060  51.047 -0.1981 -0.0062  0.4334
12996TIP3   OH260478   1.492   2.434  19.003 -0.3783  0.3815 -0.0963
12996TIP3    H160479   1.486   2.358  18.944 -0.9739 -0.4035  0.9396
12996TIP3    H260480   1.481   2.397  19.090  1.7129  1.3207  0.6517
12997TIP3   OH260481   2.854   3.051  54.025 -0.0068  0.1379 -0.5162
12997TIP3    H160482   2.818   3.112  54.089 -0.6127 -1.2608  0.5243
12997TIP3    H260483   2.945   3.079  54.013 -0.3029  1.2908 -0.1582
12998TIP3   OH260484   0.864   3.087  44.354  0.3633  0.5060  0.3857
12998TIP3    H160485   0.847   3.181  44.362  0.5872  0.4735  1.3235
12998TIP3    H260486   0.906   3.063  44.436 -2.6858 -1.0693  1.6250
12999TIP3   OH260487   0.767   2.424  50.570 -0.0525 -0.4562 -0.1167
12999TIP3    H160488   0.768   2.435  50.665 -1.3718 -1.8732  0.0973
12999TIP3    H260489   0.681   2.459  50.543 -1.0058 -2.8416 -0.3691
13000TIP3   OH260490   2.714   0.422  28.229  0.3373 -0.3657 -0.5457
13000TIP3    H160491   2.669   0.392  28.309  0.3033  0.0144 -0.4220
13000TIP3    H260492   2.757   0.343  28.195 -0.1353 -0.6569 -0.4748
13001TIP3   OH260493   0.842   2.522  63.038 -0.2763 -0.1619  0.1248
13001TIP3    H160494   0.823   2.613  63.016  1.2405  0.3860  0.9407
13001TIP3    H260495   0.758   2.487  63.068 -0.6680  1.2591  0.7834
13002TIP3   OH260496   1.381   1.826  43.522 -0.4916 -0.1167 -0.0668
13002TIP3    H160497   1.297   1.872  43.531 -0.6784 -0.5540  0.5176
13002TIP3    H260498   1.438   1.869  43.586 -0.3749 -0.0501 -0.2149
13003TIP3   OH260499   3.190   1.134  54.192  0.5056 -0.1739  0.1304
13003TIP3    H160500   3.123   1.130  54.123  1.5726 -1.0223 -0.8935
13003TIP3    H260501   3.175   1.219  54.234 -1.4444 -0.5024  0.1961
13004TIP3   OH260502   1.042   1.185  34.404 -0.8496 -0.1323  0.1072
13004TIP3    H160503   0.974   1.203  34.339 -1.0949  1.7592  0.8131
13004TIP3    H260504   1.093   1.114  34.366 -0.4050  1.4801 -2.6348
13005TIP3   OH260505   1.725   0.538   1.792 -0.3109 -0.4889 -0.2958
13005TIP3    H160506   1.817   0.554   1.772 -0.4747 -0.0331 -0.6918
13005TIP3    H260507   1.683   0.525   1.707 -0.6093 -0.6945 -0.1186
13006TIP3   OH260508   0.948   0.682  61.149  0.2202 -0.1310 -0.0766
13006TIP3    H160509   0.855   0.692  61.129  0.6251  0.5589 -1.8828
13006TIP3    H260510   0.980   0.622  61.082  0.6970 -2.1838  1.8846
13007TIP3   OH260511   1.046   3.042   7.136  0.7901  0.2529  0.2248
13007TIP3    H160512   1.130   3.073   7.101  0.3384  0.2047 -0.9585
13007TIP3    H260513   0.988   3.039   7.060 -0.5347  1.0638  1.1608
13008TIP3   OH260514   0.654   1.607  43.627 -0.4082 -0.1894  0.3985
13008TIP3    H160515   0.583   1.626  43.688  1.2502 -0.3528  2.4834
13008TIP3    H260516   0.734   1.623  43.677  1.0628 -3.0381 -0.7983
13009TIP3   OH260517   0.811   1.908  49.064 -0.5044  0.4225  0.2337
13009TIP3    H160518   0.791   2.001  49.061  0.2058  0.5932  0.4628
13009TIP3    H260519   0.889   1.902  49.120  0.8618 -0.0502 -1.6325
13010TIP3   OH260520   3.243   2.745  14.815 -0.2995 -0.0826  0.9426
13010TIP3    H160521   3.212   2.675  14.872  1.5034 -0.0979  1.9777
13010TIP3    H260522   3.305   2.702  14.756 -2.4046 -0.1466 -1.3852
13011TIP3   OH260523   2.198   2.969  46.208  0.2413 -0.6265 -0.2996
13011TIP3    H160524   2.210   3.045  46.151 -0.0544 -1.1884 -1.1332
13011TIP3    H260525   2.243   2.898  46.163  1.1669 -0.8033  0.8394
13012TIP3   OH260526   2.435   1.527  51.031  0.1907  0.3579 -0.2977
13012TIP3    H160527   2.455   1.618  51.054  1.8257 -0.4775  1.9713
13012TIP3    H260528   2.386   1.493  51.106 -1.1668 -0.4378 -1.4933
13013TIP3   OH260529   1.050   1.516  12.704 -0.1628 -0.3867  0.0675
13013TIP3    H160530   1.017   1.560  12.626  0.1837  0.8981  0.6104
13013TIP3    H260531   1.134   1.479  12.677 -0.7050 -1.2113 -0.5400
13014TIP3   OH260532   0.026   1.796  65.219  0.1863  0.1671  0.2189
13014TIP3    H160533   0.013   1.754  65.304 -1.8709 -0.3831 -0.3187
13014TIP3    H260534   0.121   1.795  65.206  0.4486 -0.8621  1.9474
13015TIP3   OH260535   2.748   1.515  13.837 -0.2438  0.3994 -0.0304
13015TIP3    H160536   2.820   1.465  13.798 -1.1957  0.9259 -2.6367
13015TIP3    H260537   2.718   1.460  13.909  2.2631 -0.1665  0.6985
13016TIP3   OH260538   2.699   2.238  61.228  0.0717 -0.2117 -0.5544
13016TIP3    H160539   2.699   2.247  61.133  0.4671 -1.0634 -0.6440
13016TIP3    H260540   2.626   2.178  61.246 -1.4956  1.7339 -0.1084
13017TIP3   OH260541   2.739   2.608  63.107  0.3638 -0.1420  0.1746
13017TIP3    H160542   2.726   2.689  63.157 -0.4865 -1.4274  2.1755
13017TIP3    H260543   2.650   2.574  63.093  0.6330 -0.2183 -1.6135
13018TIP3   OH260544   1.442   0.921  18.003  0.0584 -0.0628  0.0166
13018TIP3    H160545   1.538   0.921  18.000  0.0677  0.3637  0.2322
13018TIP3    H260546   1.416   0.856  17.938  0.5042 -0.8187  0.5858
13019TIP3   OH260547   0.842   1.545  15.030  0.7238 -0.2785 -0.0423
13019TIP3    H160548   0.877   1.484  15.094  1.0481 -0.6398 -0.5511
13019TIP3    H260549   0.861   1.504  14.945 -0.8072 -0.4065 -0.3454
13020TIP3   OH260550   0.863   2.889  63.675 -0.3725 -0.5150  0.0948
13020TIP3    H160551   0.951   2.852  63.667 -0.6429 -1.7480  1.9729
13020TIP3    H260552   0.868   2.946  63.752 -1.2373 -0.6940  0.2969
13021TIP3   OH260553   0.577   3.101  20.512 -0.0733  0.1947  0.6174
13021TIP3    H160554   0.490   3.130  20.536 -0.2013 -0.2232  0.6747
13021TIP3    H260555   0.595   3.142  20.428 -0.2899  0.3494  0.6471
13022TIP3   OH260556   0.097   0.824  64.996 -0.1130 -0.4603 -0.2499
13022TIP3    H160557   0.112   0.800  64.905  0.6630 -0.3888 -0.1460
13022TIP3    H260558   0.037   0.899  64.991  1.9321  1.2537 -0.8668
13023TIP3   OH260559   1.786   0.238  10.328 -0.3360  0.0938 -0.5003
13023TIP3    H160560   1.859   0.184  10.295 -0.7995  0.3058 -1.9649
13023TIP3    H260561   1.826   0.294  10.394  0.4153 -1.1669  0.1581
13024TIP3   OH260562   2.443   3.267  11.557 -0.0405  0.0758 -0.6564
13024TIP3    H160563   2.489   3.204  11.612  0.1831  1.9222  1.4354
13024TIP3    H260564   2.355   3.271  11.593 -0.8216 -0.7988 -2.3616
13025TIP3   OH260565   3.317   2.250   7.708  0.2161 -0.0511  0.7176
13025TIP3    H160566   3.253   2.181   7.727 -0.9905  1.0333  0.7850
13025TIP3    H260567   3.273   2.304   7.642  2.0705 -0.6182 -1.0663
13026TIP3   OH260568   3.447   0.830  17.576  0.2922  0.0747 -0.1626
13026TIP3    H160569   3.518   0.844  17.638  0.2198  1.4236 -0.3563
13026TIP3    H260570   3.435   0.735  17.574  2.6447 -0.2674 -0.7516
13027TIP3   OH260571   2.769   0.214   4.600  0.2132  0.2789 -0.3900
13027TIP3    H160572   2.726   0.295   4.626 -0.6406 -0.0379 -0.7675
13027TIP3    H260573   2.863   0.233   4.605  0.1406  0.3275  2.6266
13028TIP3   OH260574   2.819   1.103  63.519  0.5049 -0.0703  0.1559
13028TIP3    H160575   2.820   1.198  63.534 -1.6910 -0.0111  0.2110
13028TIP3    H260576   2.839   1.093  63.426  0.1701  0.4914  0.0197
13029TIP3   OH260577   0.739   2.293   6.168  0.4959  0.3335  0.2585
13029TIP3    H160578   0.644   2.280   6.158  0.6489 -1.7476  0.9912
13029TIP3    H260579   0.775   2.269   6.082  0.5320 -1.3987  0.7318
13030TIP3   OH260580   2.177   0.904  12.858  0.2917 -0.6134 -0.0793
13030TIP3    H160581   2.194   0.906  12.763  0.9658  1.7153  0.0170
13030TIP3    H260582   2.132   0.821  12.872  2.2368 -2.1385 -2.0573
13031TIP3   OH260583   1.155   0.102  39.601 -0.1069  0.7482 -0.4046
13031TIP3    H160584   1.182   0.193  39.587  0.3239  0.3406 -2.5152
13031TIP3    H260585   1.152   0.064  39.514 -0.2488 -1.2914  0.4336
13032TIP3   OH260586   1.800   3.288  11.933 -0.0700  0.2170 -0.6481
13032TIP3    H160587   1.717   3.248  11.960  0.3657  0.7508  1.6841
13032TIP3    H260588   1.778   3.380  11.918  0.0546  0.3335 -0.1444
13033TIP3   OH260589   1.368   2.371   1.824  0.5681  0.3979 -0.2027
13033TIP3    H160590   1.295   2.314   1.801  1.1921 -0.4701 -0.0929
13033TIP3    H260591   1.398   2.406   1.740 -0.5750  1.5397 -0.1610
13034TIP3   OH260592   2.176   1.828  50.561 -0.2876 -0.3815 -0.4077
13034TIP3    H160593   2.096   1.834  50.613 -0.7035 -0.7985 -0.9879
13034TIP3    H260594   2.206   1.919  50.553 -0.4385 -0.2694  0.2043
13035TIP3   OH260595   1.268   0.954  59.310  0.7446  0.1712  0.7289
13035TIP3    H160596   1.197   1.008  59.274 -0.8495 -1.4602  1.2578
13035TIP3    H260597   1.345   0.979  59.260 -0.3815  1.4456 -0.4417
13036TIP3   OH260598   1.235   1.860  52.514  0.3599  0.2836  0.0330
13036TIP3    H160599   1.248   1.824  52.427 -0.0260 -0.8787  0.4402
13036TIP3    H260600   1.307   1.824  52.566 -0.8596 -1.1454  0.8055
13037TIP3   OH260601   0.400   0.251  67.451  0.0256  0.2448 -0.2063
13037TIP3    H160602   0.480   0.256  67.504  0.0810  0.0114 -0.2656
13037TIP3    H260603   0.332   0.286  67.508  0.2864  1.0817 -0.4023
13038TIP3   OH260604   3.428   1.255  12.472  0.3197 -0.2099 -0.1075
13038TIP3    H160605   3.345   1.293  12.442 -1.1195 -2.3417  0.9012
13038TIP3    H260606   3.403   1.172  12.511  3.0859 -1.4287 -0.6921
13039TIP3   OH260607   0.288   0.932   2.559 -0.2380 -0.1182  0.3113
13039TIP3    H160608   0.220   0.955   2.496  0.1802  0.2156 -0.0261
13039TIP3    H260609   0.343   0.868   2.513  0.2826  0.3993  0.1880
13040TIP3   OH260610   1.781   0.018  12.613  0.4833 -0.2394 -0.1863
13040TIP3    H160611   1.686   0.016  12.627  0.1290 -1.3030 -2.4077
13040TIP3    H260612   1.808   0.103  12.648 -1.5063  0.6844 -0.7555
13041TIP3   OH260613   0.931   1.883  10.740 -0.0533 -0.1027 -0.0743
13041TIP3    H160614   0.844   1.844  10.730 -0.0984 -0.6908  2.0523
13041TIP3    H260615   0.913   1.974  10.765 -0.2204 -0.7618  2.5679
13042TIP3   OH260616   2.931   1.767  27.111 -0.0008 -0.4454 -0.4170
13042TIP3    H160617   3.009   1.728  27.071  0.1474 -1.1415  0.5114
13042TIP3    H260618   2.965   1.816  27.186 -0.1362  1.9134 -1.8284
13043TIP3   OH260619   0.352   2.258   5.806  0.2713  0.6269 -0.1104
13043TIP3    H160620   0.445   2.235   5.811 -0.2183 -1.5689 -0.0077
13043TIP3    H260621   0.339   2.322   5.876  1.6186  0.6808  0.1184
13044TIP3   OH260622   1.889   0.144  19.614 -0.6195  0.0504 -0.2867
13044TIP3    H160623   1.890   0.215  19.678  0.5606  1.1479 -1.4542
13044TIP3    H260624   1.845   0.181  19.538 -0.0358 -0.4810 -0.8956
13045TIP3   OH260625   1.262   0.459  59.370  0.1965  0.5394  0.5454
13045TIP3    H160626   1.311   0.535  59.402  0.2697  0.5561  0.3949
13045TIP3    H260627   1.230   0.485  59.284  1.5069 -0.1273 -0.1878
13046TIP3   OH260628   0.839   1.923  43.619  0.4670  0.4295  0.3507
13046TIP3    H160629   0.836   1.846  43.675  0.2216  0.9916  1.1250
13046TIP3    H260630   0.760   1.916  43.564 -0.0231  0.5626  1.0211
13047TIP3   OH260631   2.279   3.262  17.674  0.0464  0.5220 -0.4798
13047TIP3    H160632   2.317   3.346  17.648 -1.3572  1.6315  0.8713
13047TIP3    H260633   2.303   3.251  17.766 -0.1343 -0.3728 -0.5267
13048TIP3   OH260634   1.380   3.048   6.620  0.1402 -0.1438  0.2194
13048TIP3    H160635   1.419   3.099   6.549 -1.1114  1.0014  0.3050
13048TIP3    H260636   1.316   2.991   6.577 -0.3875  0.3202  0.3647
13049TIP3   OH260637   3.208   0.987   7.366 -0.0968 -0.0561 -0.1314
13049TIP3    H160638   3.230   1.023   7.452 -1.2026 -2.1801  1.1252
13049TIP3    H260639   3.269   0.913   7.355 -0.0958  0.0710 -1.0976
13050TIP3   OH260640   2.911   0.607  58.339 -0.0478  0.3409  0.1365
13050TIP3    H160641   2.982   0.565  58.387 -1.2243 -0.7998  0.9620
13050TIP3    H260642   2.907   0.695  58.375  2.3983  1.2295 -1.5388
13051TIP3   OH260643   2.196   1.618   1.550 -0.3806  0.0102 -0.0213
13051TIP3    H160644   2.130   1.688   1.552 -0.4325  0.0468 -1.8433
13051TIP3    H260645   2.256   1.640   1.621 -0.7736  1.5454 -0.1283
13052TIP3   OH260646   3.321   2.079   5.135 -0.1854  0.3885  0.3090
13052TIP3    H160647   3.243   2.135   5.141  0.0833  0.6116  2.2925
13052TIP3    H260648   3.391   2.139   5.109 -0.3687  0.4860  0.0310
13053TIP3   OH260649   2.809   2.609  15.989 -0.3040 -0.1042  0.5119
13053TIP3    H160650   2.808   2.675  15.920  0.1278  0.1078  0.7078
13053TIP3    H260651   2.752   2.644  16.057  0.1001  0.1681  0.7107
13054TIP3   OH260652   2.831   2.315  20.050  0.2908  0.0770 -0.5629
13054TIP3    H160653   2.740   2.294  20.071 -0.3248  0.4236 -2.6421
13054TIP3    H260654   2.844   2.403  20.084 -0.6640  0.6293 -1.5666
13055TIP3   OH260655   0.728   2.538  65.671 -0.1360 -0.0324 -0.2149
13055TIP3    H160656   0.669   2.585  65.730 -0.5809 -1.0794  0.1923
13055TIP3    H260657   0.730   2.592  65.592  0.0142  1.0962  0.5310
13056TIP3   OH260658   3.425   2.091  64.326 -0.2938 -0.5374  0.3216
13056TIP3    H160659   3.503   2.041  64.349 -0.1298 -0.6452 -0.4431
13056TIP3    H260660   3.385   2.041  64.254  0.0736  0.6208 -0.7148
13057TIP3   OH260661   1.503   2.751   1.711 -0.0100  1.0473  0.6361
13057TIP3    H160662   1.553   2.685   1.758 -0.0870 -0.0845 -0.8013
13057TIP3    H260663   1.555   2.769   1.633 -1.7187 -0.0927 -0.8505
13058TIP3   OH260664   3.171   2.320  15.159 -0.8180 -0.1854  0.0511
13058TIP3    H160665   3.213   2.257  15.100  0.9895  1.2651 -0.3228
13058TIP3    H260666   3.203   2.296  15.246  0.5769  0.6483 -0.1844
13059TIP3   OH260667   0.139   1.884  56.992  0.0666  0.1660 -0.1506
13059TIP3    H160668   0.058   1.934  57.004  0.0948  0.2486 -0.3078
13059TIP3    H260669   0.205   1.950  56.969 -0.0279 -0.0207 -0.9543
13060TIP3   OH260670   3.320   2.516  52.763  0.3359  0.4612 -0.4243
13060TIP3    H160671   3.409   2.548  52.779  0.7075 -0.9418  0.5705
13060TIP3    H260672   3.331   2.423  52.744 -1.0188 -0.1943  1.5723
13061TIP3   OH260673   0.849   3.084  12.071  0.1856  0.0946 -0.7141
13061TIP3    H160674   0.810   3.056  12.154  2.3349  0.7111  0.6201
13061TIP3    H260675   0.809   3.168  12.053  0.1714  0.2797  0.1105
13062TIP3   OH260676   2.344   1.838   6.324 -0.2026 -0.2417 -0.0311
13062TIP3    H160677   2.402   1.785   6.269 -1.8111 -1.8654 -0.2511
13062TIP3    H260678   2.386   1.924   6.326  0.3087 -0.2929 -3.2264
13063TIP3   OH260679   3.314   1.361  58.612 -0.3087 -0.3815 -0.4621
13063TIP3    H160680   3.376   1.289  58.624 -0.6204 -0.6826 -0.6582
13063TIP3    H260681   3.244   1.342  58.675  0.2337  0.4534  0.4283
13064TIP3   OH260682   1.266   2.363  16.496  0.3432  0.0401 -0.4761
13064TIP3    H160683   1.281   2.315  16.415  1.1334  0.9164 -0.8608
13064TIP3    H260684   1.178   2.335  16.525 -0.0832 -0.0313 -1.7917
13065TIP3   OH260685   0.574   0.479  59.861  0.0839 -0.3135  0.3368
13065TIP3    H160686   0.500   0.424  59.835 -0.0192  0.4282 -0.9959
13065TIP3    H260687   0.636   0.417  59.900 -0.7834 -1.1035  0.5158
13066TIP3   OH260688   0.368   2.102   0.855 -0.3049  0.3005 -0.4930
13066TIP3    H160689   0.418   2.073   0.931 -0.2550 -0.6044 -0.8558
13066TIP3    H260690   0.398   2.191   0.838  0.7459 -0.0166 -0.3373
13067TIP3   OH260691   2.522   0.181   4.456  0.0719  0.7848 -0.4261
13067TIP3    H160692   2.553   0.172   4.546 -0.4261  1.0814 -0.2200
13067TIP3    H260693   2.501   0.091   4.429  0.4051  0.6727 -0.3128
13068TIP3   OH260694   1.023   1.898   4.980  0.3708 -0.0259  0.0220
13068TIP3    H160695   0.986   1.810   4.966 -0.1140  0.2012 -0.1631
13068TIP3    H260696   0.969   1.934   5.050  1.3718 -0.3354  0.9724
13069TIP3   OH260697   1.193   1.875  10.811 -0.3726 -0.3397  0.7257
13069TIP3    H160698   1.102   1.872  10.783 -0.4315  0.1669  0.8494
13069TIP3    H260699   1.218   1.783  10.824 -1.1272 -0.4463  1.5274
13070TIP3   OH260700   0.559   2.843   1.130  0.1395 -0.0537  0.1703
13070TIP3    H160701   0.525   2.839   1.219 -1.7824  4.4255 -0.0599
13070TIP3    H260702   0.483   2.827   1.074 -0.8415  4.9249 -0.3806
13071TIP3   OH260703   2.820   0.137   7.120 -0.0596  0.4767  0.5041
13071TIP3    H160704   2.841   0.109   7.031  0.7956  0.9339  0.5515
13071TIP3    H260705   2.903   0.169   7.156 -0.7366  1.9244  0.8635
13072TIP3   OH260706   0.335   1.399  46.358 -0.1975  0.0131  0.4773
13072TIP3    H160707   0.260   1.423  46.304  0.6891 -0.1469 -0.8910
13072TIP3    H260708   0.298   1.380  46.444 -1.6821  0.1518 -0.0999
13073TIP3   OH260709   0.817   0.276  13.390 -0.4657  0.5200 -0.4471
13073TIP3    H160710   0.858   0.222  13.457 -1.2513  0.1929 -0.2142
13073TIP3    H260711   0.796   0.358  13.434  0.8678  1.0902 -0.8418
13074TIP3   OH260712   3.345   3.222   8.250 -0.0911 -0.0480  0.8778
13074TIP3    H160713   3.254   3.196   8.232 -0.9184  2.8095  0.3397
13074TIP3    H260714   3.346   3.240   8.344 -0.8186  2.1169  0.5359
13075TIP3   OH260715   2.407   2.764   5.103  0.2248  0.1066  0.6005
13075TIP3    H160716   2.340   2.825   5.133 -1.0843 -0.4748 -1.0076
13075TIP3    H260717   2.460   2.816   5.042  0.2175  0.1251  0.6099
13076TIP3   OH260718   3.390   0.465  52.526  0.3606  0.2334 -0.1064
13076TIP3    H160719   3.316   0.480  52.467 -0.1434  0.9332  0.6851
13076TIP3    H260720   3.371   0.519  52.603  2.1966  1.2626 -0.3121
13077TIP3   OH260721   3.379   2.428  14.300 -0.0569 -0.4220 -0.1151
13077TIP3    H160722   3.405   2.389  14.216  0.4209 -2.0235  0.7232
13077TIP3    H260723   3.352   2.517  14.278 -1.5133 -1.3044 -2.2147
13078TIP3   OH260724   0.730   1.133  11.756  0.5857  0.3761  0.1565
13078TIP3    H160725   0.655   1.132  11.696  0.5139  0.0807  0.2478
13078TIP3    H260726   0.757   1.224  11.760  2.2257  0.0709 -2.3488
13079TIP3   OH260727   2.968   3.346  54.191  0.2142  0.4054  0.1283
13079TIP3    H160728   2.913   3.271  54.215  1.1903 -0.2832  0.2785
13079TIP3    H260729   2.907   3.419  54.184 -0.5466 -0.0460  1.6199
13080TIP3   OH260730   2.098   2.913  52.839 -0.4570  0.0131  0.0478
13080TIP3    H160731   2.155   2.988  52.823  1.0028 -1.3394 -1.3857
13080TIP3    H260732   2.145   2.860  52.904  0.2466 -1.3851 -1.5523
13081TIP3   OH260733   1.211   2.447   5.768 -0.4888 -0.0371  0.2550
13081TIP3    H160734   1.250   2.374   5.719  0.4257 -0.9573  2.2249
13081TIP3    H260735   1.283   2.510   5.778 -1.4944  1.6921 -2.2121
13082TIP3   OH260736   0.932   2.495  50.333 -0.1112  0.4710 -0.5842
13082TIP3    H160737   0.916   2.439  50.258 -2.3360  2.2279 -1.5463
13082TIP3    H260738   0.861   2.476  50.394 -0.4540  1.6475 -0.5854
13083TIP3   OH260739   2.796   0.212  64.482  0.1487  0.3174  0.0238
13083TIP3    H160740   2.804   0.188  64.390 -0.3501 -0.7965  0.2673
13083TIP3    H260741   2.871   0.270  64.498  1.6629 -1.4338 -0.4475
13084TIP3   OH260742   0.861   3.012  53.033  0.1650  0.0658 -0.1550
13084TIP3    H160743   0.868   3.090  52.977 -0.4678 -1.0680 -1.8797
13084TIP3    H260744   0.839   2.941  52.973 -2.2623 -0.9241  1.7511
13085TIP3   OH260745   0.145   0.815  58.290 -0.3342 -0.0021  0.7676
13085TIP3    H160746   0.166   0.808  58.197  1.8338  4.1327  0.6930
13085TIP3    H260747   0.052   0.836  58.292 -0.6950 -1.3155 -0.2979
13086TIP3   OH260748   2.841   1.529  66.922  0.3077 -0.1093 -0.3057
13086TIP3    H160749   2.827   1.607  66.869 -2.2048 -0.4656 -0.2991
13086TIP3    H260750   2.854   1.458  66.859  2.8283  0.2558 -0.3111
13087TIP3   OH260751   0.492   0.485  53.923  0.1956 -0.0539  0.2741
13087TIP3    H160752   0.565   0.459  53.866 -0.2904 -0.3976 -0.1988
13087TIP3    H260753   0.525   0.561  53.972  0.6697  0.1502 -0.3549
13088TIP3   OH260754   2.463   1.100  64.747 -0.3486 -0.0655  0.1979
13088TIP3    H160755   2.518   1.079  64.671  0.2076 -1.5256  0.9648
13088TIP3    H260756   2.525   1.109  64.819 -0.9514  0.4930  0.6544
13089TIP3   OH260757   1.546   0.776  43.956 -0.3840 -0.6807 -0.0485
13089TIP3    H160758   1.577   0.820  44.035  0.7425  0.0236 -0.8492
13089TIP3    H260759   1.520   0.688  43.986  1.1733 -0.8601  0.9118
13090TIP3   OH260760   1.329   1.316  19.423 -0.2307 -0.5264  0.1869
13090TIP3    H160761   1.344   1.371  19.500 -1.7837 -0.4157  0.4433
13090TIP3    H260762   1.401   1.337  19.363 -0.4483  1.3480  0.5348
13091TIP3   OH260763   1.719   1.945  11.842 -0.0760 -0.0074 -0.5621
13091TIP3    H160764   1.710   1.866  11.789 -2.1011 -1.2701  1.4921
13091TIP3    H260765   1.721   1.914  11.932  1.4986  2.1783  0.2595
13092TIP3   OH260766   2.915   0.783   8.306  0.5701 -0.3066  0.0954
13092TIP3    H160767   2.968   0.844   8.358  0.1363  1.5362 -1.4854
13092TIP3    H260768   2.851   0.748   8.368  1.7850 -0.3368  1.3889
13093TIP3   OH260769   0.452   0.703  65.211  0.2461 -0.4211  0.5894
13093TIP3    H160770   0.397   0.780  65.227  0.5550 -0.5222  2.2900
13093TIP3    H260771   0.542   0.734  65.219  0.3799 -0.9016  1.0024
13094TIP3   OH260772   0.069   0.223  45.856 -1.0247  0.1261 -0.1526
13094TIP3    H160773   0.137   0.156  45.855 -0.4820  0.6746 -0.8376
13094TIP3    H260774   0.116   0.306  45.863 -1.6323  0.4969 -0.3201
13095TIP3   OH260775   2.388   2.191  58.787 -0.0255 -0.3943 -0.3419
13095TIP3    H160776   2.388   2.138  58.708  0.4274 -2.0181  0.6956
13095TIP3    H260777   2.296   2.200  58.810 -0.0818 -2.4739  0.5192
13096TIP3   OH260778   2.541   0.197  42.689  0.2429 -0.2254  0.6243
13096TIP3    H160779   2.475   0.202  42.620  2.8007  2.6302 -1.9553
13096TIP3    H260780   2.614   0.149  42.650  1.2061  0.1257  1.8905
13097TIP3   OH260781   1.293   0.649  45.637 -0.2468 -0.2151 -0.2906
13097TIP3    H160782   1.248   0.607  45.710 -1.2170  1.5635  0.1586
13097TIP3    H260783   1.363   0.699  45.678  0.0971 -0.3354 -0.7233
13098TIP3   OH260784   3.416   3.117  53.517 -0.1713 -0.1683  0.4214
13098TIP3    H160785   3.419   3.168  53.436 -0.7055 -0.9051 -0.0829
13098TIP3    H260786   3.421   3.182  53.587  0.4264  0.4688 -0.2027
13099TIP3   OH260787   0.892   0.341  64.415  0.5872  0.3232 -0.0108
13099TIP3    H160788   0.802   0.328  64.445  0.5324 -0.6310 -0.5293
13099TIP3    H260789   0.938   0.261  64.443  1.1518  0.5859 -0.1719
13100TIP3   OH260790   2.302   0.079  51.252 -0.0347  0.0006 -0.0108
13100TIP3    H160791   2.364   0.011  51.226  1.2569  0.2892  2.0879
13100TIP3    H260792   2.322   0.097  51.344 -1.8171  1.6525  0.1332
13101TIP3   OH260793   2.198   0.715  54.293 -0.0865 -0.0863 -0.0408
13101TIP3    H160794   2.104   0.729  54.284 -0.0504 -0.1985 -0.6715
13101TIP3    H260795   2.225   0.773  54.363 -0.4442  0.7684 -0.5987
13102TIP3   OH260796   3.236   3.159  47.574  0.3236  1.0662  0.2281
13102TIP3    H160797   3.300   3.199  47.632 -0.0521  1.5049  0.3468
13102TIP3    H260798   3.151   3.182  47.612  0.0841  0.9762 -0.2412
13103TIP3   OH260799   3.304   2.863  57.681  0.1925 -0.0418 -0.6652
13103TIP3    H160800   3.274   2.927  57.616  1.2125 -1.2041 -2.3866
13103TIP3    H260801   3.394   2.844  57.655  0.3975 -1.0709  0.7050
13104TIP3   OH260802   1.261   0.820  49.951 -0.3300  0.0564  0.4116
13104TIP3    H160803   1.195   0.889  49.943 -1.1167 -0.7276 -0.0044
13104TIP3    H260804   1.333   0.849  49.894 -0.8393  0.3255 -0.0998
13105TIP3   OH260805   0.327   2.822  46.662 -0.8971 -0.2645 -0.3524
13105TIP3    H160806   0.359   2.813  46.572  0.6407  1.0818  0.0061
13105TIP3    H260807   0.365   2.748  46.708 -0.0686  0.1081 -0.4188
13106TIP3   OH260808   0.780   1.205  44.999  0.1415 -0.7029  0.1754
13106TIP3    H160809   0.799   1.299  44.999 -0.4301 -0.5484 -1.3269
13106TIP3    H260810   0.723   1.193  44.923  1.5020 -2.5101 -0.6359
13107TIP3   OH260811   1.688   0.790  13.938 -0.9417  0.2909 -0.3983
13107TIP3    H160812   1.642   0.707  13.921  0.1728 -0.3110 -0.6244
13107TIP3    H260813   1.781   0.767  13.932 -0.6106  1.7068 -1.1525
13108TIP3   OH260814   1.312   3.176  55.663  0.2890  0.1751  0.1616
13108TIP3    H160815   1.303   3.146  55.754 -0.4471  0.0262  0.0477
13108TIP3    H260816   1.250   3.248  55.655 -1.4721 -1.3549 -0.8661
13109TIP3   OH260817   1.383   1.553  43.607 -0.5252  0.4949  0.3293
13109TIP3    H160818   1.386   1.519  43.696 -1.9508  0.3018  0.3228
13109TIP3    H260819   1.380   1.648  43.617 -1.2705  0.4545  0.5160
13110TIP3   OH260820   0.090   1.288   8.050  1.1884  0.4180  0.1299
13110TIP3    H160821   0.076   1.285   7.955  1.0687 -0.8783  0.1790
13110TIP3    H260822   0.073   1.199   8.080 -0.8718  1.2483  1.6686
13111TIP3   OH260823   1.549   0.083  46.649 -0.2049  0.2089 -0.2308
13111TIP3    H160824   1.625   0.078  46.707  1.4921  1.0502 -2.2225
13111TIP3    H260825   1.516  -0.006  46.644  0.7705 -0.2141  0.5716
13112TIP3   OH260826   2.223   1.438   8.162  0.4162 -0.2967 -0.0221
13112TIP3    H160827   2.231   1.524   8.203  0.7262  1.0028 -2.6212
13112TIP3    H260828   2.268   1.447   8.078 -3.6716 -1.4495 -2.6369
13113TIP3   OH260829   0.903   0.271  64.753  0.1627  0.2254 -0.4448
13113TIP3    H160830   0.831   0.208  64.763 -0.9379  1.3470 -1.0154
13113TIP3    H260831   0.978   0.217  64.729 -0.9660 -0.8103 -1.8638
13114TIP3   OH260832   0.101   1.966  48.204 -0.3921 -0.8863 -0.5185
13114TIP3    H160833   0.150   2.043  48.233  0.4769 -1.5734 -0.1116
13114TIP3    H260834   0.042   1.999  48.137  1.3743 -0.1989 -1.8116
13115TIP3   OH260835   2.551   2.389  58.471 -0.2925  0.3732  0.0949
13115TIP3    H160836   2.457   2.377  58.481  0.1194 -1.8388  2.1406
13115TIP3    H260837   2.584   2.304  58.444  1.2847  0.7025  0.8640
13116TIP3   OH260838   1.797   2.695  60.501 -0.1604 -0.1917 -0.5722
13116TIP3    H160839   1.872   2.636  60.501  1.1148  1.1600  2.7927
13116TIP3    H260840   1.824   2.768  60.445 -0.4873 -1.2785 -2.2203
13117TIP3   OH260841   0.454   1.466  48.314 -0.0967  0.1985  0.2807
13117TIP3    H160842   0.528   1.409  48.339  1.1228  1.0004 -1.3619
13117TIP3    H260843   0.435   1.442  48.224 -0.9356  0.9860  0.2407
13118TIP3   OH260844   2.806   1.252  55.966  0.7436  0.1703  0.4135
13118TIP3    H160845   2.753   1.292  55.897  0.6423  2.4084  1.7064
13118TIP3    H260846   2.892   1.240  55.925  0.4357  0.5964 -0.3859
13119TIP3   OH260847   0.575   1.152  62.591 -0.1361 -0.1002  0.4513
13119TIP3    H160848   0.481   1.154  62.575  0.0036  1.1068 -0.3053
13119TIP3    H260849   0.590   1.226  62.650  0.5928  0.9009 -0.9570
13120TIP3   OH260850   1.607   0.880   3.049 -0.2778 -0.0969  0.0059
13120TIP3    H160851   1.684   0.934   3.069 -0.1190 -0.8968  1.6692
13120TIP3    H260852   1.547   0.897   3.122 -0.3071 -1.9786  0.4692
13121TIP3   OH260853   1.274   3.345  15.887  0.1542  0.4781 -0.6070
13121TIP3    H160854   1.214   3.283  15.845  0.9517  0.7385 -2.2243
13121TIP3    H260855   1.261   3.332  15.981 -0.8086 -1.0302 -0.9178
13122TIP3   OH260856   0.755   3.237   5.349  0.4712  0.4011  0.0487
13122TIP3    H160857   0.692   3.307   5.368 -0.4277  0.0830 -1.5775
13122TIP3    H260858   0.838   3.282   5.336  0.6297  0.8254  2.2518
13123TIP3   OH260859   2.150   1.774  16.303 -0.0599 -0.4871  0.0431
13123TIP3    H160860   2.104   1.859  16.303 -0.5012 -0.7237  0.1011
13123TIP3    H260861   2.228   1.790  16.251 -0.4933 -0.2301 -0.5399
13124TIP3   OH260862   2.724   2.077  21.559 -0.3366  0.8369 -0.3047
13124TIP3    H160863   2.667   2.122  21.621  0.8477  2.1978 -0.1456
13124TIP3    H260864   2.784   2.026  21.614 -0.3184  0.7408 -0.4130
13125TIP3   OH260865   0.877   0.513   3.818  0.5661 -0.3877  0.2454
13125TIP3    H160866   0.809   0.504   3.885 -0.2232  0.5271 -0.4257
13125TIP3    H260867   0.893   0.423   3.789 -1.3320 -0.5168 -0.5404
13126TIP3   OH260868   3.059   0.925  48.346  0.0567 -0.7137 -0.5687
13126TIP3    H160869   3.126   0.994  48.342 -0.4934  0.1220  2.3631
13126TIP3    H260870   3.019   0.935  48.432 -2.6759 -2.3112 -1.5159
13127TIP3   OH260871   2.977   0.429  46.754 -0.2404  0.4291 -0.1411
13127TIP3    H160872   2.889   0.466  46.753 -0.7717 -0.6249 -3.4384
13127TIP3    H260873   3.035   0.504  46.763 -1.4279  1.3984 -0.3321
13128TIP3   OH260874   0.019   0.030  14.814 -0.0968  0.5285  0.1224
13128TIP3    H160875   0.001  -0.009  14.900  0.6308  0.2170  0.1421
13128TIP3    H260876  -0.016  -0.033  14.751  0.4433  0.1805  0.1687
13129TIP3   OH260877   2.246   0.214  14.847  1.2603  0.9085  0.0364
13129TIP3    H160878   2.327   0.170  14.874  0.7403  0.1059  0.3457
13129TIP3    H260879   2.236   0.190  14.755 -0.8488 -2.7383  0.9938
13130TIP3   OH260880   0.559   1.736  20.521  0.3350 -0.4610  0.4481
13130TIP3    H160881   0.489   1.673  20.538 -1.0419  1.0021  0.2979
13130TIP3    H260882   0.598   1.753  20.607  0.2172 -0.9323  0.5986
13131TIP3   OH260883   2.825   2.109  10.597 -0.0869 -0.3406 -1.0514
13131TIP3    H160884   2.733   2.105  10.570 -0.1692  0.7739 -0.9753
13131TIP3    H260885   2.869   2.154  10.525  0.0859  0.6516 -0.3440
13132TIP3   OH260886   2.536   1.892  58.043 -0.0188 -0.8299 -0.4463
13132TIP3    H160887   2.599   1.834  57.999  1.4218  1.2523 -1.3343
13132TIP3    H260888   2.591   1.958  58.086 -1.5450 -0.7071  1.4368
13133TIP3   OH260889   0.153   2.473  11.359 -0.2463  0.8476  0.5697
13133TIP3    H160890   0.181   2.459  11.450  0.0231 -0.1166  0.3453
13133TIP3    H260891   0.080   2.534  11.366 -0.3387  0.6505  1.4579
13134TIP3   OH260892   2.830   0.805  45.257  0.4637  0.2906 -0.2689
13134TIP3    H160893   2.853   0.862  45.183  1.2429 -3.1002 -2.9115
13134TIP3    H260894   2.913   0.766  45.284  0.0924  0.9820  2.1175
13135TIP3   OH260895   1.145   2.347   0.105  0.1993 -0.2865 -0.3529
13135TIP3    H160896   1.203   2.384   0.171 -1.3653  0.3246  0.7439
13135TIP3    H260897   1.058   2.378   0.130 -0.9081 -2.9098 -0.6624
13136TIP3   OH260898   2.189   0.144  59.880  0.1323  0.3309 -0.1175
13136TIP3    H160899   2.146   0.215  59.831  0.7375  1.1258  0.4606
13136TIP3    H260900   2.223   0.085  59.813 -1.1433  0.1198 -0.5936
13137TIP3   OH260901   3.417   2.868  54.570  0.3404  0.4387  0.6320
13137TIP3    H160902   3.379   2.814  54.501 -1.3646  1.8143  0.4373
13137TIP3    H260903   3.481   2.811  54.612  0.1612 -1.0019 -0.9408
13138TIP3   OH260904   2.127   2.191  18.793  0.5337 -0.2358  0.1760
13138TIP3    H160905   2.124   2.246  18.715  4.5520 -1.1575 -0.8369
13138TIP3    H260906   2.086   2.109  18.767  0.6472 -0.0800 -0.5008
13139TIP3   OH260907   2.297   0.660  58.257 -0.3626  0.0699 -0.3498
13139TIP3    H160908   2.276   0.570  58.231 -0.5811  0.3639 -1.2001
13139TIP3    H260909   2.387   0.656  58.288 -0.6555 -0.6108  0.4628
13140TIP3   OH260910   3.131   2.371  59.474 -0.2048 -0.7064 -0.4044
13140TIP3    H160911   3.164   2.423  59.401  1.1230  0.7426  1.1210
13140TIP3    H260912   3.088   2.296  59.434  1.1005 -0.3404 -2.6234
13141TIP3   OH260913   1.792   2.568   8.625 -1.1723 -0.3379  0.3222
13141TIP3    H160914   1.769   2.659   8.643 -0.6732 -0.2151  0.3477
13141TIP3    H260915   1.877   2.556   8.667 -1.0312 -0.6928 -0.0639
13142TIP3   OH260916   3.002   2.381   1.844  0.0436 -0.5670 -0.2218
13142TIP3    H160917   3.047   2.329   1.910 -1.2734 -1.1607  0.2362
13142TIP3    H260918   3.072   2.414   1.787  1.3768  1.0273  2.1690
13143TIP3   OH260919   2.304   3.330  28.907 -0.1761  0.2623  0.1228
13143TIP3    H160920   2.237   3.276  28.865 -0.3361  0.5319  0.0314
13143TIP3    H260921   2.384   3.279  28.899 -0.0164  0.7046 -1.2943
13144TIP3   OH260922   0.787   1.555  10.616 -0.4369  0.5990 -0.1210
13144TIP3    H160923   0.720   1.613  10.650  0.3239  1.1199  0.5259
13144TIP3    H260924   0.844   1.611  10.563 -0.9189  0.0237 -1.2944
13145TIP3   OH260925   1.365   2.594   2.963 -0.4480  0.5860 -0.2079
13145TIP3    H160926   1.373   2.681   2.925  1.0478  2.1837  3.2604
13145TIP3    H260927   1.446   2.549   2.940 -0.3124  0.8966 -0.3323
13146TIP3   OH260928   0.565   1.067  10.177  0.2289  0.1430  0.0055
13146TIP3    H160929   0.648   1.078  10.224  0.7691 -1.9150 -0.3463
13146TIP3    H260930   0.529   1.156  10.171  1.5953  0.8716  1.6032
13147TIP3   OH260931   0.132   2.861  65.727  0.1812  0.3160  0.1741
13147TIP3    H160932   0.193   2.862  65.652 -0.4823  0.4448 -0.3699
13147TIP3    H260933   0.080   2.782  65.714 -1.9918  1.8702 -1.1995
13148TIP3   OH260934   0.715   0.467  46.253  0.1923  0.5227  0.9325
13148TIP3    H160935   0.698   0.382  46.212  1.1032  0.6947  0.1617
13148TIP3    H260936   0.645   0.524  46.220  0.6808  0.5532 -0.0815
13149TIP3   OH260937   1.863   2.100  61.453 -0.3136  0.3149  0.0530
13149TIP3    H160938   1.937   2.047  61.483  0.4546  1.0365 -0.5277
13149TIP3    H260939   1.810   2.040  61.401  0.0183 -0.1344  0.2235
13150TIP3   OH260940   1.644   3.005  60.230  0.1335 -0.7675  0.1835
13150TIP3    H160941   1.598   2.965  60.304 -0.5530 -3.2831 -1.4886
13150TIP3    H260942   1.602   3.092  60.221 -1.4929 -1.3895  1.2217
13151TIP3   OH260943   0.501   1.742  47.519  0.1557 -0.2740  0.4052
13151TIP3    H160944   0.562   1.669  47.529  0.3113 -0.4409 -1.4446
13151TIP3    H260945   0.537   1.794  47.447 -1.6034 -0.1024 -0.3977
13152TIP3   OH260946   1.667   1.562   0.571  0.6617 -0.4802 -0.6794
13152TIP3    H160947   1.577   1.579   0.546  0.1627 -1.9519  0.0391
13152TIP3    H260948   1.698   1.646   0.608 -0.7985 -0.2961  0.1853
13153TIP3   OH260949   1.877   0.443  47.369  0.1172 -0.9551  0.6878
13153TIP3    H160950   1.906   0.465  47.281 -0.8117 -0.1992  0.5481
13153TIP3    H260951   1.940   0.486  47.427  2.6365 -4.0072  0.4893
13154TIP3   OH260952   2.550   1.503  67.167 -0.2791  0.1750 -0.1855
13154TIP3    H160953   2.565   1.539  67.254  2.7700 -0.4727 -0.3341
13154TIP3    H260954   2.527   1.578  67.113  2.2766  1.3935  0.2832
13155TIP3   OH260955   0.265   1.960  44.926  0.2561  0.0521  0.0235
13155TIP3    H160956   0.193   2.023  44.928  1.5385  1.6377 -0.8013
13155TIP3    H260957   0.242   1.899  44.857 -0.9123 -0.2690  0.6816
13156TIP3   OH260958   0.379   0.518  66.283  0.1453 -0.6405  0.0885
13156TIP3    H160959   0.365   0.557  66.197 -0.5160 -1.1652 -0.0398
13156TIP3    H260960   0.454   0.566  66.318  1.6262 -1.6413 -1.5224
13157TIP3   OH260961   0.948   0.511  47.624  0.4390  0.3806 -0.6559
13157TIP3    H160962   0.949   0.530  47.718  1.0915 -1.2690 -0.2946
13157TIP3    H260963   1.019   0.564  47.588  0.2557  0.9426 -0.2074
13158TIP3   OH260964   2.905   3.316  16.465  0.0105 -0.2506  0.1717
13158TIP3    H160965   2.962   3.317  16.542 -0.3771 -2.3282  0.5624
13158TIP3    H260966   2.964   3.303  16.391  0.2588  0.3432  0.2597
13159TIP3   OH260967   2.563   2.704  46.268  0.1199  0.0950  0.4688
13159TIP3    H160968   2.626   2.766  46.231  0.9194 -1.2860 -0.5839
13159TIP3    H260969   2.606   2.619  46.261 -1.0237 -0.6221  1.6991
13160TIP3   OH260970   0.699   3.419  19.830  0.3533  0.4421 -0.2040
13160TIP3    H160971   0.739   3.452  19.911 -1.1079  0.6269  0.4737
13160TIP3    H260972   0.637   3.487  19.805  0.7187  0.3313 -1.4347
13161TIP3   OH260973   1.247   0.430   3.372  0.4834 -0.1607  0.0472
13161TIP3    H160974   1.246   0.335   3.374 -0.2707 -0.1485  0.6604
13161TIP3    H260975   1.165   0.456   3.415 -0.3939  0.7390 -2.0431
13162TIP3   OH260976   0.668   2.391  47.706  0.3316  0.1033 -0.4415
13162TIP3    H160977   0.680   2.313  47.653 -1.6682  0.3373 -1.3135
13162TIP3    H260978   0.668   2.464  47.644 -1.0033  0.4837 -0.0338
13163TIP3   OH260979   2.960   2.653  44.592  0.0861  0.4660 -0.0051
13163TIP3    H160980   2.874   2.614  44.577 -0.1566  0.5004  1.1646
13163TIP3    H260981   3.018   2.609  44.530 -1.0493  1.5890 -1.9406
13164TIP3   OH260982   1.405   0.073  18.350  0.0289 -0.0225 -0.5656
13164TIP3    H160983   1.428   0.034  18.434 -1.1390  1.4930  0.5281
13164TIP3    H260984   1.377  -0.001  18.296 -0.8793 -0.8721  0.9804
13165TIP3   OH260985   2.443   2.487  16.262  0.0800 -0.5290 -0.1529
13165TIP3    H160986   2.486   2.468  16.345  0.9218 -1.1533 -0.7187
13165TIP3    H260987   2.503   2.455  16.195  0.1809  1.3939 -1.0729
13166TIP3   OH260988   0.827   1.684  62.474  0.2468  0.0406  0.3689
13166TIP3    H160989   0.843   1.670  62.381 -1.4762 -1.6082  0.2670
13166TIP3    H260990   0.871   1.766  62.494  0.4728  0.5383 -1.9484
13167TIP3   OH260991   2.093   0.061  66.307  0.5158 -0.0875 -0.5911
13167TIP3    H160992   2.115  -0.024  66.346 -1.6402  0.3206  1.7519
13167TIP3    H260993   2.135   0.125  66.365  0.0899  0.4796 -0.9020
13168TIP3   OH260994   0.828   1.534  20.760  0.4556 -0.0750 -0.0373
13168TIP3    H160995   0.901   1.594  20.777 -1.3598  2.3492 -0.1682
13168TIP3    H260996   0.777   1.578  20.692 -2.1199 -0.7058  1.3597
13169TIP3   OH260997   1.458   2.188  51.502  0.3976 -0.6445  0.6510
13169TIP3    H160998   1.382   2.161  51.553  0.9534  0.0932  1.9235
13169TIP3    H260999   1.436   2.276  51.471 -0.7517 -1.8078 -2.1333
13170TIP3   OH261000   1.741   2.404  55.853  0.4890  0.5297  0.2105
13170TIP3    H161001   1.740   2.494  55.887  1.6352 -0.1087  2.0225
13170TIP3    H261002   1.696   2.411  55.768  0.9559  2.8944  0.0773
13171TIP3   OH261003   0.802   3.325  15.453 -0.0987 -0.3297 -0.4794
13171TIP3    H161004   0.720   3.291  15.488 -0.7894  2.8080  1.3311
13171TIP3    H261005   0.853   3.247  15.433 -2.6661 -2.3934  0.3619
13172TIP3   OH261006   0.888   0.892   5.139 -0.0591  0.3879  0.0765
13172TIP3    H161007   0.846   0.954   5.199  2.1405  1.4358  0.6229
13172TIP3    H261008   0.929   0.827   5.196 -2.9555 -2.1860 -0.4867
13173TIP3   OH261009   1.964   0.687  43.581  0.1223 -0.3256 -0.2471
13173TIP3    H161010   1.884   0.694  43.633 -0.1925 -1.0737 -0.6131
13173TIP3    H261011   1.966   0.767  43.529 -1.3585 -1.0942 -1.5645
13174TIP3   OH261012   0.903   1.272  20.707 -0.3060 -0.2215 -0.4667
13174TIP3    H161013   0.891   1.271  20.612  1.7012 -0.3477 -0.7529
13174TIP3    H261014   0.891   1.364  20.732 -1.8063 -0.3372 -0.6674
13175TIP3   OH261015   0.841   0.435  16.710  0.1935 -0.5511  0.3924
13175TIP3    H161016   0.780   0.409  16.778 -1.5160  0.1165 -0.8215
13175TIP3    H261017   0.916   0.377  16.722 -1.0290 -2.0000  1.4133
13176TIP3   OH261018   1.318   0.142  51.757  0.4296  0.4412  0.3506
13176TIP3    H161019   1.396   0.193  51.737  0.9404 -0.2588  0.5290
13176TIP3    H261020   1.324   0.065  51.701 -1.1234  1.2802 -1.0579
13177TIP3   OH261021   1.876   0.360  10.537  0.1329  0.2067 -0.7842
13177TIP3    H161022   1.832   0.340  10.619  1.4687 -1.7272 -0.4986
13177TIP3    H261023   1.907   0.450  10.547  0.7043 -0.1666  1.0371
13178TIP3   OH261024   1.782   3.210  66.432 -0.3630  0.1076 -0.1196
13178TIP3    H161025   1.796   3.250  66.518 -0.0270  0.6185 -0.4001
13178TIP3    H261026   1.786   3.284  66.371  1.1814 -0.4591 -0.7571
13179TIP3   OH261027   0.753   1.601  35.648  0.0293 -0.4007 -0.3022
13179TIP3    H161028   0.831   1.603  35.703 -0.2773 -2.7484  0.2996
13179TIP3    H261029   0.684   1.565  35.704 -1.6658  1.9784 -0.6851
13180TIP3   OH261030   0.201   2.140   3.582  0.4893 -0.4738  0.2109
13180TIP3    H161031   0.214   2.196   3.506 -0.0778  0.1527  0.5639
13180TIP3    H261032   0.289   2.118   3.611  0.7099 -1.3685 -1.0896
13181TIP3   OH261033   2.979   1.235   3.652  0.2748 -0.2849  0.0791
13181TIP3    H161034   3.060   1.185   3.640 -0.0471 -1.3289  1.7751
13181TIP3    H261035   2.957   1.268   3.565  2.3333 -0.2484 -0.4724
13182TIP3   OH261036   0.500   1.371  10.081  0.2369  0.6351  0.2853
13182TIP3    H161037   0.406   1.372  10.100 -0.0133 -2.2333 -0.3035
13182TIP3    H261038   0.506   1.386   9.987 -0.0376 -2.5309 -0.3635
13183TIP3   OH261039   2.791   0.891   1.643 -0.2232 -0.7054 -0.2981
13183TIP3    H161040   2.821   0.981   1.656  2.1182 -1.4422 -0.1683
13183TIP3    H261041   2.709   0.886   1.691  0.0018  1.1455  0.3636
13184TIP3   OH261042   0.726   0.719  48.942 -0.2218  0.8478  0.3341
13184TIP3    H161043   0.653   0.781  48.949 -0.1845  0.7528  1.8752
13184TIP3    H261044   0.796   0.760  48.992  0.0831 -0.0376  0.6522
13185TIP3   OH261045   1.002   2.180  16.533  0.0104  0.5723  0.4407
13185TIP3    H161046   0.974   2.177  16.624  0.1022  1.5893  0.5112
13185TIP3    H261047   0.921   2.189  16.483 -0.0053  0.4661  0.4474
13186TIP3   OH261048   1.713   2.840   0.494  0.3482 -0.1561 -0.1154
13186TIP3    H161049   1.652   2.853   0.567  0.8889 -2.2989  0.8026
13186TIP3    H261050   1.765   2.764   0.520  1.4079 -0.2169 -2.2091
13187TIP3   OH261051   1.309   1.995  16.963  0.1279 -0.0708 -0.3001
13187TIP3    H161052   1.358   2.022  16.885 -1.3536  0.3578 -1.1174
13187TIP3    H261053   1.288   2.077  17.008  1.0586 -0.3229  0.6263
13188TIP3   OH261054   0.808   2.188  44.813  0.5414 -0.6711 -0.1361
13188TIP3    H161055   0.821   2.266  44.758  0.1824 -0.8331 -0.4582
13188TIP3    H261056   0.873   2.126  44.779  1.6103 -0.1382  0.8628
13189TIP3   OH261057   1.319   0.012  43.333  0.4585  0.3989 -0.2862
13189TIP3    H161058   1.371  -0.022  43.405 -0.5762  1.9011  1.2623
13189TIP3    H261059   1.382   0.056  43.275  1.1515  0.3711  0.4360
13190TIP3   OH261060   2.400   0.269  18.577  0.1769  0.0029 -0.0138
13190TIP3    H161061   2.334   0.321  18.622 -0.1625  1.6003 -2.2043
13190TIP3    H261062   2.472   0.330  18.560  0.1696 -0.4445 -1.8334
13191TIP3   OH261063   2.922   1.950  20.884 -0.0696 -0.5068  0.5937
13191TIP3    H161064   2.836   1.924  20.851 -0.1370  0.2140  0.1883
13191TIP3    H261065   2.983   1.886  20.846 -0.4340 -1.0733  0.9586
13192TIP3   OH261066   2.839   1.939  66.225  0.1085  0.1428 -0.0101
13192TIP3    H161067   2.853   1.847  66.249  0.9919 -0.2517 -1.8724
13192TIP3    H261068   2.766   1.937  66.163  0.7302  0.5635 -0.7742
13193TIP3   OH261069   1.232   2.740  16.231 -0.5401  0.2252 -0.1424
13193TIP3    H161070   1.222   2.775  16.319 -0.4066 -1.3098  0.5197
13193TIP3    H261071   1.275   2.810  16.181  0.0674  0.8397  1.1994
13194TIP3   OH261072   0.664   0.384   4.850  0.2734  0.2017  0.0427
13194TIP3    H161073   0.696   0.461   4.897 -0.1269  0.1705  0.3707
13194TIP3    H261074   0.612   0.419   4.778  0.0075  0.2378  0.2519
13195TIP3   OH261075   1.867   3.091  52.957  0.0203 -0.2499 -0.3730
13195TIP3    H161076   1.917   3.159  52.912  1.4675 -0.5268  0.7264
13195TIP3    H261077   1.907   3.009  52.930  0.6065 -0.4437  1.0096
13196TIP3   OH261078   2.863   2.306  63.851  0.3381 -0.1193 -0.1272
13196TIP3    H161079   2.843   2.390  63.812  1.2824  0.0291 -0.3075
13196TIP3    H261080   2.950   2.317  63.889  0.3570 -0.9308  0.0868
13197TIP3   OH261081   2.634   2.758  14.471 -0.0799  0.3492  0.1578
13197TIP3    H161082   2.666   2.848  14.464 -0.1512  0.3499 -0.2109
13197TIP3    H261083   2.711   2.707  14.495 -0.3831  0.7455  2.1449
13198TIP3   OH261084   0.168   0.191  51.613 -0.2126 -0.1201 -0.1144
13198TIP3    H161085   0.242   0.182  51.553 -0.0144  0.6389  0.0091
13198TIP3    H261086   0.144   0.283  51.608  1.3245  0.5780  2.7087
13199TIP3   OH261087   1.273   3.306  18.182 -0.2647 -0.0323  0.5024
13199TIP3    H161088   1.344   3.272  18.127 -0.1445  0.6658  0.2171
13199TIP3    H261089   1.235   3.377  18.131 -2.1583 -1.3238 -0.0143
13200TIP3   OH261090   3.431   3.379  48.517  0.2423 -0.0911  0.4087
13200TIP3    H161091   3.414   3.292  48.553 -1.0547  0.4600  1.1891
13200TIP3    H261092   3.515   3.405  48.556  0.1138 -0.5606  1.0220
13201TIP3   OH261093   2.145   2.122  58.523 -0.3236  0.3683  0.8526
13201TIP3    H161094   2.227   2.077  58.502 -0.5330  0.4951 -0.2853
13201TIP3    H261095   2.082   2.089  58.459 -0.6523  1.7744  0.4283
13202TIP3   OH261096   1.899   1.091  59.878 -0.0911 -0.0182  0.0454
13202TIP3    H161097   1.888   1.036  59.801  0.8283 -1.2641  0.7786
13202TIP3    H261098   1.831   1.061  59.939 -0.1293  0.2459  0.1376
13203TIP3   OH261099   2.773   2.374   7.340  0.0171 -0.0413 -0.2073
13203TIP3    H161100   2.696   2.411   7.383 -1.8557 -2.1352 -1.5140
13203TIP3    H261101   2.797   2.300   7.395 -0.0095 -0.4364 -0.7223
13204TIP3   OH261102   0.335   2.495  51.089 -0.3200  0.2535  0.0286
13204TIP3    H161103   0.406   2.535  51.040  0.9394 -2.4529 -0.5188
13204TIP3    H261104   0.336   2.541  51.173 -0.4117  2.7505 -1.2405
13205TIP3   OH261105   2.864   2.293  51.870 -0.1662  0.0926 -0.4053
13205TIP3    H161106   2.941   2.299  51.813  0.5523 -1.5356  0.3072
13205TIP3    H261107   2.869   2.205  51.907 -3.0491 -0.5273 -1.2393
13206TIP3   OH261108   0.172   0.354  60.790  0.0163 -0.0490 -0.5399
13206TIP3    H161109   0.185   0.392  60.877 -0.5520  0.1573 -0.5391
13206TIP3    H261110   0.091   0.394  60.758  0.8052  0.7012 -1.6282
13207TIP3   OH261111   3.118   1.624  30.338  0.8751 -0.3974 -0.0935
13207TIP3    H161112   3.116   1.544  30.286 -1.0566 -1.2321  1.1383
13207TIP3    H261113   3.149   1.595  30.424 -0.2250  0.0668  0.4766
13208TIP3   OH261114   0.967   1.531   4.419  0.1899  0.8328  0.3023
13208TIP3    H161115   0.876   1.549   4.394 -0.1636  0.4500  1.2637
13208TIP3    H261116   1.008   1.617   4.425  0.0601  0.9718 -0.7500
13209TIP3   OH261117   2.052   2.780  15.012  0.1580  0.1678  0.2933
13209TIP3    H161118   2.044   2.704  14.955 -0.3736  0.4239  0.0195
13209TIP3    H261119   2.145   2.784  15.034  0.6244  0.8085 -1.5885
13210TIP3   OH261120   2.978   0.009   2.641 -0.1780 -0.3459  0.3166
13210TIP3    H161121   3.059   0.052   2.668 -0.7165  1.2233 -0.4708
13210TIP3    H261122   2.911   0.076   2.650 -1.1452 -1.1664 -0.4942
13211TIP3   OH261123   2.717   2.425  30.440  0.0731 -0.0583 -0.0101
13211TIP3    H161124   2.727   2.350  30.499  2.2896  0.7002  0.7007
13211TIP3    H261125   2.740   2.391  30.353  0.8154 -0.2909  0.2664
13212TIP3   OH261126   0.231   3.337   9.133 -0.0643 -0.5017  0.2043
13212TIP3    H161127   0.311   3.352   9.183 -1.4086 -1.2968  2.7939
13212TIP3    H261128   0.214   3.421   9.090  1.6682 -0.0513  0.3288
13213TIP3   OH261129   0.231   2.697  52.373 -0.6442 -0.1308 -0.3465
13213TIP3    H161130   0.184   2.762  52.425 -0.4578  0.6593 -1.1545
13213TIP3    H261131   0.285   2.650  52.437  0.5709  1.6927  0.0127
13214TIP3   OH261132   1.181   2.439  64.897 -0.4551  0.0275 -0.0782
13214TIP3    H161133   1.138   2.475  64.974 -0.8226 -0.2818 -0.1364
13214TIP3    H261134   1.132   2.360  64.876 -1.0196  0.6565 -1.2439
13215TIP3   OH261135   3.320   0.900  26.315 -0.0912 -0.0708 -0.3866
13215TIP3    H161136   3.374   0.821  26.316  0.1612  0.0875 -0.8762
13215TIP3    H261137   3.377   0.968  26.351 -0.2598 -0.0822 -0.0987
13216TIP3   OH261138   0.388   2.673  54.150 -0.4653 -0.3094 -0.7277
13216TIP3    H161139   0.310   2.725  54.131  0.3645  1.4094  0.3689
13216TIP3    H261140   0.450   2.699  54.082 -0.1043 -0.0091 -0.2784
13217TIP3   OH261141   0.990   1.831  11.723 -0.7177 -0.1919  0.3553
13217TIP3    H161142   1.016   1.752  11.676 -1.2490  0.6032 -1.3774
13217TIP3    H261143   0.894   1.829  11.721 -0.7382  0.5271  0.2024
13218TIP3   OH261144   0.909   1.166   9.124 -0.2341 -0.2101 -0.1073
13218TIP3    H161145   0.976   1.207   9.069  1.4920  0.2962  2.2263
13218TIP3    H261146   0.828   1.210   9.100  0.3854 -0.1032 -2.2757
13219TIP3   OH261147   2.665   1.379   2.360  0.4875  0.2161 -0.3524
13219TIP3    H161148   2.615   1.319   2.304 -0.0678  0.0915  0.2613
13219TIP3    H261149   2.654   1.343   2.449 -0.1954  1.4542  0.0839
13220TIP3   OH261150   0.553   1.413  20.537 -0.4711 -0.2105  0.1164
13220TIP3    H161151   0.520   1.339  20.486  0.7659 -0.4747 -0.3263
13220TIP3    H261152   0.621   1.452  20.481 -1.2173  1.3749  0.2590
13221TIP3   OH261153   0.585   1.915  13.938  0.1624 -0.1155  0.6018
13221TIP3    H161154   0.597   1.958  13.853  0.5503 -0.4714  0.4741
13221TIP3    H261155   0.646   1.842  13.937 -1.4363 -1.5220  0.2660
13222TIP3   OH261156   2.334   2.212  44.192  0.3656  0.2718  0.7393
13222TIP3    H161157   2.285   2.203  44.273 -3.3608  0.6439 -1.2186
13222TIP3    H261158   2.346   2.122  44.160  1.3636  0.1572  1.4113
13223TIP3   OH261159   3.406   1.502  59.044 -0.1911  0.3841  0.2602
13223TIP3    H161160   3.329   1.446  59.054 -0.8605  1.4805  1.5631
13223TIP3    H261161   3.378   1.570  58.983 -0.1372  0.5772  0.4496
13224TIP3   OH261162   2.060   2.920  20.534  0.1185  0.1473 -0.0745
13224TIP3    H161163   2.089   2.915  20.443  1.1937 -1.1177  0.3110
13224TIP3    H261164   2.103   2.998  20.569  0.2893  0.2172 -0.4337
13225TIP3   OH261165   1.469   0.109  16.439 -0.0790  0.0469 -0.0219
13225TIP3    H161166   1.514   0.191  16.459  1.3456 -0.6311 -0.3210
13225TIP3    H261167   1.488   0.092  16.347  0.3063 -1.0166  0.2396
13226TIP3   OH261168   2.072   1.610   5.253  0.0153  0.5669 -0.2347
13226TIP3    H161169   2.071   1.565   5.338  1.6829 -1.0167 -0.9805
13226TIP3    H261170   2.002   1.674   5.259 -1.4194 -1.0485  1.5189
13227TIP3   OH261171   2.324   3.213  65.670  0.3339  0.0071 -0.1437
13227TIP3    H161172   2.263   3.143  65.647  0.4601 -0.7122  1.5584
13227TIP3    H261173   2.308   3.281  65.605 -0.1062 -1.4048 -1.5829
13228TIP3   OH261174   1.234   0.367  21.609 -0.1685  0.7155  0.1632
13228TIP3    H161175   1.170   0.295  21.609 -0.0557  0.6118  0.6404
13228TIP3    H261176   1.211   0.419  21.532 -0.5342  0.4170  0.0648
13229TIP3   OH261177   3.142   3.302  56.552  0.0983  0.2126 -0.1714
13229TIP3    H161178   3.135   3.397  56.554 -0.1417  0.1927  0.1038
13229TIP3    H261179   3.216   3.284  56.494  2.3263  0.6723  2.3154
13230TIP3   OH261180   1.478   0.785  44.882 -0.0571 -0.4314 -0.6248
13230TIP3    H161181   1.545   0.790  44.814  0.9828  1.2864  0.4609
13230TIP3    H261182   1.402   0.830  44.845  0.2361 -0.1967 -0.9433
13231TIP3   OH261183   1.695   0.048  60.256 -0.4063 -0.6617  0.4524
13231TIP3    H161184   1.706   0.123  60.197 -1.5865 -1.7306 -1.2073
13231TIP3    H261185   1.695   0.087  60.344 -0.2505  1.1898 -0.3145
13232TIP3   OH261186   2.406   2.033  58.516  0.0281  0.0607  0.4822
13232TIP3    H161187   2.408   1.950  58.468 -1.2781  1.0785 -1.4850
13232TIP3    H261188   2.494   2.068  58.508  0.6003 -1.1214  1.3509
13233TIP3   OH261189   3.083   3.273  10.063 -0.2124  0.2122 -0.5596
13233TIP3    H161190   3.085   3.354  10.114 -1.8587  0.0212 -0.1146
13233TIP3    H261191   3.125   3.295   9.980  0.4628  1.1714  0.0157
13234TIP3   OH261192   2.379   3.324  11.306 -0.4373  0.0814  0.0201
13234TIP3    H161193   2.408   3.287  11.389 -2.8652  0.7036  1.2269
13234TIP3    H261194   2.284   3.314  11.307 -0.4297 -3.3024 -4.3706
13235TIP3   OH261195   3.110   1.893  21.338 -0.8700 -0.6313  0.0729
13235TIP3    H161196   3.135   1.916  21.427  2.0957  0.0164 -0.7873
13235TIP3    H261197   3.032   1.945  21.320 -0.0832  1.1658  1.5043
13236TIP3   OH261198   0.641   1.818  60.255  0.1916 -0.3133  0.1675
13236TIP3    H161199   0.570   1.809  60.318 -0.0211 -0.4740 -0.0965
13236TIP3    H261200   0.679   1.904  60.273 -1.7693  0.9910 -1.4427
13237TIP3   OH261201   0.778   2.213  43.706 -0.2436 -0.3577 -0.2322
13237TIP3    H161202   0.834   2.138  43.684  1.0453  0.8932 -1.4849
13237TIP3    H261203   0.689   2.184  43.687  0.2301 -1.5517 -0.7101
13238TIP3   OH261204   0.555   3.243   7.514 -0.4133  0.2033 -0.3806
13238TIP3    H161205   0.487   3.226   7.580 -1.4463  0.2157 -1.4045
13238TIP3    H261206   0.534   3.330   7.479  0.8030  0.6869  0.0639
13239TIP3   OH261207   1.130   0.088  19.302  0.3578  0.4831  0.0143
13239TIP3    H161208   1.151   0.051  19.387 -0.9933 -3.0374 -0.9867
13239TIP3    H261209   1.156   0.020  19.239 -1.0046  1.8445 -2.1762
13240TIP3   OH261210   0.460   1.253  49.488  0.1811  0.3857 -0.3270
13240TIP3    H161211   0.478   1.162  49.513 -1.9883  0.2819  1.0944
13240TIP3    H261212   0.392   1.247  49.420 -0.5617  0.9524  0.3538
13241TIP3   OH261213   2.709   3.258  43.760  0.0439 -0.7896 -0.4170
13241TIP3    H161214   2.757   3.221  43.686 -1.1267 -3.4206  0.0223
13241TIP3    H261215   2.740   3.207  43.835 -1.7068 -0.9508  0.2319
13242TIP3   OH261216   0.322   2.198  17.949  0.0500  0.1443 -0.4120
13242TIP3    H161217   0.245   2.149  17.919 -0.6499  0.4254  0.8417
13242TIP3    H261218   0.362   2.142  18.015 -0.5415  1.0539  0.7543
13243TIP3   OH261219   2.527   1.380   6.055  0.0673 -0.1856 -0.4288
13243TIP3    H161220   2.481   1.431   5.989  1.0042  0.6169 -0.4803
13243TIP3    H261221   2.603   1.433   6.079  0.7210 -1.2655 -0.0137
13244TIP3   OH261222   1.656   1.160  66.249  1.1435  0.2430  0.2640
13244TIP3    H161223   1.631   1.077  66.208  0.7130 -0.2191  1.4276
13244TIP3    H261224   1.586   1.220  66.226  2.1574  0.7380 -1.8111
13245TIP3   OH261225   2.942   1.221  61.211  0.4064  0.1067 -0.0824
13245TIP3    H161226   2.912   1.164  61.140 -0.2568  1.5199 -0.9868
13245TIP3    H261227   2.870   1.219  61.275 -0.7722  1.7965 -1.2550
13246TIP3   OH261228   2.773   0.584   6.550  0.3564 -0.5827  0.2609
13246TIP3    H161229   2.740   0.673   6.541 -0.5966 -1.0161 -0.8136
13246TIP3    H261230   2.860   0.586   6.511 -1.0205 -0.8543 -3.1838
13247TIP3   OH261231   1.067   1.562  18.672  0.6919 -0.1347 -0.6613
13247TIP3    H161232   1.027   1.498  18.614 -0.5381  0.3149 -0.3511
13247TIP3    H261233   1.024   1.645  18.649 -1.7697 -0.3494  2.5721
13248TIP3   OH261234   0.232   1.176  56.423 -0.0645  0.2090  0.3279
13248TIP3    H161235   0.312   1.213  56.385  1.0474 -2.2573  0.0554
13248TIP3    H261236   0.224   1.218  56.508  2.4721 -0.5786  1.0597
13249TIP3   OH261237   0.552   1.583  51.975  0.6186 -0.0198 -0.1063
13249TIP3    H161238   0.630   1.551  51.928  0.1229  0.4459 -1.2797
13249TIP3    H261239   0.481   1.528  51.943  0.1631  0.7304 -0.4046
13250TIP3   OH261240   1.945   0.250   8.548  0.0940  0.4624  0.1083
13250TIP3    H161241   1.870   0.278   8.497  0.9439  2.8428  0.0409
13250TIP3    H261242   1.908   0.222   8.632 -0.9721  0.1239 -0.4609
13251TIP3   OH261243   1.152   1.226   1.876 -0.0983 -0.5102  0.4588
13251TIP3    H161244   1.141   1.256   1.786  1.6785 -0.1197  0.3171
13251TIP3    H261245   1.083   1.271   1.925  0.0911  0.8085 -0.4130
13252TIP3   OH261246   0.296   0.178  53.783  0.4763  0.5387 -0.3898
13252TIP3    H161247   0.385   0.144  53.773  0.5436  0.4357  0.5400
13252TIP3    H261248   0.297   0.228  53.864 -1.0879 -2.1669  1.4991
13253TIP3   OH261249   1.154   1.477   0.919 -0.5339 -0.1571 -0.3515
13253TIP3    H161250   1.204   1.396   0.916 -0.9195 -0.3758 -1.3352
13253TIP3    H261251   1.146   1.498   1.012  0.2544 -0.8163 -0.1319
13254TIP3   OH261252   2.973   1.166  54.027 -0.3017 -0.1873 -0.3525
13254TIP3    H161253   2.964   1.227  53.953  0.1594 -0.4663 -0.6409
13254TIP3    H261254   2.883   1.149  54.055 -0.4593  0.2124 -0.6115
13255TIP3   OH261255   1.034   3.406  52.956  0.3011 -0.4646  0.5463
13255TIP3    H161256   0.969   3.357  53.007 -1.5786  1.3234 -0.0083
13255TIP3    H261257   1.074   3.466  53.020 -1.1464  0.8768  0.2604
13256TIP3   OH261258   0.734   0.202  62.332  0.2107 -0.2008  0.0626
13256TIP3    H161259   0.786   0.194  62.253 -0.3624  3.4340 -0.8932
13256TIP3    H261260   0.655   0.151  62.314 -0.1387  0.9574 -2.0050
13257TIP3   OH261261   1.833   0.188  49.754 -0.0926 -0.1496  0.5664
13257TIP3    H161262   1.828   0.220  49.665  0.6381  1.3153  1.0176
13257TIP3    H261263   1.888   0.110  49.748  0.1381  0.0675 -0.2284
13258TIP3   OH261264   1.504   0.568   3.394  0.2057  0.1821  0.4280
13258TIP3    H161265   1.415   0.538   3.372  1.4292 -2.3856 -1.5470
13258TIP3    H261266   1.553   0.488   3.411  3.1565  1.0540 -2.7395
13259TIP3   OH261267   2.738   0.621  52.377 -0.5013  0.1148  0.4346
13259TIP3    H161268   2.669   0.685  52.359 -2.1026 -1.1072  1.9291
13259TIP3    H261269   2.725   0.553  52.311 -0.5431  0.0026  0.5596
13260TIP3   OH261270   1.492   3.265  61.022 -0.3918  0.0661  0.3577
13260TIP3    H161271   1.528   3.250  61.109  0.6086  1.7464  0.2646
13260TIP3    H261272   1.410   3.311  61.038  1.0241  2.7586  0.4189
13261TIP3   OH261273   0.758   3.221   0.777  0.4126  0.3379  0.1241
13261TIP3    H161274   0.680   3.165   0.777  0.0950  0.7769 -0.0073
13261TIP3    H261275   0.829   3.162   0.750 -0.3908  0.6009 -2.9342
13262TIP3   OH261276   1.753   0.215  54.097  0.1529  0.2617 -0.3060
13262TIP3    H161277   1.697   0.271  54.151 -1.3132  0.0614 -1.5680
13262TIP3    H261278   1.831   0.268  54.081  0.1436  0.7370  1.0591
13263TIP3   OH261279   0.596   0.721  45.508 -0.4647 -0.4519  0.3400
13263TIP3    H161280   0.682   0.747  45.540 -0.1679 -0.9768 -0.0284
13263TIP3    H261281   0.571   0.791  45.447 -0.0671 -0.5573  0.0511
13264TIP3   OH261282   1.883   2.977  44.378  0.2256 -0.2134 -0.5643
13264TIP3    H161283   1.879   3.004  44.286 -3.1420 -0.3982 -0.6004
13264TIP3    H261284   1.919   3.052  44.424  1.1450  0.2133 -1.9269
13265TIP3   OH261285   2.144   3.124  48.529 -0.0691 -0.2204  0.1217
13265TIP3    H161286   2.210   3.094  48.466 -0.5442  1.5489 -1.2966
13265TIP3    H261287   2.092   3.046  48.549  1.8896 -1.4747  0.6490
13266TIP3   OH261288   0.441   1.965  55.338  0.0499  0.3423 -0.1877
13266TIP3    H161289   0.487   1.997  55.260  0.0707 -0.1725 -0.3926
13266TIP3    H261290   0.505   1.972  55.408  0.3645 -0.1313 -0.4212
13267TIP3   OH261291   3.368   2.187  50.047  0.0947 -0.1190  0.2777
13267TIP3    H161292   3.424   2.234  49.985  1.2014  0.7949  1.8831
13267TIP3    H261293   3.430   2.143  50.106 -0.8953 -3.7226 -1.1381
13268TIP3   OH261294   3.298   0.930  29.625 -0.4813  0.0101  0.3654
13268TIP3    H161295   3.311   0.987  29.549  0.4899 -0.5031  0.1323
13268TIP3    H261296   3.386   0.916  29.659 -0.8388 -0.3629  1.1558
13269TIP3   OH261297   1.929   2.541   0.241  0.4598 -0.8248 -0.4014
13269TIP3    H161298   1.907   2.599   0.168  2.2235  0.3163 -0.0894
13269TIP3    H261299   2.012   2.575   0.275 -0.9357 -0.4501  3.0295
13270TIP3   OH261300   2.686   1.130  16.013  0.1814  0.1494  0.1999
13270TIP3    H161301   2.648   1.210  16.050 -0.9340  0.0042 -0.6064
13270TIP3    H261302   2.612   1.083  15.976  1.1244 -0.1515 -1.4053
13271TIP3   OH261303   2.275   3.409  59.390  0.1486 -0.0640  0.0215
13271TIP3    H161304   2.193   3.457  59.374  0.5224  1.0435  1.2719
13271TIP3    H261305   2.267   3.331  59.336 -1.8771 -0.1298  0.3297
13272TIP3   OH261306   1.814   0.565  47.673  0.1232  0.7010 -0.3449
13272TIP3    H161307   1.840   0.565  47.765 -1.0926 -0.2028  0.0186
13272TIP3    H261308   1.897   0.572  47.625  1.0675 -1.5419  0.7914
13273TIP3   OH261309   2.979   3.364  50.814 -0.1649  0.3761  0.1035
13273TIP3    H161310   2.974   3.270  50.831 -0.0421  0.7069  2.3436
13273TIP3    H261311   3.044   3.373  50.744  0.1091 -1.1805  0.1295
13274TIP3   OH261312   0.220   0.726   7.703  0.1201  0.3193 -0.7471
13274TIP3    H161313   0.180   0.680   7.628 -0.9205  0.3772 -0.2402
13274TIP3    H261314   0.162   0.706   7.777 -0.1877  2.1903 -0.4457
13275TIP3   OH261315   0.638   0.577  58.942  0.0041  0.4421 -0.2616
13275TIP3    H161316   0.693   0.653  58.963 -0.6292  2.1429 -4.0650
13275TIP3    H261317   0.694   0.502  58.961  1.8615  1.9325  0.5377
13276TIP3   OH261318   1.886   0.176  48.924  0.7154 -0.1055  0.4233
13276TIP3    H161319   1.945   0.128  48.866  0.7327 -0.5173  0.7797
13276TIP3    H261320   1.801   0.171  48.881  0.5327 -1.2178  0.8904
13277TIP3   OH261321   3.256   2.958  17.151  0.4615  0.1777  0.4229
13277TIP3    H161322   3.265   3.053  17.145  0.2269  0.0952 -2.3010
13277TIP3    H261323   3.164   2.945  17.177  0.1165  0.6922 -0.5060
13278TIP3   OH261324   1.248   2.451  50.358  0.2305  0.2150  0.0313
13278TIP3    H161325   1.162   2.493  50.361 -0.3234 -0.8823 -0.0498
13278TIP3    H261326   1.274   2.443  50.450  0.2740  0.6057  0.0527
13279TIP3   OH261327   2.205   0.110  12.447  0.0694  0.1968 -0.2951
13279TIP3    H161328   2.199   0.142  12.537  0.4155 -0.3042 -0.0915
13279TIP3    H261329   2.115   0.092  12.422  0.0335 -0.2799  0.1759
13280TIP3   OH261330   0.191   0.760  47.690  0.7608  0.5673  0.0512
13280TIP3    H161331   0.241   0.787  47.613  1.0979 -0.6730 -0.1888
13280TIP3    H261332   0.191   0.837  47.747  0.0614  1.6838 -1.3922
13281TIP3   OH261333   2.921   0.996  55.301  0.7689 -0.2940  0.4482
13281TIP3    H161334   2.939   1.054  55.375  0.6109 -0.3051  0.4971
13281TIP3    H261335   2.994   1.010  55.241  0.5112  0.2948  0.2559
13282TIP3   OH261336   1.078   1.970  17.249 -0.0519 -0.6708  0.2724
13282TIP3    H161337   1.005   1.920  17.285 -0.3370 -0.3039  0.2128
13282TIP3    H261338   1.037   2.044  17.205  0.2906 -1.1954 -0.9675
13283TIP3   OH261339   1.419   0.936  17.214  0.2645 -0.0431  0.2413
13283TIP3    H161340   1.412   0.905  17.124 -0.8603 -0.9221  0.6084
13283TIP3    H261341   1.360   1.012  17.218 -0.7178 -0.7944  0.5416
13284TIP3   OH261342   3.069   2.737  63.805  0.5760  0.2409 -0.0244
13284TIP3    H161343   3.056   2.689  63.887 -1.0177  0.8395  0.1064
13284TIP3    H261344   3.155   2.708  63.774  0.0043 -2.1395  0.4195
13285TIP3   OH261345   1.976   0.898  11.240 -0.7201  0.3737  0.3166
13285TIP3    H161346   2.051   0.843  11.218 -1.1129 -0.4091  0.9003
13285TIP3    H261347   1.908   0.874  11.176 -0.7044  0.5887  0.2170
13286TIP3   OH261348   3.250   1.195  16.373  0.0871  0.5613 -0.1630
13286TIP3    H161349   3.160   1.167  16.387  0.1540 -0.5481 -1.6588
13286TIP3    H261350   3.297   1.114  16.352  1.0876  1.3280 -1.0138
13287TIP3   OH261351   2.184   1.867  45.163  0.5582 -0.8069  0.0207
13287TIP3    H161352   2.177   1.908  45.077 -0.7562  1.2920  1.0507
13287TIP3    H261353   2.190   1.940  45.225  1.9961 -2.2575  1.7198
13288TIP3   OH261354   2.988   2.037  49.338  0.3597  0.0900 -0.8811
13288TIP3    H161355   3.011   2.114  49.389  0.9517  0.0023 -1.0081
13288TIP3    H261356   3.068   1.985  49.335  0.0178 -0.4500 -0.9432
13289TIP3   OH261357   1.146   0.849   0.297 -0.4048  0.1945 -0.7125
13289TIP3    H161358   1.096   0.767   0.293 -1.3398  0.6824  0.3735
13289TIP3    H261359   1.160   0.863   0.391  0.9954  0.5514 -0.9528
13290TIP3   OH261360   2.952   2.675  50.139 -0.1143 -0.5872  0.3580
13290TIP3    H161361   2.877   2.674  50.198  0.0370 -1.6357  0.5631
13290TIP3    H261362   2.930   2.611  50.072 -0.4418  0.8469 -0.9575
13291TIP3   OH261363   1.143   0.182  59.672 -0.0261 -0.1111  0.4636
13291TIP3    H161364   1.212   0.235  59.633 -0.9880  1.2987  0.6039
13291TIP3    H261365   1.109   0.235  59.744  2.0058 -2.8038  3.6969
13292TIP3   OH261366   0.661   1.154  55.991  0.3198  0.6582 -0.1761
13292TIP3    H161367   0.598   1.087  56.015  1.1194 -0.3579 -0.8239
13292TIP3    H261368   0.616   1.237  56.008  0.0102  0.0178  2.5513
13293TIP3   OH261369   2.555   2.997  12.330 -0.0188  0.2783 -0.2953
13293TIP3    H161370   2.635   3.003  12.382  0.1009 -1.2754 -0.2624
13293TIP3    H261371   2.515   3.084  12.336  1.0716  0.7239  0.6394
13294TIP3   OH261372   1.880   3.256  44.227 -0.3723  0.4374  0.1334
13294TIP3    H161373   1.936   3.320  44.184  1.1471 -1.3980 -0.7728
13294TIP3    H261374   1.815   3.308  44.274  0.2228  2.5956 -1.2965
13295TIP3   OH261375   3.215   1.166  48.329 -0.1598 -0.7710  0.5787
13295TIP3    H161376   3.236   1.243  48.382  1.7409 -0.9108  0.1157
13295TIP3    H261377   3.231   1.194  48.238  0.5297 -1.6909  0.4017
13296TIP3   OH261378   0.167   1.319  42.032 -0.1204  0.0485  0.1524
13296TIP3    H161379   0.151   1.321  42.126 -1.3304 -0.7556 -0.0074
13296TIP3    H261380   0.262   1.328  42.023 -0.0385  0.6026  1.4197
13297TIP3   OH261381   2.430   0.296  67.170  0.3499  0.9558  0.4039
13297TIP3    H161382   2.445   0.203  67.153  0.9270  0.8949  1.2236
13297TIP3    H261383   2.368   0.298  67.243  0.1869  1.2194  0.2595
13298TIP3   OH261384   2.189   1.136   0.926 -0.3523  0.0357 -0.2059
13298TIP3    H161385   2.214   1.222   0.891 -0.1353 -0.6928 -1.9795
13298TIP3    H261386   2.272   1.095   0.950 -0.1692 -0.6253 -1.8004
13299TIP3   OH261387   0.878   2.316  20.814 -0.0307  0.0652  0.2682
13299TIP3    H161388   0.971   2.334  20.799 -0.7126  4.3580  0.0040
13299TIP3    H261389   0.837   2.332  20.729 -1.4556  3.2367  1.4016
13300TIP3   OH261390   1.052   2.115  57.841  0.1991  0.2659  0.4840
13300TIP3    H161391   1.081   2.093  57.752  0.2145  0.8298  0.3510
13300TIP3    H261392   1.113   2.067  57.898  1.7169  1.7900  0.2068
13301TIP3   OH261393   1.730   2.951  55.868  0.9871  0.2786  0.5528
13301TIP3    H161394   1.707   2.993  55.785  3.1674  0.2208 -0.1386
13301TIP3    H261395   1.739   3.024  55.929 -2.2391  0.2303  1.2816
13302TIP3   OH261396   2.033   2.400  45.200 -0.6113  0.1566 -0.2720
13302TIP3    H161397   1.992   2.423  45.116 -0.5974 -1.7115 -0.8252
13302TIP3    H261398   2.039   2.305  45.198  1.4677  0.2167  0.8924
13303TIP3   OH261399   0.463   1.441  21.048  0.6240 -0.1096 -0.3995
13303TIP3    H161400   0.388   1.381  21.047 -0.0692  0.6259  1.5571
13303TIP3    H261401   0.525   1.404  20.985  0.4951 -3.2222  1.1173
13304TIP3   OH261402   0.600   1.749   9.466 -0.7098 -0.4939 -0.2948
13304TIP3    H161403   0.586   1.821   9.404  1.4522 -0.5383 -0.9082
13304TIP3    H261404   0.693   1.755   9.488 -1.0807 -1.5042  1.6978
13305TIP3   OH261405   1.682   0.545   3.679 -0.8195 -1.4689  0.2011
13305TIP3    H161406   1.590   0.538   3.705 -0.6798 -1.8757  0.6123
13305TIP3    H261407   1.681   0.534   3.584 -1.3217 -0.2247  0.0424
13306TIP3   OH261408   0.597   1.186  66.283  0.4845 -0.3849  0.0959
13306TIP3    H161409   0.652   1.232  66.346 -0.0955  1.1475 -0.4665
13306TIP3    H261410   0.644   1.192  66.200 -0.4501  0.9008 -0.3797
13307TIP3   OH261411   3.006   0.061  15.213 -0.1541 -0.1961 -0.7491
13307TIP3    H161412   2.960   0.070  15.296 -0.9397 -3.6515 -0.6773
13307TIP3    H261413   2.941   0.082  15.146 -0.1524  0.4391 -0.5581
13308TIP3   OH261414   2.629   1.202  42.088 -0.2238 -0.4383  0.0238
13308TIP3    H161415   2.611   1.113  42.057 -1.3488  0.4201 -2.0771
13308TIP3    H261416   2.566   1.216  42.159  0.1944 -1.4180  0.6041
13309TIP3   OH261417   0.892   1.260  55.099  0.4033 -0.1113 -0.0367
13309TIP3    H161418   0.916   1.339  55.148  1.8271 -0.5961  0.0999
13309TIP3    H261419   0.912   1.282  55.008  2.1803 -0.7716  0.1607
13310TIP3   OH261420   3.319   3.326  44.376 -0.4785  0.2709 -0.1334
13310TIP3    H161421   3.357   3.393  44.318 -1.7316  0.7199 -0.4871
13310TIP3    H261422   3.351   3.243  44.341  0.2830  0.6373 -0.3190
13311TIP3   OH261423   1.277   3.446  13.744  0.3975  0.0979  0.3104
13311TIP3    H161424   1.323   3.379  13.796 -2.8375 -0.5027  2.6809
13311TIP3    H261425   1.228   3.396  13.680  0.0250  0.4002  0.3593
13312TIP3   OH261426   3.357   0.557  46.573 -0.2200  0.6257 -0.3217
13312TIP3    H161427   3.306   0.588  46.498 -0.8985  0.7546  0.1740
13312TIP3    H261428   3.329   0.614  46.645  0.5739  0.6434 -0.0141
13313TIP3   OH261429   2.358   1.239  20.773  0.0510  0.0132  0.3332
13313TIP3    H161430   2.408   1.245  20.692  1.9247  0.6771  1.4777
13313TIP3    H261431   2.289   1.304  20.764  0.1269 -0.0479 -0.7809
13314TIP3   OH261432   0.514   2.165  50.075  0.4664  0.0151 -0.4840
13314TIP3    H161433   0.533   2.125  49.990  2.3604  0.5199 -0.3599
13314TIP3    H261434   0.525   2.259  50.059  4.1887 -0.0083  0.9392
13315TIP3   OH261435   2.475   1.772   4.666  0.5033 -0.0628  0.2810
13315TIP3    H161436   2.446   1.814   4.746  1.3991 -0.4979  0.8454
13315TIP3    H261437   2.458   1.836   4.597 -0.9686  0.0237  0.6957
13316TIP3   OH261438   1.591   2.361   3.176  0.2407 -0.3836  0.1784
13316TIP3    H161439   1.535   2.357   3.253  1.6289 -1.2573  1.1873
13316TIP3    H261440   1.534   2.333   3.104 -0.6623 -1.1178  1.1406
13317TIP3   OH261441   1.655   1.775  62.111  0.6281 -0.1230 -0.0280
13317TIP3    H161442   1.735   1.771  62.059 -0.4319  0.0756 -1.7430
13317TIP3    H261443   1.585   1.752  62.050 -1.0411  3.1742  0.4009
13318TIP3   OH261444   1.870   3.291   0.881 -0.1115  0.2366  0.2357
13318TIP3    H161445   1.784   3.271   0.918 -0.3210  0.8397  0.0848
13318TIP3    H261446   1.850   3.343   0.803  0.3618 -0.2274 -0.2056
13319TIP3   OH261447   1.111   1.700  58.386  0.0746  0.2669 -0.4031
13319TIP3    H161448   1.137   1.693  58.294  0.8646 -0.7636 -0.1222
13319TIP3    H261449   1.025   1.657  58.390  1.0610 -1.7930 -0.2749
13320TIP3   OH261450   0.195   3.255  22.797 -0.0467 -0.2354 -0.8359
13320TIP3    H161451   0.173   3.253  22.890 -0.2008 -2.3456 -0.8735
13320TIP3    H261452   0.112   3.238  22.752  0.2401 -0.3737 -1.3233
13321TIP3   OH261453   2.751   0.901  14.486 -0.5309  0.4777  0.5363
13321TIP3    H161454   2.794   0.955  14.419  1.0947 -0.2042  0.9804
13321TIP3    H261455   2.772   0.944  14.569 -1.8010  0.8283  0.6978
13322TIP3   OH261456   0.345   3.260  51.494 -0.0254 -0.4702  0.6072
13322TIP3    H161457   0.390   3.304  51.566 -1.8788  0.7387  1.1149
13322TIP3    H261458   0.258   3.240  51.528 -1.0109  0.2395 -1.3159
13323TIP3   OH261459   2.745   3.103  21.884 -0.1674  0.5105  0.5933
13323TIP3    H161460   2.815   3.084  21.946  1.0810  1.6380 -0.4013
13323TIP3    H261461   2.731   3.198  21.893 -1.2025  0.3877  0.3943
13324TIP3   OH261462   1.202   0.019  17.796  0.3524 -0.0401 -0.2247
13324TIP3    H161463   1.207   0.113  17.813 -0.4281  0.0976 -0.6792
13324TIP3    H261464   1.265  -0.021  17.857 -1.3062  0.5267  1.9697
13325TIP3   OH261465   1.937   0.893  66.835 -0.1185 -0.5026 -0.0435
13325TIP3    H161466   1.967   0.829  66.770  1.2529 -0.0656  0.1296
13325TIP3    H261467   1.988   0.872  66.914 -0.7438 -0.1361  0.4618
13326TIP3   OH261468   0.908   2.538  54.388  0.3962 -0.0079  0.5242
13326TIP3    H161469   0.915   2.460  54.444  0.8586  0.8760  1.7388
13326TIP3    H261470   0.968   2.601  54.427  0.9919  0.5343 -1.1970
13327TIP3   OH261471   3.269   0.947  16.997 -0.9551 -0.1279  0.0835
13327TIP3    H161472   3.289   0.880  17.062  0.9319 -0.7255 -1.0329
13327TIP3    H261473   3.222   0.901  16.928  1.4233 -0.6821 -1.2727
13328TIP3   OH261474   1.965   1.119  65.794 -0.4755 -0.1447 -0.0443
13328TIP3    H161475   1.997   1.197  65.749 -0.1370  0.3881  1.0742
13328TIP3    H261476   2.031   1.052  65.777 -0.1708  0.1523 -0.0280
13329TIP3   OH261477   0.230   3.141   7.940 -0.2359  0.2770 -0.3113
13329TIP3    H161478   0.325   3.130   7.951 -0.2612  0.6069  0.3226
13329TIP3    H261479   0.197   3.149   8.030 -1.0058 -0.8765 -0.4854
13330TIP3   OH261480   2.070   1.665   6.308 -0.1570  0.1858 -0.5634
13330TIP3    H161481   2.033   1.692   6.224 -0.9134  1.0201  0.0143
13330TIP3    H261482   2.152   1.714   6.314 -1.1795  1.9331  0.1564
13331TIP3   OH261483   0.256   1.463  17.230  0.1422 -0.2669 -0.3080
13331TIP3    H161484   0.176   1.429  17.270 -0.8671  1.5425 -0.6634
13331TIP3    H261485   0.314   1.480  17.304 -1.4032  2.2886  0.4635
13332TIP3   OH261486   1.482   2.546   2.528 -0.3503  0.0334 -0.5218
13332TIP3    H161487   1.506   2.628   2.573  3.6252 -1.4198  0.4543
13332TIP3    H261488   1.422   2.502   2.588  0.7466  0.4606  0.9357
13333TIP3   OH261489   1.155   3.100  43.091 -0.5838 -0.4076  0.3088
13333TIP3    H161490   1.075   3.070  43.134 -0.8957 -0.2234 -0.1350
13333TIP3    H261491   1.208   3.020  43.080 -0.8235 -0.5748  0.3575
13334TIP3   OH261492   1.950   0.382  15.350  0.1791  0.5973 -0.9608
13334TIP3    H161493   2.022   0.338  15.394  0.2997  2.8988  1.2992
13334TIP3    H261494   1.991   0.448  15.295 -0.1367  1.8787  0.2904
13335TIP3   OH261495   2.455   1.367  17.748 -0.1211 -0.1741  0.0635
13335TIP3    H161496   2.541   1.389  17.784  0.5144 -0.8456 -0.9806
13335TIP3    H261497   2.415   1.451  17.727 -0.0331  0.1774  1.2218
13336TIP3   OH261498   1.172   0.155  53.827 -0.5676  0.2974 -0.0332
13336TIP3    H161499   1.158   0.119  53.914  0.6443 -0.1799 -0.0061
13336TIP3    H261500   1.246   0.215  53.837  1.6618 -2.0451 -1.2352
13337TIP3   OH261501   2.835   1.430  55.427  0.0726  0.2454  0.5087
13337TIP3    H161502   2.853   1.362  55.361  0.6355 -0.8503  1.7402
13337TIP3    H261503   2.796   1.502  55.377 -0.2905 -0.8683 -0.8878
13338TIP3   OH261504   0.579   2.753  49.409  0.0054  0.1483  0.0933
13338TIP3    H161505   0.508   2.746  49.472 -1.6831  1.2285 -1.5916
13338TIP3    H261506   0.646   2.692  49.440 -1.2937 -0.2718  2.1832
13339TIP3   OH261507   1.077   0.186  43.383 -0.0450 -0.0546  0.2603
13339TIP3    H161508   1.027   0.202  43.303 -0.2402  0.4658  0.4801
13339TIP3    H261509   1.147   0.126  43.357  0.6148  1.0367 -0.5739
13340TIP3   OH261510   0.139   1.048  50.379  0.2811 -0.0994  0.6352
13340TIP3    H161511   0.213   0.989  50.364  0.3448  0.3089 -0.7949
13340TIP3    H261512   0.148   1.115  50.312  0.5561  1.9364  2.5810
13341TIP3   OH261513   0.661   2.346  17.094  0.9548  0.0670  0.6388
13341TIP3    H161514   0.699   2.431  17.072  2.0805 -0.2906  1.1184
13341TIP3    H261515   0.578   2.367  17.138  1.5663  0.9470  1.4019
13342TIP3   OH261516   0.566   0.011   9.128 -0.0075  0.2803 -0.6059
13342TIP3    H161517   0.570   0.003   9.223 -0.5410  1.7999 -0.4224
13342TIP3    H261518   0.604  -0.070   9.095  0.7905  0.0129  0.8997
13343TIP3   OH261519   2.761   3.024  59.435  0.2861 -0.4522 -0.0222
13343TIP3    H161520   2.764   3.116  59.408  0.2321 -0.4090  0.1179
13343TIP3    H261521   2.796   3.024  59.524 -1.9103 -0.2195  0.8960
13344TIP3   OH261522   0.013   0.803  59.283 -0.0786  0.6244  0.3756
13344TIP3    H161523  -0.022   0.765  59.202  0.6561  3.0814 -1.2113
13344TIP3    H261524   0.054   0.730  59.328 -1.9559 -1.1474 -0.6388
13345TIP3   OH261525   2.932   3.218   9.020 -0.3268 -0.3707  0.0013
13345TIP3    H161526   2.850   3.196   8.974  0.8389 -1.8532 -1.5187
13345TIP3    H261527   2.908   3.219   9.112 -1.8218 -2.1338 -0.3030
13346TIP3   OH261528   0.884   2.749  33.666  0.0745 -0.3426  0.0213
13346TIP3    H161529   0.952   2.696  33.706  0.3545  0.3392  0.4617
13346TIP3    H261530   0.900   2.743  33.572  1.3367  0.5806  0.1551
13347TIP3   OH261531   1.747   0.358  60.389 -0.0620  0.2854  0.2835
13347TIP3    H161532   1.669   0.304  60.403 -0.6981  0.3933 -2.2820
13347TIP3    H261533   1.785   0.324  60.308  2.4822  0.3943  1.3386
13348TIP3   OH261534   0.106   3.380  20.227  0.1742 -0.5257 -0.0005
13348TIP3    H161535   0.154   3.297  20.222  0.6686 -0.2778  0.5118
13348TIP3    H261536   0.015   3.354  20.241  0.5214 -0.9843  1.6487
13349TIP3   OH261537   1.424   1.067  61.297  0.5537  0.4702  0.5887
13349TIP3    H161538   1.334   1.042  61.319  0.5224  0.2787  0.2412
13349TIP3    H261539   1.475   1.041  61.374  0.3404  0.4356  0.7217
13350TIP3   OH261540   0.411   0.654  15.994 -0.0925  0.0266 -0.3758
13350TIP3    H161541   0.439   0.639  16.085 -2.1526 -2.4920 -0.0382
13350TIP3    H261542   0.437   0.744  15.975 -0.3873  0.9551  3.0230
13351TIP3   OH261543   1.154   3.207  20.335 -0.6131  0.1514 -0.7252
13351TIP3    H161544   1.178   3.133  20.280 -0.6096 -0.4662  0.0839
13351TIP3    H261545   1.058   3.206  20.337 -0.6037 -0.4822  0.1162
13352TIP3   OH261546   1.482   2.583  11.137  0.1329  0.0653  0.0528
13352TIP3    H161547   1.561   2.627  11.168  0.3210  0.0419 -0.3897
13352TIP3    H261548   1.425   2.654  11.106 -0.0501  0.0870  0.4225
13353TIP3   OH261549   1.668   2.274  56.860  0.2633  0.3698  0.0722
13353TIP3    H161550   1.614   2.201  56.830 -1.4778  2.6495 -2.8680
13353TIP3    H261551   1.758   2.244  56.848 -0.4012 -1.2085 -1.2564
13354TIP3   OH261552   2.569   1.780  62.840  0.1743 -0.0464 -0.1619
13354TIP3    H161553   2.487   1.776  62.792  0.6368 -1.4547 -0.8988
13354TIP3    H261554   2.613   1.859  62.806 -1.2886  1.3618  1.0335
13355TIP3   OH261555   1.012   3.377  43.277  0.2649 -0.1421 -0.0492
13355TIP3    H161556   1.023   3.448  43.339  0.4237 -0.1466 -0.0727
13355TIP3    H261557   1.062   3.403  43.200 -1.1047  0.5590 -0.7564
13356TIP3   OH261558   1.258   2.959  51.660 -0.4351  0.1606  0.3018
13356TIP3    H161559   1.351   2.944  51.642 -0.5195  0.5886 -0.4999
13356TIP3    H261560   1.248   2.933  51.752  0.5611  0.4965  0.5178
13357TIP3   OH261561   0.843   2.930  15.111 -0.1149 -0.2898 -0.8658
13357TIP3    H161562   0.935   2.907  15.101 -0.0983 -1.4490  1.3471
13357TIP3    H261563   0.844   3.025  15.127  0.7618 -0.3995 -0.2181
13358TIP3   OH261564   1.262   3.251   9.736 -0.1585 -0.5436  0.3604
13358TIP3    H161565   1.234   3.240   9.827  1.6107  0.3964  1.0823
13358TIP3    H261566   1.284   3.162   9.707  2.7340 -0.5570  2.1410
13359TIP3   OH261567   3.224   2.832  51.228  0.2087 -0.2883  0.4133
13359TIP3    H161568   3.287   2.785  51.174  1.3686  1.5693  0.0651
13359TIP3    H261569   3.270   2.911  51.256 -1.4950  0.4373  1.3458
13360TIP3   OH261570   0.186   0.061  41.881  0.1489  0.4246 -0.0239
13360TIP3    H161571   0.194   0.152  41.852 -0.8181  0.1151 -1.3667
13360TIP3    H261572   0.128   0.021  41.816 -0.3230 -0.8769  1.1660
13361TIP3   OH261573   0.948   2.847  44.221  0.1727  0.4218  0.2837
13361TIP3    H161574   0.936   2.939  44.244  3.5902  0.7361  1.4096
13361TIP3    H261575   1.003   2.812  44.291 -1.0150 -2.5266 -0.1248
13362TIP3   OH261576   2.449   1.554  12.087  0.0690 -0.2041 -0.2912
13362TIP3    H161577   2.465   1.628  12.146 -0.4083 -1.2477  1.2104
13362TIP3    H261578   2.364   1.574  12.047  0.4833  0.6028 -0.7983
13363TIP3   OH261579   2.342   3.046  47.083  0.3747 -0.2183  0.1977
13363TIP3    H161580   2.311   3.076  47.168  1.3229  0.3774  0.3439
13363TIP3    H261581   2.351   2.951  47.093 -2.4358 -0.6278 -0.1975
13364TIP3   OH261582   3.288   0.718   7.364 -0.9712 -0.1714 -0.2051
13364TIP3    H161583   3.235   0.670   7.300 -1.5826  1.5422 -1.0518
13364TIP3    H261584   3.243   0.705   7.447 -2.1159  0.3255 -0.7187
13365TIP3   OH261585   3.271   0.841  49.132  0.0687 -0.2923  0.0171
13365TIP3    H161586   3.241   0.759  49.094  0.2337 -0.9016  1.1341
13365TIP3    H261587   3.288   0.898  49.058  0.9289 -1.6202 -0.8390
13366TIP3   OH261588   0.544   2.655  56.454 -0.0006  0.0987 -0.1894
13366TIP3    H161589   0.576   2.681  56.541 -0.9011 -0.0397  0.1978
13366TIP3    H261590   0.621   2.624  56.408  0.3717 -0.4882  0.8111
13367TIP3   OH261591   0.931   0.041  66.632  0.3969 -0.3798 -0.0379
13367TIP3    H161592   0.998   0.101  66.601  1.5700 -0.2667  2.5136
13367TIP3    H261593   0.979  -0.037  66.661 -0.5081 -0.2486  1.9846
13368TIP3   OH261594   1.783   0.062  53.078  0.9189 -0.8077  0.2564
13368TIP3    H161595   1.758   0.007  53.152 -1.4962  0.3510  0.3696
13368TIP3    H261596   1.733   0.028  53.004 -2.1974  2.2507  0.7273
13369TIP3   OH261597   0.929   2.987  43.231 -0.8132 -0.0350  0.1997
13369TIP3    H161598   0.902   3.054  43.294 -2.5154  0.5390 -1.0594
13369TIP3    H261599   0.918   2.904  43.277 -0.8759  0.4397  1.0469
13370TIP3   OH261600   1.558   1.619  20.252  0.5895 -0.3400  0.0663
13370TIP3    H161601   1.492   1.554  20.276  1.2874 -0.3924  1.9799
13370TIP3    H261602   1.549   1.688  20.317  0.9086  0.7668 -1.0217
13371TIP3   OH261603   3.447   2.113   2.634  0.1528 -1.0531 -0.0546
13371TIP3    H161604   3.389   2.142   2.563 -0.1559 -2.5378 -0.4642
13371TIP3    H261605   3.427   2.170   2.707  0.9166  0.9362 -1.3274
13372TIP3   OH261606   3.035   0.083  51.204  0.0569 -0.2505  0.5725
13372TIP3    H161607   2.974   0.037  51.261  0.2585  0.3617  1.2966
13372TIP3    H261608   3.046   0.169  51.245  1.6295 -0.4557  0.6258
13373TIP3   OH261609   1.180   3.409  64.954  0.1030  0.3417 -0.2801
13373TIP3    H161610   1.144   3.424  64.867 -1.1424  2.1163  0.4766
13373TIP3    H261611   1.191   3.314  64.960 -1.5613  0.0128 -1.6864
13374TIP3   OH261612   1.908   0.705  50.464  0.3625  0.2007 -0.3227
13374TIP3    H161613   1.896   0.613  50.441  0.8960 -0.7850  2.7932
13374TIP3    H261614   1.819   0.740  50.472  0.1233 -0.3745 -0.4313
13375TIP3   OH261615   1.147   1.125  61.419 -0.3085  0.4409  0.2850
13375TIP3    H161616   1.115   1.043  61.381  1.3467 -0.7231  1.2961
13375TIP3    H261617   1.157   1.106  61.512  1.7259  1.2090  0.2726
13376TIP3   OH261618   0.698   2.406  43.941 -0.0072  0.3959 -0.0555
13376TIP3    H161619   0.733   2.326  43.904  0.4569 -0.2783  1.7253
13376TIP3    H261620   0.605   2.387  43.954 -0.3514  0.9317 -1.5604
13377TIP3   OH261621   2.944   0.344  60.261  0.1336  0.1246  0.3163
13377TIP3    H161622   2.892   0.412  60.305  0.2847  1.3951 -1.3694
13377TIP3    H261623   2.991   0.301  60.333 -3.1227 -1.0809  1.9168
13378TIP3   OH261624   2.768   2.818   5.835 -0.6597 -0.2778 -0.1056
13378TIP3    H161625   2.765   2.725   5.859 -0.6963 -0.1736  0.3025
13378TIP3    H261626   2.774   2.818   5.740  0.7917 -0.7223 -0.0373
13379TIP3   OH261627   3.222   2.441  51.465  0.9249  0.7317 -0.1075
13379TIP3    H161628   3.149   2.386  51.494  1.4189  0.7369  1.2176
13379TIP3    H261629   3.183   2.503  51.404  0.0432 -0.0029 -0.3100
13380TIP3   OH261630   0.829   0.015  59.055  0.1707 -0.2782 -0.1508
13380TIP3    H161631   0.775  -0.052  59.097  0.7130  0.1711  1.3194
13380TIP3    H261632   0.825   0.089  59.116  1.4272  0.2011 -0.6352
13381TIP3   OH261633   2.690   2.403  62.117  0.0396  0.3272 -0.7585
13381TIP3    H161634   2.648   2.318  62.129  0.3567  0.2427 -0.2386
13381TIP3    H261635   2.679   2.421  62.023 -2.4936  1.0229 -0.4058
13382TIP3   OH261636   1.097   2.616  14.896 -0.2862  0.2402 -0.1556
13382TIP3    H161637   1.043   2.553  14.848  0.5189 -2.1880  1.8909
13382TIP3    H261638   1.143   2.665  14.828 -1.4684 -0.9064 -1.8632
13383TIP3   OH261639   1.969   0.466  53.245  0.2208  0.8094 -0.1790
13383TIP3    H161640   1.913   0.450  53.170 -0.2324  0.7132  0.1793
13383TIP3    H261641   1.987   0.560  53.242 -1.8486  1.3018  0.9960
13384TIP3   OH261642   1.203   1.279  63.914 -0.4388 -0.0108  0.3227
13384TIP3    H161643   1.290   1.238  63.916 -0.7319 -0.8444 -1.8983
13384TIP3    H261644   1.221   1.372  63.930  1.2863  0.3336 -2.8465
13385TIP3   OH261645   1.449   2.642  54.322 -0.2450  0.1273 -0.2340
13385TIP3    H161646   1.392   2.677  54.390  0.2745 -0.2462  0.4036
13385TIP3    H261647   1.415   2.554  54.305  0.9957 -0.6651  1.1978
13386TIP3   OH261648   2.284   1.707  64.492 -0.1282 -0.5728  0.2271
13386TIP3    H161649   2.280   1.788  64.441  0.2829 -0.2084  0.7627
13386TIP3    H261650   2.200   1.664  64.475 -0.4988  0.1380  0.2123
13387TIP3   OH261651   2.962   0.385  13.554  0.1537 -0.0635 -0.5136
13387TIP3    H161652   2.976   0.318  13.487  0.6505  1.2542 -1.7568
13387TIP3    H261653   2.874   0.418  13.537 -0.6134 -1.2105  0.8966
13388TIP3   OH261654   3.258   2.148  16.302 -0.0938 -0.1359 -0.7212
13388TIP3    H161655   3.348   2.175  16.285 -0.0959 -0.1184 -0.7048
13388TIP3    H261656   3.261   2.052  16.303  0.0629 -0.1267  0.0107
13389TIP3   OH261657   0.676   1.804  10.755  0.3078 -0.5482  1.0973
13389TIP3    H161658   0.592   1.846  10.736  1.1515 -0.0125 -2.2163
13389TIP3    H261659   0.653   1.724  10.801 -2.2186 -1.1966 -1.0126
13390TIP3   OH261660   0.625   2.164  11.809  0.1869 -0.1054  0.0010
13390TIP3    H161661   0.705   2.142  11.857 -0.2266  0.1162  0.8089
13390TIP3    H261662   0.568   2.205  11.875  0.2514  1.7851 -1.0524
13391TIP3   OH261663   3.143   1.832   2.258  0.5251 -0.6730  0.6522
13391TIP3    H161664   3.118   1.782   2.180 -0.5297  1.1312 -0.2481
13391TIP3    H261665   3.237   1.845   2.250  0.6206 -1.5330  0.3237
13392TIP3   OH261666   0.754   0.557  44.525 -0.6285  0.0485  0.7672
13392TIP3    H161667   0.816   0.515  44.465 -0.1236  2.0017 -0.1730
13392TIP3    H261668   0.743   0.494  44.596  0.7903 -1.2500 -0.0895
13393TIP3   OH261669   0.791   3.001   5.090 -0.5840  0.2239  0.2521
13393TIP3    H161670   0.707   3.046   5.090 -0.3112  0.7931 -1.1925
13393TIP3    H261671   0.855   3.069   5.113 -0.4571 -0.0618  0.7494
13394TIP3   OH261672   2.875   0.824  52.141  0.2889 -0.0124 -0.0775
13394TIP3    H161673   2.875   0.728  52.132 -0.4301 -0.2017  1.6000
13394TIP3    H261674   2.885   0.856  52.051  2.5827 -1.6420 -0.5058
13395TIP3   OH261675   1.836   1.227  17.794  0.1063 -0.5168 -0.2276
13395TIP3    H161676   1.813   1.201  17.884 -0.5227 -0.6090 -0.4143
13395TIP3    H261677   1.787   1.308  17.779 -1.0342 -1.3165 -1.0285
13396TIP3   OH261678   2.754   0.946  14.062  0.2069 -0.1643  0.4746
13396TIP3    H161679   2.818   0.908  14.001 -0.3853  0.8716 -0.8484
13396TIP3    H261680   2.806   0.994  14.126  0.7927  1.0226 -0.8346
13397TIP3   OH261681   2.710   2.302   9.762 -0.2460  0.3662  0.1875
13397TIP3    H161682   2.720   2.292   9.857  0.2811 -3.9657 -0.1120
13397TIP3    H261683   2.621   2.274   9.744  0.4789 -1.5295 -0.7312
13398TIP3   OH261684   2.759   1.174   2.664  0.0609 -0.1816  0.2972
13398TIP3    H161685   2.837   1.122   2.683  1.1792  1.5417  0.5921
13398TIP3    H261686   2.789   1.264   2.667 -1.6252  0.4701 -1.1787
13399TIP3   OH261687   1.925   2.283  49.348  0.2852  0.2279 -0.0899
13399TIP3    H161688   1.921   2.187  49.346  0.0109  0.2342  0.0770
13399TIP3    H261689   1.953   2.304  49.437 -0.1611  0.3151  0.0346
13400TIP3   OH261690   1.920   0.201  10.944  0.3788  0.1552 -0.1848
13400TIP3    H161691   2.000   0.253  10.953  0.4120  0.2509 -0.9935
13400TIP3    H261692   1.951   0.114  10.922  0.2567  0.2014 -0.5361
13401TIP3   OH261693   2.833   1.552   5.967  0.2213 -0.2687  0.1101
13401TIP3    H161694   2.807   1.642   5.983  1.1824 -0.1724  1.2039
13401TIP3    H261695   2.825   1.541   5.872 -0.0845  0.9027 -0.0065
13402TIP3   OH261696   1.745   0.787  50.844 -0.4039  0.1154  0.5185
13402TIP3    H161697   1.662   0.804  50.799 -0.0536  1.5517  0.3796
13402TIP3    H261698   1.767   0.697  50.819 -0.8461  0.4411 -1.1718
13403TIP3   OH261699   0.297   1.459  17.543  0.4107  0.1132  0.4801
13403TIP3    H161700   0.206   1.446  17.572 -0.6507  0.3141 -2.4643
13403TIP3    H261701   0.347   1.395  17.594 -1.2550  0.3741  2.5868
13404TIP3   OH261702   2.013   2.350  59.250 -0.6227 -0.6965  0.1144
13404TIP3    H161703   2.059   2.274  59.215  0.1126  0.5170 -1.7257
13404TIP3    H261704   1.926   2.347  59.208 -0.0030  0.3404 -1.3643
13405TIP3   OH261705   3.330   3.206  57.709  0.6550  0.3225  0.2487
13405TIP3    H161706   3.371   3.266  57.772  1.0004 -0.0490  0.3851
13405TIP3    H261707   3.246   3.247  57.688  0.1097  0.0158  1.6643
13406TIP3   OH261708   1.439   0.215  44.093  0.1562  0.0310 -0.3376
13406TIP3    H161709   1.376   0.147  44.115  0.6542 -1.1501 -2.3408
13406TIP3    H261710   1.524   0.179  44.117  0.2485  1.0206  0.9622
13407TIP3   OH261711   0.824   2.419  58.975  0.2347 -0.1796 -0.0101
13407TIP3    H161712   0.799   2.330  58.949  3.2110 -1.1527  0.0527
13407TIP3    H261713   0.830   2.416  59.070  0.1199  0.1467  0.0100
13408TIP3   OH261714   3.017   0.595  56.074 -0.6070 -0.4668  0.2529
13408TIP3    H161715   2.960   0.607  55.998 -2.8269  0.5546  1.9553
13408TIP3    H261716   3.068   0.676  56.080 -0.8164 -0.3284  0.1518
13409TIP3   OH261717   2.675   0.987  43.565 -0.1140  0.4922 -0.3648
13409TIP3    H161718   2.640   0.899  43.572 -1.3180  1.0250  0.8581
13409TIP3    H261719   2.727   0.986  43.485  0.5206 -1.5099  0.0227
13410TIP3   OH261720   0.299   1.680  60.144  0.4738  0.1996 -0.2394
13410TIP3    H161721   0.370   1.648  60.199 -1.2311  0.2288  2.1114
13410TIP3    H261722   0.277   1.766  60.180 -0.0745  0.6726 -1.6220
13411TIP3   OH261723   1.810   2.103  44.854 -0.2740 -0.6326  0.1274
13411TIP3    H161724   1.899   2.139  44.854  1.2512 -3.9678  0.3523
13411TIP3    H261725   1.763   2.153  44.920  0.6887  2.6480 -1.4651
13412TIP3   OH261726   0.343   1.489   8.926 -0.2976 -0.1066 -0.6096
13412TIP3    H161727   0.265   1.440   8.900 -0.5072 -0.7155  1.0199
13412TIP3    H261728   0.309   1.576   8.948 -0.8736 -0.8134  1.6477
13413TIP3   OH261729   1.777   1.215  11.700  0.0696 -0.0544  0.5892
13413TIP3    H161730   1.805   1.124  11.701  0.3501  0.0361  1.1830
13413TIP3    H261731   1.802   1.246  11.613 -2.4074 -1.2580 -0.6466
13414TIP3   OH261732   1.401   1.298  65.064 -0.2986  0.4913  0.2826
13414TIP3    H161733   1.479   1.355  65.060 -0.2647  0.4561  0.4586
13414TIP3    H261734   1.400   1.254  64.979  1.2485 -1.3197  1.1096
13415TIP3   OH261735   2.566   1.137   9.478  0.3738 -0.5289 -0.2692
13415TIP3    H161736   2.542   1.192   9.403  0.5360  1.1466  0.8667
13415TIP3    H261737   2.529   1.181   9.554  0.9288 -1.7418  0.7494
13416TIP3   OH261738   1.934   2.304  60.727  0.0386 -0.7650 -0.1125
13416TIP3    H161739   1.998   2.336  60.790  0.2784  0.7938 -1.1031
13416TIP3    H261740   1.971   2.222  60.695 -0.1492 -1.6746  1.8213
13417TIP3   OH261741   0.806   2.585   2.516 -0.3956  0.7223  0.1999
13417TIP3    H161742   0.764   2.513   2.564 -1.6449  0.2053 -1.5630
13417TIP3    H261743   0.798   2.560   2.424  2.4548  1.3865 -0.3106
13418TIP3   OH261744   2.848   0.781  10.563 -0.2466 -0.0743 -0.1622
13418TIP3    H161745   2.871   0.698  10.523  0.5824  0.2260 -0.3391
13418TIP3    H261746   2.755   0.793  10.543 -0.3955 -0.9924 -0.0521
13419TIP3   OH261747   3.174   3.314  11.349 -0.1459  0.0988  0.2304
13419TIP3    H161748   3.212   3.401  11.333 -1.7441  0.9966  1.1266
13419TIP3    H261749   3.113   3.327  11.421 -0.6666 -1.7165  0.1628
13420TIP3   OH261750   1.081   2.605  54.652 -0.5273 -0.0292 -0.0665
13420TIP3    H161751   1.131   2.549  54.593 -1.8400 -1.2687 -0.0763
13420TIP3    H261752   1.091   2.564  54.738  0.7037  1.2959  0.4488
13421TIP3   OH261753   2.897   2.864   8.660  0.1455 -0.2000  0.6406
13421TIP3    H161754   2.890   2.772   8.685  1.3575  0.0522  2.0198
13421TIP3    H261755   2.867   2.866   8.569 -1.4410 -1.6721  1.0777
13422TIP3   OH261756   3.338   0.569  48.688  0.2978  0.5364 -0.0187
13422TIP3    H161757   3.346   0.659  48.657  1.0431  0.0968 -1.1462
13422TIP3    H261758   3.245   0.560  48.710 -0.2593  0.9339 -1.9963
13423TIP3   OH261759   2.570   2.559   3.911  0.0308  0.7706  0.3929
13423TIP3    H161760   2.539   2.480   3.956 -0.5736  0.4944 -0.4758
13423TIP3    H261761   2.492   2.593   3.866  0.4827  1.3609  0.0432
13424TIP3   OH261762   1.776   2.077  48.893 -0.3194  0.3336 -0.1577
13424TIP3    H161763   1.768   2.040  48.981 -0.6785  0.3047 -0.2050
13424TIP3    H261764   1.854   2.034  48.856 -2.2807 -2.5454 -1.2804
13425TIP3   OH261765   0.012   1.324  56.171 -0.0933  0.3915  0.4564
13425TIP3    H161766   0.084   1.349  56.112 -0.6233  2.1472  0.5028
13425TIP3    H261767  -0.063   1.373  56.139 -1.5659 -2.1188 -0.1574
13426TIP3   OH261768   1.533   3.303   8.042 -0.4095  0.2708  0.4090
13426TIP3    H161769   1.477   3.374   8.073 -0.9549  0.3708 -0.7599
13426TIP3    H261770   1.622   3.334   8.057 -0.5629 -0.5492  3.8072
13427TIP3   OH261771   1.457   1.857   1.830  0.9241 -0.2671 -0.8398
13427TIP3    H161772   1.398   1.843   1.756 -0.0276 -0.0273 -0.1442
13427TIP3    H261773   1.483   1.949   1.822 -0.4007  0.1994 -0.0260
13428TIP3   OH261774   1.679   2.628  35.829 -0.5842  0.5256  0.2717
13428TIP3    H161775   1.649   2.572  35.757 -0.8086  0.2153  0.6044
13428TIP3    H261776   1.638   2.713  35.811 -2.8208 -0.2120  1.4118
13429TIP3   OH261777   2.357   0.893  59.899 -0.2225 -0.1788 -0.4024
13429TIP3    H161778   2.266   0.911  59.922 -0.3157  0.5737 -1.2929
13429TIP3    H261779   2.377   0.956  59.830  0.9405 -0.4207 -0.3071
13430TIP3   OH261780   2.909   1.559  21.665  0.2380  0.3499 -0.0567
13430TIP3    H161781   2.872   1.608  21.592 -0.1745  1.4713  0.8693
13430TIP3    H261782   2.833   1.525  21.712  0.4268  0.8393  0.6308
13431TIP3   OH261783   2.059   1.036  64.160 -0.0164 -0.1544 -0.4964
13431TIP3    H161784   1.965   1.042  64.145 -0.0464  2.0135  0.2714
13431TIP3    H261785   2.096   1.020  64.073 -1.0446 -0.7226 -0.8512
13432TIP3   OH261786   1.946   1.925  62.059  0.0071 -0.5150  0.0889
13432TIP3    H161787   1.960   1.840  62.100  1.9185 -0.6065 -0.6760
13432TIP3    H261788   1.959   1.911  61.966  0.1350  0.5816 -0.0797
13433TIP3   OH261789   0.462   1.806  37.558 -0.0383  0.1615  0.0326
13433TIP3    H161790   0.479   1.820  37.651 -1.4577  0.1192  0.3188
13433TIP3    H261791   0.547   1.780  37.521  0.6546  0.7154  1.2023
13434TIP3   OH261792   3.007   2.028   0.376 -0.5379  0.4393 -0.6782
13434TIP3    H161793   2.958   2.055   0.454  1.0999 -0.6088  0.7932
13434TIP3    H261794   2.970   1.943   0.353  0.7762 -0.5554  0.6935
13435TIP3   OH261795   1.508   0.474  59.866 -0.4029 -0.0155 -0.5268
13435TIP3    H161796   1.474   0.447  59.951  1.9082 -0.3432  0.3621
13435TIP3    H261797   1.532   0.566  59.878 -2.6363  0.7887 -1.7164
13436TIP3   OH261798   0.838   0.206  55.518  0.1867  0.0514  0.3237
13436TIP3    H161799   0.750   0.202  55.556  0.7534 -0.1851  1.6478
13436TIP3    H261800   0.893   0.242  55.587  1.4182 -1.2210  0.0652
13437TIP3   OH261801   2.010   0.744  53.577 -0.0866  0.0474  0.3862
13437TIP3    H161802   1.954   0.792  53.517  1.0786 -0.8795 -1.5355
13437TIP3    H261803   1.983   0.652  53.566  2.3848 -0.5590 -1.3646
13438TIP3   OH261804   1.942   1.856  14.777  0.3780  0.2209 -0.1532
13438TIP3    H161805   1.923   1.843  14.684 -0.6503  0.3926  0.0196
13438TIP3    H261806   1.861   1.893  14.813 -0.2975 -2.4964  1.3746
13439TIP3   OH261807   0.486   2.003   1.908 -0.5657 -0.2243 -0.2025
13439TIP3    H161808   0.568   1.955   1.917  0.8871  1.8684 -1.3482
13439TIP3    H261809   0.423   1.937   1.879  0.7880 -1.8222  0.3328
13440TIP3   OH261810   1.046   2.863  47.236  0.1353  0.1189 -0.2406
13440TIP3    H161811   1.074   2.870  47.145 -0.7375  0.5749 -0.4846
13440TIP3    H261812   1.002   2.778  47.241 -1.5473  0.9145 -0.7565
13441TIP3   OH261813   2.870   0.558  10.410 -0.5822 -0.1541 -0.2433
13441TIP3    H161814   2.882   0.591  10.321 -1.4915 -1.0208 -0.7098
13441TIP3    H261815   2.943   0.497  10.423  1.8029  2.7447  1.0544
13442TIP3   OH261816   0.173   1.050  64.841  0.0473 -0.0066  0.8572
13442TIP3    H161817   0.251   1.095  64.810 -0.0506  0.9955  2.0092
13442TIP3    H261818   0.207   0.978  64.895  0.2696 -2.5872 -2.3821
13443TIP3   OH261819   1.251   0.273  36.884  0.0812  0.2070  0.3625
13443TIP3    H161820   1.339   0.248  36.914  0.8233 -0.6643 -2.2357
13443TIP3    H261821   1.267   0.323  36.804 -1.8167 -0.8410 -0.7269
13444TIP3   OH261822   2.669   0.242   1.496  0.3367 -0.1981  0.0339
13444TIP3    H161823   2.684   0.270   1.586 -1.0330  2.1629 -0.3979
13444TIP3    H261824   2.757   0.231   1.460  0.9311 -2.0782  1.8397
13445TIP3   OH261825   0.301   3.429  49.239 -0.2736 -0.4772  0.6781
13445TIP3    H161826   0.265   3.467  49.159  1.1258 -0.0171  0.2498
13445TIP3    H261827   0.224   3.391  49.284 -0.9905 -1.3836 -1.2116
13446TIP3   OH261828   3.378   3.256  58.374  0.6182  0.1710 -0.4317
13446TIP3    H161829   3.392   3.200  58.450 -1.5167  0.8257  0.5066
13446TIP3    H261830   3.434   3.332  58.390  1.2618 -0.3326 -0.2403
13447TIP3   OH261831   1.523   2.164  36.926  0.0395 -0.4248  0.1927
13447TIP3    H161832   1.487   2.252  36.918 -1.8566 -1.0623  1.1670
13447TIP3    H261833   1.569   2.165  37.010 -0.9674 -0.6743  0.7584
13448TIP3   OH261834   3.111   1.789  11.225 -0.6001  0.0519  0.5843
13448TIP3    H161835   3.058   1.747  11.293  0.0492 -0.7153  0.6258
13448TIP3    H261836   3.164   1.853  11.272 -0.2259 -0.4067  0.7878
13449TIP3   OH261837   1.258   2.508  52.338 -0.0542 -0.0136 -0.5488
13449TIP3    H161838   1.299   2.514  52.424  0.4468  1.5271 -0.8648
13449TIP3    H261839   1.207   2.427  52.342  0.3869 -0.2581  0.9992
13450TIP3   OH261840   3.444   1.446  54.313 -0.1105  0.1503  0.1614
13450TIP3    H161841   3.435   1.498  54.394  0.6360  0.5911 -0.0336
13450TIP3    H261842   3.495   1.502  54.254  0.1929 -0.5678 -0.2690
13451TIP3   OH261843   1.640   2.977  15.253 -0.2259  0.0382 -0.2937
13451TIP3    H161844   1.564   3.034  15.238 -0.7427 -0.7245 -0.6512
13451TIP3    H261845   1.689   3.020  15.324 -1.1359  0.3982  0.1339
13452TIP3   OH261846   1.271   1.482  18.077 -0.0089  0.2840  0.2162
13452TIP3    H161847   1.184   1.499  18.114  0.3600 -2.9252  2.9755
13452TIP3    H261848   1.255   1.473  17.983 -2.1782  2.2664  0.3002
13453TIP3   OH261849   0.222   0.963  12.044 -0.2792  0.3849 -0.4337
13453TIP3    H161850   0.299   1.016  12.063  0.9484 -1.6419  0.6281
13453TIP3    H261851   0.166   0.975  12.120 -0.6282  1.1661 -0.8024
13454TIP3   OH261852   2.433   1.708  12.316 -0.2105  0.2037  0.2434
13454TIP3    H161853   2.385   1.657  12.381 -0.0558 -0.4839 -0.1755
13454TIP3    H261854   2.397   1.797  12.324 -2.5160 -0.5192 -0.9288
13455TIP3   OH261855   1.894   2.330  20.026 -0.0986 -0.0110 -0.5594
13455TIP3    H161856   1.843   2.381  19.962  1.2324  2.0327 -0.0989
13455TIP3    H261857   1.919   2.251  19.979 -1.1471  0.3430 -1.7784
13456TIP3   OH261858   2.463   1.853  59.392 -0.2874 -0.5485  0.3548
13456TIP3    H161859   2.517   1.846  59.471  0.3585 -0.8329 -0.1037
13456TIP3    H261860   2.411   1.772  59.392 -2.1629  0.5749  1.8172
13457TIP3   OH261861   2.521   0.865  44.061  0.3320 -0.4129 -0.1900
13457TIP3    H161862   2.526   0.770  44.061 -1.7065 -0.5635  0.2143
13457TIP3    H261863   2.428   0.885  44.058  0.5792  1.5459  1.8378
13458TIP3   OH261864   2.903   1.202  45.027  0.3043 -0.2622  0.3444
13458TIP3    H161865   2.830   1.263  45.035 -0.2902 -0.7396 -1.1478
13458TIP3    H261866   2.957   1.219  45.104  0.3288  2.3292 -0.1657
13459TIP3   OH261867   0.165   1.379  13.810 -0.1997  0.2486  0.3235
13459TIP3    H161868   0.156   1.474  13.818  0.7654  0.4739 -0.9014
13459TIP3    H261869   0.078   1.345  13.832 -0.8791  1.4981 -0.2837
13460TIP3   OH261870   1.238   1.609  61.749 -0.3830  0.1639 -0.0415
13460TIP3    H161871   1.284   1.525  61.737 -0.7063  0.3023 -2.8669
13460TIP3    H261872   1.192   1.598  61.832  0.0889 -2.2260  0.0065
13461TIP3   OH261873   1.048   0.235  51.793  0.3890  0.1298 -0.1367
13461TIP3    H161874   0.993   0.239  51.715 -0.4579 -0.2526  0.4268
13461TIP3    H261875   1.134   0.207  51.761 -0.2339 -1.1053 -0.7938
13462TIP3   OH261876   3.267   1.127  59.729  0.9927  0.2939 -0.0181
13462TIP3    H161877   3.262   1.174  59.646  0.1808 -1.6473 -1.1495
13462TIP3    H261878   3.356   1.091  59.732  0.8978  0.0402 -0.2410
13463TIP3   OH261879   1.481   0.479  39.432 -0.4940 -0.4327  0.4181
13463TIP3    H161880   1.393   0.494  39.397 -0.1309 -1.7880 -1.2080
13463TIP3    H261881   1.540   0.517  39.366  0.1621 -0.9491  0.6975
13464TIP3   OH261882   1.738   3.124  47.197 -0.2828 -0.1092 -0.2473
13464TIP3    H161883   1.688   3.046  47.219  0.0124 -0.7983 -1.8314
13464TIP3    H261884   1.796   3.137  47.271 -0.0268 -1.6827 -0.1335
13465TIP3   OH261885   2.709   1.935  21.149 -0.4805 -0.2823 -0.1261
13465TIP3    H161886   2.796   1.949  21.187 -0.3340 -1.3756 -0.0355
13465TIP3    H261887   2.706   1.842  21.128 -1.8122 -0.3704  0.3376
13466TIP3   OH261888   0.860   0.979  66.332 -0.3327 -0.0063  0.0762
13466TIP3    H161889   0.950   0.953  66.354  0.3959  2.7711  0.8722
13466TIP3    H261890   0.808   0.954  66.408  0.8388  2.9979  2.0421
13467TIP3   OH261891   0.056   0.227  12.536  0.2618  0.5970 -0.1449
13467TIP3    H161892   0.037   0.143  12.579  0.7664  1.0513  0.9976
13467TIP3    H261893  -0.016   0.284  12.560 -0.1675  0.4630 -1.0610
13468TIP3   OH261894   0.184   2.472  17.477 -0.2581  0.2040  0.1322
13468TIP3    H161895   0.272   2.435  17.481 -0.0010  0.6637 -0.9556
13468TIP3    H261896   0.196   2.564  17.500 -0.2682  0.5251 -1.0912
13469TIP3   OH261897   2.203   1.392  55.845 -0.5012 -0.5211  0.0490
13469TIP3    H161898   2.196   1.324  55.779  0.2243 -1.3876  0.8355
13469TIP3    H261899   2.281   1.369  55.896 -1.7473 -0.6434  2.0281
13470TIP3   OH261900   0.471   1.132   5.156 -0.1581  0.0793  0.2114
13470TIP3    H161901   0.551   1.103   5.197  0.8757  1.6689 -0.5564
13470TIP3    H261902   0.498   1.163   5.069 -1.7685 -0.3477 -0.4810
13471TIP3   OH261903   2.230   0.299   3.647 -0.1013  0.0588  0.0209
13471TIP3    H161904   2.145   0.341   3.661  0.4405  0.7447  1.3810
13471TIP3    H261905   2.276   0.309   3.730  0.4797 -2.3010  0.0375
13472TIP3   OH261906   3.130   3.090  16.609  0.9496 -0.1853 -0.3447
13472TIP3    H161907   3.204   3.136  16.649 -0.7851  1.3746  1.2267
13472TIP3    H261908   3.070   3.073  16.681 -0.3347 -1.2536 -1.6047
13473TIP3   OH261909   0.060   2.118  63.906 -0.0729  0.1197 -0.0686
13473TIP3    H161910  -0.032   2.092  63.896  0.1309 -0.9216  0.6677
13473TIP3    H261911   0.075   2.114  64.001  1.4707 -2.3381 -0.3436
13474TIP3   OH261912   2.543   1.041  19.274 -0.3635 -0.2087 -0.3788
13474TIP3    H161913   2.448   1.053  19.269 -0.4950  0.8151  2.6321
13474TIP3    H261914   2.555   0.963  19.328  0.5061  0.0501 -0.1816
13475TIP3   OH261915   0.431   3.356   4.549  0.2840  0.0943  0.2719
13475TIP3    H161916   0.494   3.416   4.589  0.7406 -0.6836  0.7270
13475TIP3    H261917   0.483   3.279   4.525 -0.4889 -0.5386  0.6137
13476TIP3   OH261918   2.703   2.246  55.059  0.7434 -0.5837  0.1853
13476TIP3    H161919   2.675   2.220  54.971  0.4622 -0.1383  0.1376
13476TIP3    H261920   2.623   2.247  55.111  0.7404  0.1725  0.1804
13477TIP3   OH261921   2.132   2.911  19.783 -0.0013  0.0984  0.2164
13477TIP3    H161922   2.180   2.955  19.853 -1.7535 -2.6603  3.4611
13477TIP3    H261923   2.040   2.930  19.802 -0.6184 -2.2878 -0.1177
13478TIP3   OH261924   1.884   2.583   7.514  0.5795  0.2826 -0.1311
13478TIP3    H161925   1.826   2.651   7.548  1.1767  0.9516 -0.4226
13478TIP3    H261926   1.906   2.612   7.426 -0.2170 -0.9728 -0.7724
13479TIP3   OH261927   1.824   3.367  46.546  0.7148 -0.3023  0.5855
13479TIP3    H161928   1.743   3.392  46.501 -0.3569 -1.9572  1.4668
13479TIP3    H261929   1.820   3.414  46.630  0.4525 -0.6758  0.7885
13480TIP3   OH261930   1.057   3.352  15.114  0.4336 -0.0428 -1.0768
13480TIP3    H161931   1.101   3.275  15.079  3.1739  0.3232  1.2290
13480TIP3    H261932   1.109   3.426  15.081 -0.4184  0.6561 -0.9034
13481TIP3   OH261933   0.195   2.631   4.607 -0.5089  0.1821 -0.2804
13481TIP3    H161934   0.196   2.665   4.517  0.2454  0.2624 -0.2410
13481TIP3    H261935   0.271   2.574   4.612 -1.8565 -1.6945 -0.3945
13482TIP3   OH261936   2.966   1.851  56.023 -0.3612 -0.3141  0.3278
13482TIP3    H161937   2.998   1.801  56.098  0.4471  1.4913  1.2404
13482TIP3    H261938   2.993   1.800  55.946  2.8513  0.0197  1.1178
13483TIP3   OH261939   3.356   0.871  48.861 -0.0964  0.2018  0.1902
13483TIP3    H161940   3.443   0.853  48.826 -1.0352 -0.9561 -1.7265
13483TIP3    H261941   3.313   0.923  48.793 -0.9232  0.7578  1.1109
13484TIP3   OH261942   0.367   2.897  52.044 -0.2434 -0.0317 -0.3902
13484TIP3    H161943   0.399   2.983  52.017  1.9958 -0.8021 -0.4270
13484TIP3    H261944   0.408   2.836  51.982  1.8296 -1.4871  2.1805
13485TIP3   OH261945   0.686   1.306  18.576 -0.0420 -0.2795  0.2600
13485TIP3    H161946   0.638   1.232  18.539 -0.5900  0.1625  0.0657
13485TIP3    H261947   0.649   1.383  18.533  2.1523 -0.0160 -1.3165
13486TIP3   OH261948   0.330   1.343  55.550 -0.4840  0.3786 -0.1383
13486TIP3    H161949   0.413   1.384  55.571 -0.3227 -0.3385  0.6954
13486TIP3    H261950   0.316   1.362  55.458  0.3891  0.8833 -0.1741
13487TIP3   OH261951   2.064   0.673  18.282  0.6459  0.0846 -0.3362
13487TIP3    H161952   2.033   0.762  18.297 -0.0158 -0.2515  0.3871
13487TIP3    H261953   2.005   0.639  18.214 -1.4846 -0.9422  1.8392
13488TIP3   OH261954   0.520   0.164  46.953 -0.2677 -0.0983 -0.2422
13488TIP3    H161955   0.597   0.171  47.009 -0.0833 -2.1319 -0.1811
13488TIP3    H261956   0.549   0.199  46.868  1.0937 -1.8139 -0.5390
13489TIP3   OH261957   0.039   3.324  20.886 -0.5901  0.0091  0.0971
13489TIP3    H161958   0.059   3.238  20.924 -1.8273  0.0279  0.8234
13489TIP3    H261959   0.029   3.307  20.792 -2.2031 -0.9144  0.4029
13490TIP3   OH261960   2.379   1.527   7.943 -0.0747  0.2400 -0.1684
13490TIP3    H161961   2.439   1.598   7.920 -0.6726  1.0340  0.6168
13490TIP3    H261962   2.340   1.500   7.860 -1.0016  1.9311 -0.3412
13491TIP3   OH261963   0.679   0.294  12.237 -0.3376  0.2292  0.8303
13491TIP3    H161964   0.606   0.285  12.177 -0.7200 -0.9528  1.4423
13491TIP3    H261965   0.755   0.307  12.181 -0.6089 -1.3750  0.0283
13492TIP3   OH261966   1.226   3.003  58.670 -0.1265  0.0224 -0.2060
13492TIP3    H161967   1.299   3.048  58.713 -0.4529  1.7782 -1.4044
13492TIP3    H261968   1.150   3.057  58.689 -0.6193 -0.2573 -1.2989
13493TIP3   OH261969   1.236   0.887  12.777  0.2528 -0.3020  0.3540
13493TIP3    H161970   1.325   0.897  12.810  0.1239  0.0712  0.6014
13493TIP3    H261971   1.243   0.900  12.683  0.4002  0.1302  0.4226
13494TIP3   OH261972   2.781   0.618  49.691 -0.0205 -0.2816 -0.0733
13494TIP3    H161973   2.745   0.535  49.660 -0.3116  0.2393 -1.1737
13494TIP3    H261974   2.876   0.607  49.683  0.0723 -1.2230  1.7145
13495TIP3   OH261975   0.177   0.494  41.951  0.1246 -0.3560  0.0240
13495TIP3    H161976   0.246   0.478  42.014  1.4137 -1.0315 -1.4789
13495TIP3    H261977   0.149   0.584  41.967  1.5645  0.0279  0.4702
13496TIP3   OH261978   0.682   0.662  36.424  0.5022  0.2763  0.0174
13496TIP3    H161979   0.618   0.729  36.446  0.0945 -0.3425  0.7659
13496TIP3    H261980   0.690   0.667  36.329 -0.3814  0.6095 -0.0522
13497TIP3   OH261981   3.382   0.447  58.657 -0.6075  0.2136 -0.3695
13497TIP3    H161982   3.462   0.484  58.692  0.3018 -1.7098 -0.2841
13497TIP3    H261983   3.361   0.375  58.716 -2.7065  0.9596 -0.1036
13498TIP3   OH261984   0.420   3.076  48.274  0.2141 -0.1512  0.0944
13498TIP3    H161985   0.493   3.027  48.234  0.2350 -0.0834  0.0519
13498TIP3    H261986   0.454   3.104  48.359  1.8001  3.5384 -1.5317
13499TIP3   OH261987   0.711   2.995  15.914  0.1775 -0.1680  0.7181
13499TIP3    H161988   0.636   3.037  15.956  0.5654  1.4591 -0.1279
13499TIP3    H261989   0.722   3.043  15.831  2.1280 -0.3698  0.8155
13500TIP3   OH261990   2.190   0.482  51.059 -0.2054  0.2232  0.0021
13500TIP3    H161991   2.248   0.431  51.116 -1.0488 -0.6016  0.1562
13500TIP3    H261992   2.232   0.479  50.973 -0.9892 -2.1134 -0.3692
13501TIP3   OH261993   0.904   0.956   3.112  0.6402  0.8517  0.0250
13501TIP3    H161994   0.895   1.045   3.146  3.0888  0.7986  1.0185
13501TIP3    H261995   0.834   0.948   3.048  1.3868  4.1577 -1.4334
13502TIP3   OH261996   0.831   2.663  17.632 -0.3070 -0.3029  0.1603
13502TIP3    H161997   0.896   2.625  17.692 -0.3515 -1.3486 -0.4329
13502TIP3    H261998   0.784   2.726  17.686 -0.0708 -0.9182  1.1238
13503TIP3   OH261999   0.764   0.884  34.825 -0.6876  0.0552  0.1283
13503TIP3    H162000   0.749   0.831  34.903 -0.1397  0.2758  0.3960
13503TIP3    H262001   0.836   0.840  34.779 -1.0111 -0.0768 -0.2535
13504TIP3   OH262002   2.900   2.291  51.302  0.5612  0.4591  0.1843
13504TIP3    H162003   2.808   2.309  51.317  0.7171  1.2719  0.2290
13504TIP3    H262004   2.942   2.306  51.387  0.5822 -1.0651  0.4656
13505TIP3   OH262005   1.482   2.322  60.082  0.7545 -0.2676 -0.1240
13505TIP3    H162006   1.430   2.245  60.101  0.8054 -0.1615  0.4630
13505TIP3    H262007   1.503   2.359  60.168 -1.1483  1.6507 -0.4076
13506TIP3   OH262008   2.170   3.295  11.620 -0.2447  1.0351 -0.4010
13506TIP3    H162009   2.180   3.345  11.701  0.6200  3.0992 -1.7066
13506TIP3    H262010   2.085   3.322  11.585 -1.1510 -0.7235  0.3329
13507TIP3   OH262011   1.807   2.845  42.590 -0.0260 -0.3094 -0.1106
13507TIP3    H162012   1.750   2.921  42.601  0.6684  0.1033  0.7242
13507TIP3    H262013   1.862   2.844  42.668 -0.1394 -1.7853 -0.0175
13508TIP3   OH262014   2.146   0.255  27.089  0.5361 -0.2276  0.0259
13508TIP3    H162015   2.239   0.260  27.066  1.2569 -2.9400  1.9214
13508TIP3    H262016   2.140   0.298  27.174  0.3097 -1.1247  0.4717
13509TIP3   OH262017   1.732   3.070  11.569 -0.1140  0.1500  0.2509
13509TIP3    H162018   1.786   3.088  11.646 -1.2063  0.0352  1.0687
13509TIP3    H262019   1.791   3.025  11.508  0.0817 -2.3815  2.1497
13510TIP3   OH262020   0.649   0.060   5.570  0.1167 -0.3690  0.5579
13510TIP3    H162021   0.573   0.054   5.627 -0.6306 -3.8472 -0.5885
13510TIP3    H262022   0.613   0.074   5.483  1.1517  2.6136  0.4698
13511TIP3   OH262023   2.022   0.973  54.737 -0.1905  0.0795 -0.1293
13511TIP3    H162024   2.063   1.059  54.732  1.5322 -0.7222 -0.6175
13511TIP3    H262025   2.048   0.939  54.822  1.1994 -0.9054 -0.9143
13512TIP3   OH262026   0.976   1.851  21.873 -0.1019 -0.5500 -0.4927
13512TIP3    H162027   1.053   1.800  21.900  0.8862  0.1178 -1.9214
13512TIP3    H262028   0.949   1.897  21.953  0.3003 -1.6376  0.2962
13513TIP3   OH262029   0.321   0.558  43.483  0.6322 -0.3780  0.5085
13513TIP3    H162030   0.367   0.475  43.474  1.0602 -0.0495 -0.4128
13513TIP3    H262031   0.249   0.553  43.420  0.2902 -0.2927  0.8846
13514TIP3   OH262032   0.617   2.648  48.442 -0.2426  0.0434  0.0395
13514TIP3    H162033   0.630   2.718  48.505 -0.8388 -2.3405  3.0421
13514TIP3    H262034   0.523   2.635  48.439 -0.1058 -1.0628  0.0819
13515TIP3   OH262035   2.640   1.342   8.200 -0.3482  0.0007 -0.1611
13515TIP3    H162036   2.731   1.336   8.230  0.0030  0.7820 -1.0221
13515TIP3    H262037   2.646   1.334   8.104 -1.3877 -1.9089 -0.1101
13516TIP3   OH262038   0.343   1.537  15.734  0.0563  0.2551 -0.0305
13516TIP3    H162039   0.342   1.446  15.703  0.3490  0.0278  0.6095
13516TIP3    H262040   0.404   1.536  15.808 -0.2947  0.8782  0.2706
13517TIP3   OH262041   1.756   3.110   1.524 -0.5614  0.7380  0.1584
13517TIP3    H162042   1.782   3.193   1.564  0.9269 -0.1155  1.0689
13517TIP3    H262043   1.839   3.067   1.503 -1.2770 -0.8924  0.5261
13518TIP3   OH262044   2.687   0.976  64.651  0.0180 -0.5150  0.5373
13518TIP3    H162045   2.777   1.002  64.672 -0.2236 -0.2085  1.2442
13518TIP3    H262046   2.680   0.886  64.684  0.3093 -0.8406 -0.2754
13519TIP3   OH262047   3.205   1.155  16.055  0.2064 -0.4209  0.3320
13519TIP3    H162048   3.242   1.221  16.114  3.0160 -0.5061 -1.1669
13519TIP3    H262049   3.260   1.159  15.977 -2.7254 -1.0147 -1.9371
13520TIP3   OH262050   1.811   2.245  45.563 -0.0902 -0.1864  0.0820
13520TIP3    H162051   1.790   2.308  45.632 -0.4519 -0.6568  0.4036
13520TIP3    H262052   1.726   2.213  45.533  0.1060 -0.8861  0.2602
13521TIP3   OH262053   1.998   1.015   2.638 -0.6774 -0.0495 -0.0744
13521TIP3    H162054   1.958   1.100   2.654 -0.3544  0.0721  0.0826
13521TIP3    H262055   2.072   1.010   2.698  0.8461  0.6101 -1.7977
13522TIP3   OH262056   0.017   1.242  65.311 -0.3183  0.6847  0.5998
13522TIP3    H162057   0.000   1.332  65.283  1.1896  0.4163 -1.4389
13522TIP3    H262058   0.109   1.227  65.291 -0.7620 -1.6077 -0.1064
13523TIP3   OH262059   2.072   0.723  61.875 -0.8475  0.1381 -0.0022
13523TIP3    H162060   1.990   0.679  61.897 -1.5441  1.6808  0.6468
13523TIP3    H262061   2.135   0.689  61.939 -1.1001 -0.6620 -0.1724
13524TIP3   OH262062   0.792   2.754   5.289  0.2974  0.1676  0.7413
13524TIP3    H162063   0.736   2.688   5.248  0.3185 -0.0419  1.0378
13524TIP3    H262064   0.808   2.819   5.221 -1.0417  0.7009  0.9072
13525TIP3   OH262065   3.243   1.111   2.162  0.4453 -0.0121 -0.2645
13525TIP3    H162066   3.230   1.170   2.236  1.7787  1.2777 -1.0296
13525TIP3    H262067   3.157   1.069   2.151 -0.3892  1.3450  0.6633
13526TIP3   OH262068   2.226   0.655  62.079  0.5363 -0.5961  0.1167
13526TIP3    H162069   2.148   0.636  62.132  0.8198  0.2703  0.8561
13526TIP3    H262070   2.297   0.663  62.142  1.0432 -0.3966 -0.4710
13527TIP3   OH262071   1.905   2.761  45.967 -0.4035  0.0463 -0.0912
13527TIP3    H162072   1.884   2.679  46.012 -0.2791  0.0706  0.0141
13527TIP3    H262073   1.923   2.822  46.038 -1.0460  0.3168 -0.1533
13528TIP3   OH262074   2.072   1.193  51.552  0.4208  0.1021  0.0684
13528TIP3    H162075   2.064   1.244  51.471 -2.4201 -1.3102 -0.6665
13528TIP3    H262076   2.048   1.255  51.622 -1.9444  0.1730 -0.7061
13529TIP3   OH262077   0.789   2.826  66.339  0.2056 -0.3260 -0.1184
13529TIP3    H162078   0.801   2.754  66.277  0.1761 -0.1533 -0.3264
13529TIP3    H262079   0.869   2.828  66.391 -0.2459 -1.2198  0.6355
13530TIP3   OH262080   1.096   1.386  34.829 -0.0620  0.2490  0.1468
13530TIP3    H162081   1.085   1.422  34.741  1.5593  1.9551  0.5838
13530TIP3    H262082   1.181   1.343  34.826  0.1327  0.5704  0.9597
13531TIP3   OH262083   3.396   2.525  20.917 -0.6374 -0.3369 -0.3593
13531TIP3    H162084   3.406   2.465  20.843  0.0808 -0.4778 -0.1540
13531TIP3    H262085   3.342   2.476  20.980 -1.6401 -0.0378 -0.9756
13532TIP3   OH262086   0.395   1.945  57.720  0.3361 -0.4886  0.0341
13532TIP3    H162087   0.374   2.034  57.748 -2.0093 -0.9137 -0.1562
13532TIP3    H262088   0.317   1.894  57.741  1.3303 -2.3551 -0.5545
13533TIP3   OH262089   2.663   0.484  53.583  0.0727 -0.2023 -0.0801
13533TIP3    H162090   2.748   0.491  53.540  0.8613 -1.1661  1.2392
13533TIP3    H262091   2.668   0.544  53.657  0.2152 -1.3639  0.8937
13534TIP3   OH262092   1.428   0.848  36.835  0.0778  0.6176 -0.2374
13534TIP3    H162093   1.446   0.900  36.757  3.8360  0.7844  0.5452
13534TIP3    H262094   1.376   0.905  36.891  0.4571  1.8834 -1.1412
13535TIP3   OH262095   2.043   2.446  10.541  0.1352  0.4079  0.1709
13535TIP3    H162096   1.947   2.437  10.545  0.2960 -1.3046  0.9732
13535TIP3    H262097   2.057   2.540  10.525 -1.6511  0.8670  1.0018
13536TIP3   OH262098   2.266   3.182  18.351 -0.0936 -0.2093 -0.4948
13536TIP3    H162099   2.199   3.144  18.294 -0.8250 -0.0274  0.2274
13536TIP3    H262100   2.221   3.199  18.434  1.0683 -0.9736  0.3399
13537TIP3   OH262101   0.656   2.506   0.425  0.1339 -0.2718 -0.0992
13537TIP3    H162102   0.642   2.565   0.499 -0.7976 -0.0852 -0.4157
13537TIP3    H262103   0.647   2.418   0.461  1.6258 -0.2546  0.3989
13538TIP3   OH262104   0.997   0.695  56.252  0.5910 -0.1022  0.9202
13538TIP3    H162105   0.923   0.635  56.262  2.6683 -2.7384  1.7880
13538TIP3    H262106   0.975   0.748  56.175 -2.3960 -0.3506  1.4849
13539TIP3   OH262107   1.051   3.180  62.041 -0.0269 -0.6258 -0.0051
13539TIP3    H162108   1.046   3.264  62.087  0.1567 -0.9828  0.6868
13539TIP3    H262109   1.004   3.119  62.098 -0.5421 -0.9067 -0.7134
13540TIP3   OH262110   0.427   2.016  22.326  0.2002  0.4788 -0.3123
13540TIP3    H162111   0.362   2.012  22.395 -1.5092  0.5586 -1.8347
13540TIP3    H262112   0.385   1.974  22.251  0.8610  2.8409 -2.1344
13541TIP3   OH262113   0.416   3.129  10.148  0.2214 -0.2794  0.0287
13541TIP3    H162114   0.428   3.222  10.164  1.2309 -0.8477  3.6259
13541TIP3    H262115   0.490   3.087  10.193 -0.7846 -2.8369 -0.4916
13542TIP3   OH262116   0.841   3.208  15.141 -0.2114  0.0172  0.2486
13542TIP3    H162117   0.927   3.250  15.134  0.3812 -1.2847 -0.7685
13542TIP3    H262118   0.778   3.280  15.137  0.7882  0.8545 -0.8402
13543TIP3   OH262119   0.766   2.606  19.920 -0.0804  0.4323 -0.3404
13543TIP3    H162120   0.825   2.572  19.852 -0.2570  0.4860 -0.5214
13543TIP3    H262121   0.790   2.698  19.930  0.9633  0.0678  0.7450
13544TIP3   OH262122   2.631   0.008  43.511  0.0582 -0.6264 -0.0562
13544TIP3    H162123   2.610   0.101  43.520 -0.3458 -0.5023 -1.8382
13544TIP3    H262124   2.551  -0.037  43.536 -0.1225 -0.4380 -0.2898
13545TIP3   OH262125   1.026   2.077  20.734 -0.9072  0.2571 -0.0955
13545TIP3    H162126   1.066   2.158  20.701 -0.0331 -0.4362 -0.7843
13545TIP3    H262127   0.998   2.099  20.823 -0.8797  1.3813 -0.3526
13546TIP3   OH262128   1.081   0.888  36.349  0.1928 -0.0730 -0.3850
13546TIP3    H162129   1.094   0.883  36.444  0.8291 -2.1899 -0.5347
13546TIP3    H262130   0.996   0.933  36.340  0.8389  1.6087  1.0758
13547TIP3   OH262131   2.392   0.188  44.486 -0.7307  1.1773  0.1747
13547TIP3    H162132   2.475   0.165  44.527 -0.6411 -0.3284 -0.7514
13547TIP3    H262133   2.325   0.151  44.543 -0.6360 -0.1119 -0.5036
13548TIP3   OH262134   2.205   3.066  14.536 -0.1945 -0.0094  0.4607
13548TIP3    H162135   2.237   3.156  14.530 -0.2305 -0.0179  0.0859
13548TIP3    H262136   2.257   3.018  14.471 -0.1569 -0.2659  0.6772
13549TIP3   OH262137   0.522   2.550  54.508 -0.4552  0.4031  0.1853
13549TIP3    H162138   0.513   2.457  54.526  1.1076 -0.0114 -0.9137
13549TIP3    H262139   0.549   2.554  54.416 -0.5046  1.9477  0.2062
13550TIP3   OH262140   0.986   2.655  62.687  0.3931  0.3570  0.6080
13550TIP3    H162141   1.023   2.577  62.727 -0.3597  0.4202  1.4439
13550TIP3    H262142   0.942   2.623  62.608  2.1782  0.2806 -0.4120
13551TIP3   OH262143   0.643   0.457  59.505 -0.0424  0.1078  0.0304
13551TIP3    H162144   0.598   0.519  59.562 -2.3531 -0.3956 -1.1457
13551TIP3    H262145   0.676   0.510  59.433  0.4409  0.3489  0.4244
13552TIP3   OH262146   0.727   1.848  51.198  0.1061  0.1397  0.6809
13552TIP3    H162147   0.694   1.829  51.110  0.0001  0.9674  0.5362
13552TIP3    H262148   0.771   1.767  51.225 -0.2690 -0.2830  0.0618
13553TIP3   OH262149   0.995   0.188  42.469  0.1901 -0.3280 -0.5069
13553TIP3    H162150   1.089   0.177  42.478  0.6623  1.4791 -2.6453
13553TIP3    H262151   0.979   0.280  42.489 -1.2096 -0.6979  0.2455
13554TIP3   OH262152   2.447   3.096   0.889 -0.4408  0.0497 -0.2731
13554TIP3    H162153   2.403   3.013   0.871  0.4515 -0.7550  1.0706
13554TIP3    H262154   2.532   3.088   0.847 -0.0794 -0.0231  0.4575
13555TIP3   OH262155   1.776   2.520  66.839 -0.4891  0.3763  0.3977
13555TIP3    H162156   1.847   2.457  66.821 -1.7514 -0.5472 -1.8148
13555TIP3    H262157   1.696   2.467  66.836 -1.3649  1.5013  2.1835
13556TIP3   OH262158   3.199   2.453   3.095 -0.4847 -0.9474 -0.3391
13556TIP3    H162159   3.192   2.532   3.041  0.3722 -0.7604 -0.1932
13556TIP3    H262160   3.112   2.414   3.093 -1.5529  1.1398  1.3423
13557TIP3   OH262161   2.404   2.195   5.614  0.1838  0.1992  0.0175
13557TIP3    H162162   2.427   2.287   5.599 -1.8284  0.3965 -2.5032
13557TIP3    H262163   2.332   2.198   5.677  0.7508  0.2405  0.6802
13558TIP3   OH262164   2.278   2.456  20.230 -0.4590  0.8040  0.2040
13558TIP3    H162165   2.231   2.538  20.214  1.4613  1.7666 -0.8412
13558TIP3    H262166   2.323   2.469  20.313 -1.2108  0.2404  0.7249
13559TIP3   OH262167   0.822   3.355  13.425 -0.1949 -0.0081  0.3928
13559TIP3    H162168   0.768   3.292  13.473  0.0327 -0.3430  0.2043
13559TIP3    H262169   0.893   3.376  13.486  0.3774 -0.8207  0.0106
13560TIP3   OH262170   1.388   2.678  12.639  0.1408 -0.2288 -0.4041
13560TIP3    H162171   1.363   2.686  12.547 -2.0500 -1.0811  0.0572
13560TIP3    H262172   1.355   2.592  12.666 -0.9984  0.7668  1.6440
13561TIP3   OH262173   0.836   1.165  61.036 -0.1709 -0.1150 -0.1658
13561TIP3    H162174   0.846   1.102  60.964  0.1298 -1.1311  0.7349
13561TIP3    H262175   0.742   1.179  61.043 -0.1222  1.5242 -2.0137
13562TIP3   OH262176   0.657   0.328  19.206  0.0286  0.1303 -0.2404
13562TIP3    H162177   0.677   0.402  19.148 -0.0894  1.0617  0.8727
13562TIP3    H262178   0.742   0.286  19.220  0.0286 -0.2344 -1.2317
13563TIP3   OH262179   2.561   2.474   6.342  0.2412  0.3693  0.1993
13563TIP3    H162180   2.540   2.500   6.432  0.2492  0.7074  0.1050
13563TIP3    H262181   2.559   2.556   6.293 -0.5603  0.0768 -0.2654
13564TIP3   OH262182   3.166   2.753  55.453 -0.3607 -0.3726 -0.3687
13564TIP3    H162183   3.145   2.741  55.546 -1.7374  0.3632 -0.5752
13564TIP3    H262184   3.088   2.792  55.415  0.2933 -0.4047 -1.7966
13565TIP3   OH262185   2.159   2.812  55.247  0.2526  0.0727 -0.4157
13565TIP3    H162186   2.125   2.795  55.335 -1.1846  0.6899 -0.8109
13565TIP3    H262187   2.252   2.831  55.260 -0.0819  0.8527  1.0552
13566TIP3   OH262188   1.036   2.499   6.282 -0.3001  0.5631 -0.2060
13566TIP3    H162189   1.012   2.411   6.311  0.5485  0.4012  0.0207
13566TIP3    H262190   1.065   2.488   6.192  3.6449 -0.1192  0.9727
13567TIP3   OH262191   0.729   2.911  60.243  0.3617 -0.3739 -0.2555
13567TIP3    H162192   0.669   2.969  60.290  2.5387  1.8442 -0.0498
13567TIP3    H262193   0.710   2.928  60.150  0.1087 -0.3372 -0.1987
13568TIP3   OH262194   0.939   3.212  19.958  0.0743  0.1240  0.1036
13568TIP3    H162195   0.927   3.172  20.044 -0.1598 -0.7399 -0.3080
13568TIP3    H262196   0.984   3.294  19.975  0.0288 -0.0330  1.0491
13569TIP3   OH262197   1.685   0.718   5.664  0.1302  0.0212  0.1083
13569TIP3    H162198   1.627   0.764   5.603 -0.4347 -0.9631 -0.1119
13569TIP3    H262199   1.640   0.722   5.748  0.6623  0.9189  0.3672
13570TIP3   OH262200   1.069   2.021  18.254 -0.1386 -0.2094 -0.1293
13570TIP3    H162201   1.089   1.939  18.208 -0.4417 -0.6285  0.4690
13570TIP3    H262202   1.035   1.993  18.339 -1.8160  0.5037 -0.5356
13571TIP3   OH262203   0.539   0.461  18.222  0.3298 -0.0027 -0.9346
13571TIP3    H162204   0.453   0.479  18.259  1.2311  0.0058  1.2642
13571TIP3    H262205   0.601   0.493  18.287  1.9922 -2.1526 -1.3286
13572TIP3   OH262206   0.853   2.185   1.187  0.3648  0.1864 -0.1174
13572TIP3    H162207   0.849   2.096   1.151  2.8626  0.1344 -0.4095
13572TIP3    H262208   0.776   2.191   1.244  0.3053 -2.2713  0.1592
13573TIP3   OH262209   3.257   1.091   3.033  0.3030 -0.1530  0.1045
13573TIP3    H162210   3.352   1.088   3.017  0.3090 -1.7383  0.2111
13573TIP3    H262211   3.249   1.127   3.122  0.6260  2.3718 -0.8094
13574TIP3   OH262212   2.056   1.603  12.177 -0.3027  0.1995 -0.0097
13574TIP3    H162213   2.005   1.562  12.107 -1.3035  0.2039  0.6969
13574TIP3    H262214   2.038   1.696  12.169 -1.5676  0.0854  1.1025
13575TIP3   OH262215   2.810   0.579  63.459  0.1337 -0.0402  0.6027
13575TIP3    H162216   2.792   0.672  63.469 -1.9310 -0.3806  0.4932
13575TIP3    H262217   2.760   0.537  63.530  0.2325 -1.1185  0.0611
13576TIP3   OH262218   0.573   0.707   9.951  0.1805 -0.4742 -0.1043
13576TIP3    H162219   0.587   0.692   9.857  0.5363 -0.5365 -0.0406
13576TIP3    H262220   0.658   0.736   9.984 -0.2093  0.6360 -0.0177
13577TIP3   OH262221   2.583   3.219  42.569 -0.5283  0.2991  0.4081
13577TIP3    H162222   2.499   3.215  42.523 -0.1465 -0.1777 -0.2578
13577TIP3    H262223   2.633   3.145  42.535  0.7961  1.5438 -0.4254
13578TIP3   OH262224   3.076   1.911  44.308 -0.6681  0.3787  0.3003
13578TIP3    H162225   2.992   1.924  44.354 -0.9449 -3.8722  1.4437
13578TIP3    H262226   3.132   1.869  44.373  1.8472  1.5302 -0.9921
13579TIP3   OH262227   2.121   1.269  65.100  0.0323  0.2473  0.0412
13579TIP3    H162228   2.052   1.307  65.154 -1.2331  0.7723 -1.8586
13579TIP3    H262229   2.077   1.203  65.046  1.3034 -0.4745 -0.1636
13580TIP3   OH262230   0.858   2.995   7.510 -0.4971 -0.2621 -0.4197
13580TIP3    H162231   0.858   3.066   7.447  0.6104 -0.4697 -0.6756
13580TIP3    H262232   0.879   2.917   7.459  0.3822 -0.4395  0.1788
13581TIP3   OH262233   1.042   0.206  55.350 -0.4068 -0.3798  0.2129
13581TIP3    H162234   1.028   0.127  55.298 -1.3046  1.6475 -2.9259
13581TIP3    H262235   0.986   0.194  55.427  0.7364 -3.4073  0.7059
13582TIP3   OH262236   1.703   0.289  66.528 -0.0872 -0.2048 -0.1554
13582TIP3    H162237   1.795   0.314  66.525 -0.3641  1.8193  3.0307
13582TIP3    H262238   1.702   0.208  66.579 -0.1008  0.3409  0.7332
13583TIP3   OH262239   1.657   1.447  62.515 -0.3294 -0.3625  0.2889
13583TIP3    H162240   1.741   1.410  62.543  0.2170  0.8894  0.3759
13583TIP3    H262241   1.597   1.430  62.588 -0.0340 -0.8439  0.4227
13584TIP3   OH262242   1.540   1.367  62.788 -0.5636 -0.0362 -0.6570
13584TIP3    H162243   1.507   1.456  62.790  1.9869  1.0305  2.0383
13584TIP3    H262244   1.463   1.312  62.799 -1.8544  2.1320  2.5901
13585TIP3   OH262245   2.781   0.681  61.658  0.5184  0.0448  0.1114
13585TIP3    H162246   2.869   0.648  61.641 -0.0044 -1.5049  0.2586
13585TIP3    H262247   2.782   0.707  61.750  1.1733  1.2582 -0.2261
13586TIP3   OH262248   1.229   2.419  57.369 -0.4163  0.4979  0.2540
13586TIP3    H162249   1.220   2.324  57.368 -3.2971  0.7005 -1.0499
13586TIP3    H262250   1.274   2.440  57.287  2.3498  0.2172  1.5782
13587TIP3   OH262251   0.252   1.984  16.404  0.3138 -0.6541 -0.8284
13587TIP3    H162252   0.206   2.029  16.334 -0.7129  0.2305  0.3635
13587TIP3    H262253   0.201   1.904  16.418 -0.6373  0.0789  0.1421
13588TIP3   OH262254   2.646   1.022  51.081 -0.7371  0.9375  0.1236
13588TIP3    H162255   2.580   1.039  51.014  0.9403 -1.3255 -2.2872
13588TIP3    H262256   2.729   1.023  51.034  0.4911 -1.5010  2.0043
13589TIP3   OH262257   1.998   1.844  55.247  0.0251 -0.6155 -0.4071
13589TIP3    H162258   2.017   1.930  55.210  1.2109 -1.0817 -0.9367
13589TIP3    H262259   1.907   1.827  55.223 -0.0490  0.2528 -0.7785
13590TIP3   OH262260   0.905   1.545  58.429 -0.1832 -0.1272  0.2247
13590TIP3    H162261   0.852   1.529  58.507 -0.1659  0.6681  0.4082
13590TIP3    H262262   0.910   1.460  58.385  1.4497 -1.0826  2.0982
13591TIP3   OH262263   1.376   2.340  34.940  0.1775  0.0830 -0.0357
13591TIP3    H162264   1.435   2.351  34.865  0.7155 -1.5390  0.1198
13591TIP3    H262265   1.310   2.277  34.910  0.5251 -0.7613  0.9044
13592TIP3   OH262266   2.684   1.900  20.742 -0.1269  0.0301 -0.2890
13592TIP3    H162267   2.659   1.952  20.665 -3.5370  1.1123  1.3794
13592TIP3    H262268   2.612   1.839  20.755  1.6086 -1.9654  0.6133
13593TIP3   OH262269   3.232   0.522  10.292  0.0020 -0.2548 -0.0660
13593TIP3    H162270   3.320   0.508  10.259  0.5640 -1.0432  1.6464
13593TIP3    H262271   3.231   0.613  10.320 -0.2676  0.2222 -1.5617
13594TIP3   OH262272   2.621   0.673  15.837  0.5098 -0.0422 -0.1685
13594TIP3    H162273   2.545   0.615  15.840  1.3665 -1.2985 -1.4941
13594TIP3    H262274   2.683   0.629  15.778  3.3409 -0.3352  2.7308
13595TIP3   OH262275   2.370   3.323  60.217  0.0741 -0.4356  0.2807
13595TIP3    H162276   2.326   3.333  60.301  0.6192  0.8456  0.4365
13595TIP3    H262277   2.446   3.380  60.223  0.0299 -0.1928 -1.1495
13596TIP3   OH262278   1.665   3.385   7.162 -0.1983  0.1504 -0.2198
13596TIP3    H162279   1.703   3.432   7.237 -1.2791 -0.3130  0.6454
13596TIP3    H262280   1.601   3.445   7.126 -0.7405 -0.1844  0.1629
13597TIP3   OH262281   1.752   3.338  13.561  0.3386  0.0721 -0.2980
13597TIP3    H162282   1.665   3.308  13.588  0.2926  1.4352  1.1901
13597TIP3    H262283   1.750   3.433  13.574  1.7460  0.2402 -1.1549
13598TIP3   OH262284   0.871   0.319  63.102 -0.3878 -0.1230  0.1822
13598TIP3    H162285   0.874   0.355  63.190 -1.5729  0.7650 -0.1043
13598TIP3    H262286   0.946   0.260  63.096 -0.0576  0.1337  1.6309
13599TIP3   OH262287   2.259   2.772  52.234 -0.0800 -0.2627 -0.0903
13599TIP3    H162288   2.302   2.755  52.317  1.0141 -0.4902 -0.6896
13599TIP3    H262289   2.200   2.845  52.252  1.4898  0.9152  0.4601
13600TIP3   OH262290   1.298   2.050   1.251 -0.5298 -0.0856 -0.1989
13600TIP3    H162291   1.370   2.052   1.314 -0.9191  1.9057  0.2545
13600TIP3    H262292   1.258   1.964   1.263  0.2314 -0.2681  1.3292
13601TIP3   OH262293   2.309   0.199  67.433 -0.6751  0.1154  0.0671
13601TIP3    H162294   2.276   0.110  67.446 -1.2888 -0.6325 -4.7643
13601TIP3    H262295   2.233   0.249  67.405  0.1798  1.4789  0.0750
13602TIP3   OH262296   1.061   1.236  44.793 -0.0515 -0.2860  0.6367
13602TIP3    H162297   1.113   1.252  44.714  2.2357 -2.6464  1.5062
13602TIP3    H262298   0.984   1.187  44.761 -0.6561  1.2431 -0.3908
13603TIP3   OH262299   2.357   1.240  15.155 -0.3093 -0.0352  0.2007
13603TIP3    H162300   2.299   1.314  15.173  0.5853  0.8742 -0.5302
13603TIP3    H262301   2.436   1.258  15.207 -0.1618 -0.5921  0.1771
13604TIP3   OH262302   0.817   2.941   5.811 -0.3119 -0.6514  0.2032
13604TIP3    H162303   0.775   2.855   5.822  0.6608 -0.9700  1.7305
13604TIP3    H262304   0.806   2.962   5.719 -0.0462 -2.7063 -0.3345
13605TIP3   OH262305   0.146   2.660  13.274  0.4512  0.7291 -0.5031
13605TIP3    H162306   0.093   2.727  13.318 -0.4049 -0.7622  0.8600
13605TIP3    H262307   0.232   2.667  13.315 -0.6952 -1.6056  2.7655
13606TIP3   OH262308   2.885   2.388   9.579 -0.7233  0.1796 -0.0959
13606TIP3    H162309   2.826   2.370   9.653  2.3338 -0.1617  2.4985
13606TIP3    H262310   2.921   2.302   9.557 -0.0981  0.5695 -0.6068
13607TIP3   OH262311   0.727   1.754  58.348  0.6726  0.0130 -0.2020
13607TIP3    H162312   0.761   1.699  58.278  0.7412 -1.5957  1.0452
13607TIP3    H262313   0.637   1.724  58.361  0.4987  0.6315  0.0813
13608TIP3   OH262314   3.412   0.477  12.956  0.5951 -0.2410  0.1752
13608TIP3    H162315   3.475   0.549  12.961  1.7310 -1.1028 -1.0704
13608TIP3    H262316   3.356   0.489  13.033 -0.3152  2.9195 -0.8221
13609TIP3   OH262317   2.496   1.329  50.219  0.0833 -0.5541 -0.0671
13609TIP3    H162318   2.510   1.370  50.134  1.7745 -0.3431  0.2791
13609TIP3    H262319   2.417   1.277  50.208 -0.2609  0.2267 -1.4794
13610TIP3   OH262320   1.140   1.806  62.589  0.1356  0.5738  0.5343
13610TIP3    H162321   1.179   1.774  62.507  1.8842  0.1153  1.5013
13610TIP3    H262322   1.065   1.859  62.560 -0.6909 -1.3987 -1.2662
13611TIP3   OH262323   1.106   1.625  47.546  0.3744 -0.0111  0.3541
13611TIP3    H162324   1.192   1.668  47.551  1.1171 -1.3912  0.0506
13611TIP3    H262325   1.044   1.697  47.537  1.7092  0.9503 -2.2280
13612TIP3   OH262326   0.182   3.290  48.985 -0.2052  0.6298  0.3752
13612TIP3    H162327   0.265   3.247  49.007 -0.7607  1.1967  4.3204
13612TIP3    H262328   0.202   3.347  48.911  2.2501 -1.0966 -0.3986
13613TIP3   OH262329   2.028   2.952  58.652  0.5304 -0.1517 -0.2071
13613TIP3    H162330   2.015   2.896  58.576 -0.3436 -2.4729  1.5571
13613TIP3    H262331   2.122   2.945  58.671  0.1926 -2.4543  0.9440
13614TIP3   OH262332   2.626   1.111  54.822 -0.4025  0.0670  0.4749
13614TIP3    H162333   2.567   1.150  54.887 -2.0839  0.0420 -0.9740
13614TIP3    H262334   2.686   1.059  54.874 -0.9962  0.9157  2.1045
13615TIP3   OH262335   3.386   2.336  46.274 -0.7288 -0.9515 -0.3219
13615TIP3    H162336   3.377   2.421  46.232 -0.1289 -0.9066 -0.3671
13615TIP3    H262337   3.339   2.345  46.357  0.6315 -0.0762  0.3889
13616TIP3   OH262338   1.774   2.413   6.800 -0.1659  0.2686  0.5078
13616TIP3    H162339   1.831   2.344   6.764 -0.9628 -0.3689  0.4224
13616TIP3    H262340   1.814   2.436   6.884 -0.5439 -1.2030  1.1361
13617TIP3   OH262341   0.644   1.913  42.956 -0.1424 -0.0476  0.1201
13617TIP3    H162342   0.617   1.899  43.047 -1.3543 -4.0494 -0.6471
13617TIP3    H262343   0.725   1.862  42.947 -0.1641  0.1119 -1.1162
13618TIP3   OH262344   2.942   3.422   6.803 -0.7035 -0.5733 -0.1138
13618TIP3    H162345   2.918   3.387   6.889 -1.3046  1.6991  0.7381
13618TIP3    H262346   2.893   3.505   6.798  4.5514  3.0600  0.4802
13619TIP3   OH262347   3.140   2.241  64.850  0.5298  0.1891  0.2346
13619TIP3    H162348   3.078   2.257  64.779  0.6979 -1.3628 -0.3091
13619TIP3    H262349   3.206   2.310  64.841  0.7839 -0.2175 -1.4246
13620TIP3   OH262350   0.853   2.404  58.515  0.3392 -0.3219  0.4240
13620TIP3    H162351   0.812   2.449  58.442 -1.0758 -0.0011  1.3707
13620TIP3    H262352   0.947   2.418  58.503  0.0973  0.2427 -0.9657
13621TIP3   OH262353   3.285   1.348  53.716  0.3640 -0.4363  0.0010
13621TIP3    H162354   3.276   1.281  53.784  1.4106  0.1797  0.7732
13621TIP3    H262355   3.202   1.345  53.668 -0.3775 -0.9229  1.2731
13622TIP3   OH262356   3.433   0.037  42.431  0.4700 -0.0289 -0.1050
13622TIP3    H162357   3.390   0.022  42.347 -0.9677  0.7114  0.4683
13622TIP3    H262358   3.395  -0.028  42.490  0.4382  0.3612  0.3118
13623TIP3   OH262359   3.148   1.277  50.668  0.0180 -0.7182  0.5185
13623TIP3    H162360   3.190   1.237  50.591 -2.2855  0.1969 -1.3712
13623TIP3    H262361   3.205   1.350  50.692  1.9440 -2.3498  1.1845
13624TIP3   OH262362   1.878   0.715  46.832  0.1637  0.3733 -0.0002
13624TIP3    H162363   1.874   0.680  46.921 -0.5557  1.0067  0.2246
13624TIP3    H262364   1.847   0.643  46.777 -1.0155  0.5166  0.4316
13625TIP3   OH262365   2.015   1.367  45.185  0.4009  0.4584 -0.8630
13625TIP3    H162366   2.066   1.294  45.149  0.1014 -0.8540  1.2190
13625TIP3    H262367   1.962   1.397  45.111 -0.1881 -2.1005 -1.5820
13626TIP3   OH262368   1.210   2.007  16.229 -0.4582 -0.3761 -0.5014
13626TIP3    H162369   1.188   2.020  16.321 -1.1186 -0.2904 -0.6671
13626TIP3    H262370   1.283   1.945  16.230  0.7162  0.9730  0.1506
13627TIP3   OH262371   3.080   1.964  20.377 -0.4589 -0.6437  0.3443
13627TIP3    H162372   3.082   2.059  20.380  0.8281 -0.5855 -1.1558
13627TIP3    H262373   3.172   1.938  20.378 -0.7454 -1.7887 -0.6358
13628TIP3   OH262374   1.617   1.542  12.321  0.4124 -0.1393  0.6126
13628TIP3    H162375   1.678   1.541  12.248  1.3693 -0.2185  1.3907
13628TIP3    H262376   1.631   1.626  12.364  0.2833 -0.3345  1.0494
13629TIP3   OH262377   1.899   1.155  12.129 -0.3112  0.0133  0.2598
13629TIP3    H162378   1.926   1.096  12.200 -0.3606 -0.6754 -0.2819
13629TIP3    H262379   1.806   1.170  12.144 -0.4287 -0.5171  0.0699
13630TIP3   OH262380   1.163   2.886  51.400  0.2295  0.5781  0.2466
13630TIP3    H162381   1.096   2.832  51.443  0.2709 -0.4670 -0.9515
13630TIP3    H262382   1.188   2.950  51.467  0.2736 -0.9649  1.7696
13631TIP3   OH262383   1.197   1.005  51.232  0.5235  0.3723 -0.3999
13631TIP3    H162384   1.248   0.948  51.289  0.4623 -0.2081 -0.9066
13631TIP3    H262385   1.151   0.944  51.173  1.9467  0.9573 -2.2319
13632TIP3   OH262386   1.537   0.329  53.428  0.3467 -0.1929 -0.1309
13632TIP3    H162387   1.537   0.235  53.408  1.7395  0.1418 -2.1040
13632TIP3    H262388   1.542   0.333  53.523 -1.0608 -2.0839  0.0826
13633TIP3   OH262389   0.760   1.272   0.452 -0.2589  0.0040 -0.1143
13633TIP3    H162390   0.778   1.240   0.363 -0.4891  1.9851 -0.9206
13633TIP3    H262391   0.766   1.367   0.445 -0.7850  0.2311  1.9046
13634TIP3   OH262392   0.025   2.720   4.834  0.3409 -0.3839  0.2929
13634TIP3    H162393   0.099   2.758   4.882  1.2066  0.2798 -1.4888
13634TIP3    H262394   0.065   2.675   4.759 -1.0310 -0.3062 -0.5178
13635TIP3   OH262395   1.765   1.152  60.249 -0.4244  0.1331  0.1547
13635TIP3    H162396   1.834   1.117  60.192 -1.4385 -2.9829  0.6375
13635TIP3    H262397   1.812   1.206  60.313  1.4873 -1.1973 -0.0281
13636TIP3   OH262398   2.197   2.884  60.301  0.3016 -0.0400 -0.4459
13636TIP3    H162399   2.145   2.953  60.343  0.7839 -0.8823  1.6543
13636TIP3    H262400   2.134   2.814  60.283 -0.3171  1.0906 -3.1704
13637TIP3   OH262401   0.343   0.002  47.061 -0.1347 -0.2847 -0.3605
13637TIP3    H162402   0.259   0.022  47.102 -0.6721 -1.7718 -0.6976
13637TIP3    H262403   0.367   0.083  47.015 -0.6187  0.6548  0.9763
13638TIP3   OH262404   1.225   1.769   8.956  1.0914 -0.3231 -0.1003
13638TIP3    H162405   1.224   1.697   8.893  2.8487  0.2503 -0.8481
13638TIP3    H262406   1.135   1.803   8.955  0.1741 -2.5698  0.4273
13639TIP3   OH262407   2.765   3.430  52.909  0.8599 -0.0068 -0.1929
13639TIP3    H162408   2.759   3.384  52.825 -1.6746  0.0886 -0.1189
13639TIP3    H262409   2.855   3.462  52.912  1.9453 -2.5989 -1.4767
13640TIP3   OH262410   1.891   0.286   7.171  0.4289 -0.2933  0.0748
13640TIP3    H162411   1.835   0.240   7.233  1.5079  1.5242  2.5899
13640TIP3    H262412   1.977   0.245   7.181  0.7324  0.3560  0.1988
13641TIP3   OH262413   3.276   1.190  31.642  0.5082  0.3104  0.3699
13641TIP3    H162414   3.303   1.106  31.607  0.0680 -0.4113  1.6784
13641TIP3    H262415   3.277   1.249  31.567  3.0899 -0.2757 -0.1809
13642TIP3   OH262416   1.972   3.309   4.846 -0.4423 -0.2236 -0.0329
13642TIP3    H162417   1.892   3.356   4.865 -2.2529 -2.8806 -0.5624
13642TIP3    H262418   2.041   3.361   4.889 -2.1374  3.0067 -0.9173
13643TIP3   OH262419   1.548   0.526  59.232  0.3826 -0.3376 -0.3405
13643TIP3    H162420   1.495   0.574  59.168 -1.0457 -1.4888 -0.0739
13643TIP3    H262421   1.521   0.435  59.223  0.8715 -0.6743  1.1939
13644TIP3   OH262422   1.896   2.256   1.318  0.2133  0.1868 -0.1180
13644TIP3    H162423   1.870   2.206   1.396  0.9748 -0.3855 -0.2150
13644TIP3    H262424   1.856   2.208   1.245  0.1657  0.2556 -0.1364
13645TIP3   OH262425   3.062   1.085  54.948 -0.2235  0.8394  0.3780
13645TIP3    H162426   3.139   1.028  54.941  0.6005  2.0020 -0.3088
13645TIP3    H262427   2.998   1.046  54.888 -1.5002 -2.0346  3.3037
13646TIP3   OH262428   1.945   1.135  19.283  0.1009 -0.0246 -0.3301
13646TIP3    H162429   1.867   1.080  19.271 -0.2657  0.5397 -0.5599
13646TIP3    H262430   1.922   1.218  19.242  1.5516 -0.4891 -2.2010
13647TIP3   OH262431   0.338   1.809  15.758  0.6332 -0.3953  0.0872
13647TIP3    H162432   0.268   1.837  15.816 -0.4727 -1.4070 -0.7146
13647TIP3    H262433   0.320   1.716  15.741 -0.9136  0.4308 -4.1932
13648TIP3   OH262434   0.220   2.524  21.926 -0.4259 -1.0258  0.0197
13648TIP3    H162435   0.140   2.531  21.873  0.7538 -0.4152 -1.7455
13648TIP3    H262436   0.205   2.583  22.000 -0.5779  1.1890 -1.7004
13649TIP3   OH262437   2.640   0.064  18.667 -0.1276  0.4781  0.7244
13649TIP3    H162438   2.664   0.117  18.591  0.8920  0.7984  1.2473
13649TIP3    H262439   2.648   0.124  18.741  2.4883 -0.7220  1.5248
13650TIP3   OH262440   1.075   2.950  67.290 -0.1596  0.5306 -0.1914
13650TIP3    H162441   1.055   3.041  67.311 -0.7013  0.2121  0.7057
13650TIP3    H262442   1.066   2.903  67.373  2.0890 -0.0322 -0.2069
13651TIP3   OH262443   1.687   0.885   1.649  0.4760 -0.6936  0.1505
13651TIP3    H162444   1.689   0.894   1.554 -2.1724 -0.6202  0.0367
13651TIP3    H262445   1.734   0.804   1.667  0.9879 -0.7199 -1.1924
13652TIP3   OH262446   1.162   1.776  50.602 -0.1511 -0.2564 -0.3950
13652TIP3    H162447   1.115   1.821  50.531  0.3315  0.5545 -0.2200
13652TIP3    H262448   1.135   1.823  50.681  1.8230  1.0263 -0.4186
13653TIP3   OH262449   1.756   1.881  51.575 -0.1612  0.2016 -0.3458
13653TIP3    H162450   1.828   1.866  51.637  2.2726  1.0957 -2.7483
13653TIP3    H262451   1.758   1.975  51.558 -0.9922  0.0332 -1.5038
13654TIP3   OH262452   1.628   1.608   1.484  0.0156  0.1923 -0.1038
13654TIP3    H162453   1.710   1.588   1.527  0.4323  1.4117 -0.2924
13654TIP3    H262454   1.577   1.527   1.489  0.2096  0.1597  2.2736
13655TIP3   OH262455   3.366   1.625   8.394 -0.0192  0.2932  0.5829
13655TIP3    H162456   3.413   1.702   8.425 -1.0687  1.0835  0.2927
13655TIP3    H262457   3.370   1.631   8.298 -1.4980  0.9171  0.5302
13656TIP3   OH262458   0.941   3.398  56.982 -0.0160 -0.5452  0.6262
13656TIP3    H162459   0.931   3.339  57.058 -4.0565  0.3101  0.9831
13656TIP3    H262460   0.968   3.481  57.020 -0.1918 -0.6004  0.8752
13657TIP3   OH262461   0.837   0.284  37.459  0.2001 -0.4213 -0.0164
13657TIP3    H162462   0.753   0.310  37.499  0.5031  0.3388  0.1234
13657TIP3    H262463   0.875   0.223  37.523  0.9179  1.1747  1.1503
13658TIP3   OH262464   2.685   0.441  59.353  0.8862 -0.1548 -0.4124
13658TIP3    H162465   2.637   0.503  59.408  0.4161 -1.6477  0.9311
13658TIP3    H262466   2.775   0.445  59.383  0.8082 -0.2772 -0.1550
13659TIP3   OH262467   1.082   2.531  55.504  0.2433 -0.4864  0.2623
13659TIP3    H162468   1.064   2.552  55.412  0.8398  0.5839  0.3688
13659TIP3    H262469   1.005   2.482  55.533 -1.2600  1.5336 -0.0608
13660TIP3   OH262470   2.366   2.963  59.871  0.4931 -0.2793  0.1573
13660TIP3    H162471   2.420   2.897  59.914  1.3156 -0.0789 -0.5259
13660TIP3    H262472   2.366   3.038  59.931 -0.6244 -0.9555  1.0351
13661TIP3   OH262473   0.523   0.943  49.353 -0.0502  0.2993 -0.1535
13661TIP3    H162474   0.528   0.880  49.425 -0.7196 -0.0773 -0.4320
13661TIP3    H262475   0.585   1.011  49.377 -1.6083  1.1360  1.7186
13662TIP3   OH262476   1.310   2.173   2.728 -0.4496  0.4866  0.3524
13662TIP3    H162477   1.287   2.146   2.639 -0.4300 -1.6747  0.9495
13662TIP3    H262478   1.308   2.269   2.725 -0.0832  0.4833 -2.0507
13663TIP3   OH262479   0.892   0.298   6.729  0.3056 -0.0127 -0.5132
13663TIP3    H162480   0.981   0.333   6.724  0.7181 -0.8652  0.4225
13663TIP3    H262481   0.868   0.280   6.639  0.4057  1.8292 -0.9509
13664TIP3   OH262482   2.539   2.702  18.431 -0.5366  0.0987 -0.2655
13664TIP3    H162483   2.463   2.646  18.419 -1.5970  1.6949 -1.4203
13664TIP3    H262484   2.508   2.774  18.486  0.5013  0.1388  0.3047
13665TIP3   OH262485   1.753   0.340  18.607 -0.1585 -0.0845 -0.2573
13665TIP3    H162486   1.797   0.400  18.547 -0.3977 -0.2542 -0.6076
13665TIP3    H262487   1.773   0.253  18.572  2.0303 -0.3685  1.4772
13666TIP3   OH262488   1.290   1.430  20.075 -0.3833  0.3399  0.7643
13666TIP3    H162489   1.368   1.455  20.025  0.5605 -0.8876  1.5246
13666TIP3    H262490   1.322   1.362  20.135 -2.5087 -2.0496 -0.5750
13667TIP3   OH262491   0.210   3.006  11.212 -0.0690 -0.1417 -0.5456
13667TIP3    H162492   0.246   2.931  11.259 -2.1753 -1.4706 -0.9014
13667TIP3    H262493   0.273   3.077  11.227  1.4925 -1.6972  0.6234
13668TIP3   OH262494   1.978   2.570  13.153 -0.4355 -0.6925 -0.2688
13668TIP3    H162495   1.886   2.545  13.150 -0.6522  0.1193 -1.2179
13668TIP3    H262496   2.000   2.590  13.062  0.6326 -0.6939 -0.0279
13669TIP3   OH262497   1.166   1.295  51.561  0.4981  0.1739 -0.1892
13669TIP3    H162498   1.182   1.389  51.550  1.5217  0.2368  1.3798
13669TIP3    H262499   1.251   1.260  51.588  0.2575 -1.3150 -1.2970
13670TIP3   OH262500   0.376   0.284  20.554  0.0593 -0.1091  0.4758
13670TIP3    H162501   0.387   0.316  20.464  1.0555 -0.0189  0.6197
13670TIP3    H262502   0.290   0.241  20.554 -1.0272  1.9228  0.0812
13671TIP3   OH262503   1.455   2.321   9.011  0.3349  0.2583  0.1778
13671TIP3    H162504   1.487   2.409   8.993 -0.1795  0.2229 -1.0056
13671TIP3    H262505   1.399   2.332   9.089 -2.2448  1.6391 -1.6882
13672TIP3   OH262506   2.878   2.092   0.602  0.0408  0.0645  0.3335
13672TIP3    H162507   2.784   2.089   0.621 -0.3912  0.5083 -1.5055
13672TIP3    H262508   2.920   2.060   0.682 -1.7291 -1.5106  0.7102
13673TIP3   OH262509   3.006   1.394   2.005  0.0914 -0.0698  0.1446
13673TIP3    H162510   3.043   1.342   1.934  1.6427  0.9565  0.1660
13673TIP3    H262511   2.934   1.442   1.964  1.1744  0.7647 -0.8509
13674TIP3   OH262512   0.400   0.142  61.241  0.3292  0.5449 -0.5850
13674TIP3    H162513   0.481   0.139  61.191  0.2957 -0.0238 -0.6163
13674TIP3    H262514   0.373   0.050  61.247 -1.1908  0.8310 -2.0365
13675TIP3   OH262515   2.989   0.577   7.838 -0.5235  0.2977  0.0339
13675TIP3    H162516   2.902   0.614   7.822 -1.2248 -1.3421 -0.2030
13675TIP3    H262517   3.035   0.644   7.889 -2.4709  0.5548  1.5770
13676TIP3   OH262518   1.269   0.665  14.421  0.6008  0.4498  0.4134
13676TIP3    H162519   1.328   0.640  14.492  0.5997  0.8256  0.5475
13676TIP3    H262520   1.305   0.622  14.343 -0.1715 -1.1023  0.8809
13677TIP3   OH262521   3.204   2.100  61.863 -0.3539  0.0468 -0.1469
13677TIP3    H162522   3.298   2.096  61.882  0.0731  0.5382 -1.9486
13677TIP3    H262523   3.184   2.014  61.826 -0.4177  0.2303 -0.5419
13678TIP3   OH262524   2.466   2.984  19.714 -0.2427  0.0224  0.7830
13678TIP3    H162525   2.421   2.985  19.798 -0.7691 -0.3213  0.5103
13678TIP3    H262526   2.526   3.059  19.717 -0.5878  0.2783  1.2844
13679TIP3   OH262527   0.890   2.950  65.877 -0.2827  0.3121 -0.2966
13679TIP3    H162528   0.940   2.968  65.798 -1.0651 -1.5414 -1.2782
13679TIP3    H262529   0.800   2.974  65.856  0.0105  3.2758  1.3364
13680TIP3   OH262530   3.227   3.396   7.044  0.5469  0.4258  0.1021
13680TIP3    H162531   3.262   3.356   6.965  1.0801 -2.2733  1.5656
13680TIP3    H262532   3.154   3.340   7.070  1.7607 -0.1687  2.6335
13681TIP3   OH262533   0.841   2.436  44.736 -0.1583 -0.0392 -0.4483
13681TIP3    H162534   0.852   2.456  44.829 -3.0654 -0.0423 -0.0084
13681TIP3    H262535   0.828   2.522  44.695 -2.1781 -0.2226 -0.2655
13682TIP3   OH262536   1.731   1.392  16.462  0.0024  0.5946  0.3907
13682TIP3    H162537   1.691   1.410  16.548 -0.9935  0.1307  0.0404
13682TIP3    H262538   1.689   1.311  16.433  1.6569 -0.2487  0.2638
13683TIP3   OH262539   2.530   0.926  66.794 -0.7612 -0.5095 -0.3519
13683TIP3    H162540   2.579   0.954  66.717  0.8879  0.0228  0.8167
13683TIP3    H262541   2.440   0.953  66.777  0.2764  3.6167 -0.3117
13684TIP3   OH262542   1.827   0.795  64.344  0.0631  0.1426 -0.4600
13684TIP3    H162543   1.859   0.732  64.409 -0.2448  0.6823  0.2236
13684TIP3    H262544   1.852   0.757  64.259  0.8412 -0.3689 -0.0175
13685TIP3   OH262545   2.497   1.100  17.939 -0.1331  0.9200  0.1250
13685TIP3    H162546   2.565   1.147  17.988  0.8095 -0.2574 -0.0066
13685TIP3    H262547   2.453   1.169  17.889  0.6604  1.7796  0.5624
13686TIP3   OH262548   1.882   2.780   4.360 -0.2036 -0.3242 -0.5787
13686TIP3    H162549   1.801   2.814   4.323 -0.6652 -0.4717  0.2911
13686TIP3    H262550   1.949   2.803   4.295 -0.8990 -0.0067 -1.1931
13687TIP3   OH262551   2.367   1.890  61.041 -0.0948 -0.5774  0.5980
13687TIP3    H162552   2.338   1.809  60.998  0.0131 -1.7299  2.5628
13687TIP3    H262553   2.452   1.910  61.001 -0.4915 -0.9631 -0.4722
13688TIP3   OH262554   0.501   2.625  17.875  0.2572  0.0125 -0.1001
13688TIP3    H162555   0.541   2.583  17.951 -1.5707  0.9755  1.4560
13688TIP3    H262556   0.408   2.631  17.897 -0.1151  1.4705 -1.8782
13689TIP3   OH262557   0.218   2.914  58.966  0.4978 -0.2360 -0.3970
13689TIP3    H162558   0.137   2.901  58.917  0.3464 -0.4617 -0.0848
13689TIP3    H262559   0.191   2.959  59.046  0.6333 -0.6414 -0.1233
13690TIP3   OH262560   1.247   0.807  63.003  0.5594 -0.2082  0.0504
13690TIP3    H162561   1.189   0.803  62.927  0.0534 -0.5529  0.4465
13690TIP3    H262562   1.334   0.784  62.968 -0.0142 -2.3703 -0.0949
13691TIP3   OH262563   1.201   2.722  38.016 -0.3020  0.8840 -0.0167
13691TIP3    H162564   1.265   2.792  38.030 -1.0704  1.7698 -0.7706
13691TIP3    H262565   1.152   2.749  37.938 -1.1630 -0.0911  0.1545
13692TIP3   OH262566   0.961   1.668   6.862 -0.1526  0.5754  0.2325
13692TIP3    H162567   1.055   1.687   6.863  0.2639 -1.2349 -0.8027
13692TIP3    H262568   0.944   1.627   6.947  0.4523 -0.9899 -0.3765
13693TIP3   OH262569   0.635   2.478  57.374 -0.9646 -0.6833  0.4706
13693TIP3    H162570   0.573   2.406  57.368  0.4927 -1.8784 -1.7129
13693TIP3    H262571   0.621   2.528  57.294  0.4072 -0.6016  0.2642
13694TIP3   OH262572   0.490   3.394  61.448 -0.5030  0.0600 -0.7946
13694TIP3    H162573   0.549   3.445  61.393 -0.3498  1.0171  0.2296
13694TIP3    H262574   0.524   3.304  61.444 -0.3078  0.1717 -1.9731
13695TIP3   OH262575   0.055   1.915  21.512 -0.0256 -0.9153 -0.1770
13695TIP3    H162576  -0.021   1.857  21.511 -0.3489 -0.5022 -0.9836
13695TIP3    H262577   0.121   1.870  21.459 -0.1647 -0.7118 -0.5340
13696TIP3   OH262578   1.462   1.658  54.203  0.1449 -0.9653  0.5698
13696TIP3    H162579   1.542   1.623  54.163  0.6713  0.0021  0.7269
13696TIP3    H262580   1.457   1.748  54.169 -0.5824 -0.8423  0.9918
13697TIP3   OH262581   0.336   0.762  14.373 -0.0211  0.4190  0.1729
13697TIP3    H162582   0.254   0.761  14.422  0.3847 -1.2771  0.8814
13697TIP3    H262583   0.404   0.752  14.439  0.5864 -1.0842 -0.6220
13698TIP3   OH262584   1.906   3.065  27.061 -0.3420 -0.0790  0.3964
13698TIP3    H162585   1.878   2.990  27.114  1.8680  0.0633  1.9045
13698TIP3    H262586   1.935   3.026  26.978  0.1044 -0.8313  0.8917
13699TIP3   OH262587   0.036   1.497  21.842  0.2482  0.0573  0.4853
13699TIP3    H162588   0.053   1.580  21.886  1.3700 -0.2791  0.7265
13699TIP3    H262589   0.015   1.436  21.912  0.7827 -0.1782  0.4461
13700TIP3   OH262590   3.073   0.724   8.041 -0.2555 -0.0187  0.1127
13700TIP3    H162591   3.032   0.761   8.119  0.7245  1.3860 -0.0016
13700TIP3    H262592   3.164   0.706   8.068  0.3500  1.3112 -0.8940
13701TIP3   OH262593   3.087   1.888  62.534  0.0645  0.1554  0.6647
13701TIP3    H162594   3.034   1.956  62.493  0.4793  0.0289 -0.1103
13701TIP3    H262595   3.090   1.818  62.469 -0.5508 -0.7107  1.5496
13702TIP3   OH262596   1.885   2.407  43.649 -0.1164 -0.5519 -0.1294
13702TIP3    H162597   1.834   2.483  43.620 -2.1303 -2.2599 -1.2855
13702TIP3    H262598   1.835   2.371  43.722  1.1375 -0.4659  0.8012
13703TIP3   OH262599   0.877   2.552  47.930  0.3809 -0.1309 -0.6866
13703TIP3    H162600   0.803   2.537  47.871  1.1057 -1.9696 -1.1959
13703TIP3    H262601   0.837   2.565  48.016 -0.5707 -3.5407 -0.4560
13704TIP3   OH262602   2.226   1.736  65.143  0.0430  0.0431 -0.6732
13704TIP3    H162603   2.169   1.813  65.150  0.3566  0.1338  2.4488
13704TIP3    H262604   2.309   1.770  65.110 -0.4143  0.6548 -1.2260
13705TIP3   OH262605   1.809   2.747  52.757  0.3539  0.5649  0.8117
13705TIP3    H162606   1.903   2.746  52.741  0.2758  1.3664  0.2267
13705TIP3    H262607   1.775   2.675  52.703  0.5670  0.6622  0.5458
13706TIP3   OH262608   3.301   0.205  52.559 -0.3841 -0.1265 -0.3037
13706TIP3    H162609   3.313   0.169  52.471 -0.5286  0.0327 -0.3911
13706TIP3    H262610   3.341   0.292  52.555  0.9623 -0.6963  0.2293
13707TIP3   OH262611   2.915   1.920   3.360  0.5459 -0.2125 -0.4668
13707TIP3    H162612   2.987   1.856   3.363  1.4122  0.7618 -0.1877
13707TIP3    H262613   2.874   1.905   3.275  2.1350  0.3293 -1.3771
13708TIP3   OH262614   3.423   1.986  67.034  0.9082 -0.3694  0.6508
13708TIP3    H162615   3.410   2.079  67.016 -0.1685 -0.6539 -0.0999
13708TIP3    H262616   3.511   1.982  67.074 -0.0359  1.2728  3.1888
13709TIP3   OH262617   0.222   1.013  47.817 -0.1043  0.4034 -0.0322
13709TIP3    H162618   0.223   1.003  47.912  0.5553 -0.2247 -0.0971
13709TIP3    H262619   0.146   1.068  47.800 -0.5926  0.0236  0.8100
13710TIP3   OH262620   3.394   2.252   3.181  0.3099  0.0117 -0.6106
13710TIP3    H162621   3.332   2.191   3.221  0.5432 -0.2419 -0.6373
13710TIP3    H262622   3.338   2.319   3.141 -0.1140 -1.9995 -3.6331
13711TIP3   OH262623   1.357   0.749  16.064  0.1886  0.2177  0.1582
13711TIP3    H162624   1.324   0.662  16.089  0.9609  0.3441  1.6853
13711TIP3    H262625   1.329   0.759  15.973 -2.5242 -0.3808  0.8261
13712TIP3   OH262626   1.987   2.651  60.826  0.0087  0.4191  0.9555
13712TIP3    H162627   2.043   2.726  60.807 -0.0291  0.3641  0.6312
13712TIP3    H262628   1.948   2.627  60.742 -2.0885  1.7329  1.4611
13713TIP3   OH262629   3.018   2.055  48.353 -0.3978 -0.4216 -0.4595
13713TIP3    H162630   3.002   2.143  48.389  0.1707 -0.1035 -0.9611
13713TIP3    H262631   2.994   2.063  48.260 -0.6803 -0.8963 -0.4275
13714TIP3   OH262632   2.071   1.013  15.038  0.2433  0.1061 -0.3699
13714TIP3    H162633   2.068   0.945  15.105  1.2784 -0.7527 -1.1647
13714TIP3    H262634   2.062   1.095  15.087 -1.3492 -0.5860  0.5652
13715TIP3   OH262635   3.195   0.198  62.850  0.5054 -0.1515 -0.0617
13715TIP3    H162636   3.139   0.121  62.863  1.3632 -0.4832  2.0035
13715TIP3    H262637   3.143   0.256  62.795 -0.8270 -1.5081 -0.3145
13716TIP3   OH262638   0.779   3.428   2.886  0.0323 -0.2533 -0.1154
13716TIP3    H162639   0.699   3.468   2.853 -0.3770 -1.1497 -0.2293
13716TIP3    H262640   0.849   3.489   2.861 -0.6758  0.9239  0.6659
13717TIP3   OH262641   0.933   2.161  43.064 -0.2793  0.4964  0.0713
13717TIP3    H162642   0.958   2.166  42.972 -0.9389 -0.9001 -0.1995
13717TIP3    H262643   0.850   2.209  43.069 -0.6819 -0.1639 -0.2341
13718TIP3   OH262644   2.226   3.425  51.729  0.0765 -0.4634  0.0375
13718TIP3    H162645   2.273   3.406  51.811 -0.7288  0.6158  0.7843
13718TIP3    H262646   2.253   3.513  51.705 -0.3059 -0.4676 -0.4183
13719TIP3   OH262647   0.617   0.688  17.723  0.0171 -0.5762  0.2403
13719TIP3    H162648   0.564   0.671  17.801  0.0305  0.4331  0.4817
13719TIP3    H262649   0.632   0.782  17.724  1.3951 -0.7735 -0.1069
13720TIP3   OH262650   2.547   2.708  28.971 -0.0201  0.6152 -0.1434
13720TIP3    H162651   2.544   2.630  29.025  1.1939  1.0852  0.6509
13720TIP3    H262652   2.626   2.697  28.918 -0.5803  0.6864 -1.0159
13721TIP3   OH262653   2.238   1.045  22.011 -0.1857  0.2832 -0.2513
13721TIP3    H162654   2.161   1.101  22.025  0.3296  0.8625  0.3097
13721TIP3    H262655   2.237   0.985  22.085 -0.8845 -0.6360 -0.9900
13722TIP3   OH262656   0.560   3.206  51.299  0.5415 -0.3387 -1.1170
13722TIP3    H162657   0.494   3.230  51.364  0.5620  0.3970 -1.3518
13722TIP3    H262658   0.644   3.227  51.341  0.6523 -1.5057 -0.7210
13723TIP3   OH262659   1.453   3.447  55.166 -0.5292 -0.4186 -0.6350
13723TIP3    H162660   1.489   3.536  55.169 -2.6477  0.5306 -1.4652
13723TIP3    H262661   1.521   3.395  55.121  0.2725  1.0223 -1.1605
13724TIP3   OH262662   1.471   3.053  11.622  0.5197  0.1160  0.1230
13724TIP3    H162663   1.464   3.011  11.536  2.6248 -0.2034  0.0401
13724TIP3    H262664   1.565   3.067  11.634  0.2054  0.9835  1.9976
13725TIP3   OH262665   2.842   3.108  45.141 -0.0678 -0.4925 -0.0346
13725TIP3    H162666   2.924   3.158  45.138 -0.9063  0.9001 -1.0941
13725TIP3    H262667   2.850   3.045  45.069 -0.4496  0.5571 -1.0268
13726TIP3   OH262668   0.620   2.729  36.386  0.3646 -0.3386  0.3463
13726TIP3    H162669   0.665   2.780  36.318  0.8480 -0.7625  0.3421
13726TIP3    H262670   0.592   2.794  36.450 -0.1333  0.0723 -0.2822
13727TIP3   OH262671   2.124   1.544  44.964 -0.2364 -0.2083  0.1557
13727TIP3    H162672   2.125   1.631  44.924  0.3903 -0.9133 -1.4449
13727TIP3    H262673   2.038   1.509  44.943  0.0392 -0.5218 -0.4776
13728TIP3   OH262674   0.963   2.917  54.380  0.4726  0.1404 -0.0718
13728TIP3    H162675   0.993   2.991  54.432 -0.6050 -0.5382  1.6143
13728TIP3    H262676   1.043   2.876  54.347  1.1858  0.7316  0.8740
13729TIP3   OH262677   2.490   1.541  56.226 -0.4311  0.5096  0.8935
13729TIP3    H162678   2.580   1.568  56.209 -0.7445  0.9227 -0.2120
13729TIP3    H262679   2.487   1.524  56.320  0.6607  1.0093  1.0305
13730TIP3   OH262680   2.103   0.243  12.967 -0.0360  0.5344  0.1423
13730TIP3    H162681   2.110   0.270  13.058  0.0679  2.4643 -0.3992
13730TIP3    H262682   2.121   0.149  12.969 -0.2440  0.4900  2.1212
13731TIP3   OH262683   0.423   3.169  51.969 -0.2046  0.5960 -0.2795
13731TIP3    H162684   0.441   3.263  51.955  1.5838  0.1595 -1.2350
13731TIP3    H262685   0.363   3.168  52.043  1.9103  2.4345  1.6558
13732TIP3   OH262686   3.289   2.639  14.096  0.4845 -0.3159  0.1642
13732TIP3    H162687   3.303   2.734  14.102 -0.8245 -0.0988  0.2683
13732TIP3    H262688   3.346   2.610  14.025  0.3162  0.6949 -0.4054
13733TIP3   OH262689   0.958   1.016  62.614 -0.0174  0.1495  0.6347
13733TIP3    H162690   0.972   1.073  62.538 -0.4541  0.2373  0.6182
13733TIP3    H262691   0.968   0.928  62.579 -1.8454  0.1196  0.1129
13734TIP3   OH262692   3.182   1.940   9.851  0.0373  0.1690 -0.2995
13734TIP3    H162693   3.274   1.922   9.870 -0.2032 -0.3014  0.4806
13734TIP3    H262694   3.160   1.879   9.780  0.3197  0.2670 -0.4727
13735TIP3   OH262695   1.647   1.172  19.432  0.1953 -0.2562  0.0870
13735TIP3    H162696   1.653   1.089  19.384 -0.4573 -0.2550 -0.0129
13735TIP3    H262697   1.726   1.176  19.485 -0.0893 -1.2649  0.6011
13736TIP3   OH262698   1.314   3.013  60.684  0.0075  0.1269  0.2910
13736TIP3    H162699   1.272   2.951  60.625 -2.2399  0.9698  0.9003
13736TIP3    H262700   1.318   2.967  60.768  1.8471 -0.5303 -0.1176
13737TIP3   OH262701   1.421   2.964  21.122  0.0141  0.1858  0.3907
13737TIP3    H162702   1.505   2.983  21.081  0.2505  0.9006  1.1846
13737TIP3    H262703   1.387   2.889  21.073 -0.8907  2.4603 -2.7882
13738TIP3   OH262704   2.839   0.994  51.503  0.3910 -0.5021 -1.0645
13738TIP3    H162705   2.854   0.960  51.415  0.6990 -1.4811 -0.6546
13738TIP3    H262706   2.925   1.019  51.535  0.1811  0.5575 -1.3085
13739TIP3   OH262707   2.076   1.196  17.693  0.1095  0.0086 -0.1786
13739TIP3    H162708   2.002   1.219  17.748  0.1657 -0.4676  0.1015
13739TIP3    H262709   2.074   1.101  17.689  0.3071  0.0217 -0.7248
13740TIP3   OH262710   1.280   2.872  58.998  0.0831 -0.2822 -0.3183
13740TIP3    H162711   1.207   2.906  58.947 -1.0751 -0.9351  0.8348
13740TIP3    H262712   1.261   2.899  59.088  1.1414 -0.6659  0.0323
13741TIP3   OH262713   1.081   3.215  16.678 -0.7086 -0.2786 -0.1114
13741TIP3    H162714   1.157   3.248  16.727 -2.1759  0.7975  1.6122
13741TIP3    H262715   1.050   3.140  16.729 -3.1891  1.7857  1.7180
13742TIP3   OH262716   1.437   1.649   8.705  0.1300  0.7276  0.2131
13742TIP3    H162717   1.500   1.713   8.672  1.4211  0.6196  2.2928
13742TIP3    H262718   1.369   1.703   8.747 -1.2340  0.8399 -1.9542
13743TIP3   OH262719   0.791   2.593  62.446  0.3949 -0.2128 -0.1060
13743TIP3    H162720   0.796   2.584  62.351 -0.6204  2.0753 -0.4323
13743TIP3    H262721   0.757   2.681  62.460 -1.5397 -1.2441  2.3525
13744TIP3   OH262722   1.622   1.862  37.192 -0.2618 -0.0487 -0.2422
13744TIP3    H162723   1.613   1.956  37.210 -1.4661 -0.0412 -0.7756
13744TIP3    H262724   1.620   1.821  37.278  0.3840  0.4102  0.0053
13745TIP3   OH262725   0.894   3.064   9.208 -0.1683 -0.2655  0.1698
13745TIP3    H162726   0.798   3.061   9.213 -0.2096  0.6293 -0.0777
13745TIP3    H262727   0.915   3.156   9.194  0.7553 -0.3941  0.6442
13746TIP3   OH262728   1.591   2.159  26.199 -0.0974 -0.5321 -0.3107
13746TIP3    H162729   1.576   2.132  26.109  1.2345 -1.9017 -0.1611
13746TIP3    H262730   1.559   2.087  26.252  0.5439 -0.4300  0.2368
13747TIP3   OH262731   2.213   0.457  61.528  0.6241 -0.1134 -0.0198
13747TIP3    H162732   2.225   0.491  61.439  0.3298  0.5963  0.1975
13747TIP3    H262733   2.124   0.484  61.551  1.6156  2.2144  1.5217
13748TIP3   OH262734   1.319   3.206  44.005 -0.0664  0.2047  0.1425
13748TIP3    H162735   1.286   3.120  44.028 -1.8632  0.3278 -1.6978
13748TIP3    H262736   1.263   3.267  44.054 -0.5586  0.3569 -0.5959
13749TIP3   OH262737   0.378   0.483  55.438  0.2027 -0.2634 -0.0381
13749TIP3    H162738   0.300   0.538  55.426 -1.7894 -2.8351  0.1677
13749TIP3    H262739   0.426   0.493  55.356  0.1522  2.0130  0.1375
13750TIP3   OH262740   1.646   0.344  55.791  0.4997 -0.0050  0.3394
13750TIP3    H162741   1.637   0.422  55.846 -3.0062  0.1857 -0.2845
13750TIP3    H262742   1.592   0.277  55.834  1.3894 -1.3136 -0.4923
13751TIP3   OH262743   2.972   2.351  63.246 -0.1373 -0.1651  0.0125
13751TIP3    H162744   3.051   2.383  63.289  0.2559  1.1344 -1.5613
13751TIP3    H262745   2.954   2.266  63.287 -0.0901  1.1557  3.0193
13752TIP3   OH262746   0.423   0.974   0.744 -0.0193  0.2429 -0.4495
13752TIP3    H162747   0.462   1.060   0.733  1.0923 -0.2858 -0.7822
13752TIP3    H262748   0.348   0.989   0.802  0.2249  1.4073 -0.4118
13753TIP3   OH262749   1.023   0.731  62.807  0.1330 -0.3692 -0.5364
13753TIP3    H162750   1.000   0.639  62.795  1.7107 -1.2328  2.1508
13753TIP3    H262751   1.105   0.742  62.758  1.0277 -0.9962  0.7831
13754TIP3   OH262752   3.051   0.415  51.865 -0.1940 -0.0438  0.0972
13754TIP3    H162753   3.028   0.504  51.841 -1.2172 -0.8459 -2.1387
13754TIP3    H262754   3.135   0.424  51.912 -0.5504  2.0958  0.4284
13755TIP3   OH262755   0.975   0.205   1.827  0.2582  0.2163 -0.1105
13755TIP3    H162756   0.895   0.202   1.878  0.5198  0.5355  0.3265
13755TIP3    H262757   1.039   0.248   1.885  1.9846 -3.7565  1.2713
13756TIP3   OH262758   1.317   0.603  20.911 -0.1397  0.3743  0.1609
13756TIP3    H162759   1.324   0.653  20.829 -0.7474  1.1796  0.5796
13756TIP3    H262760   1.224   0.609  20.934 -0.4685 -1.9295 -0.3628
13757TIP3   OH262761   1.031   2.989  19.755 -0.5942  0.5640 -0.3003
13757TIP3    H162762   1.110   3.043  19.746 -0.6657  0.8305  0.5899
13757TIP3    H262763   1.030   2.935  19.676  1.6676 -1.0050  0.6403
13758TIP3   OH262764   0.550   0.042  60.308 -0.5056  0.8949 -0.2847
13758TIP3    H162765   0.622   0.011  60.253 -1.4188 -1.2877 -0.3492
13758TIP3    H262766   0.495   0.093  60.248  0.0266  1.0217 -0.6768
13759TIP3   OH262767   3.120   2.607   8.689 -0.4432  0.0234  0.1518
13759TIP3    H162768   3.040   2.582   8.644  0.5886  0.2158 -1.9318
13759TIP3    H262769   3.162   2.524   8.712  0.5024 -0.1990 -2.1267
13760TIP3   OH262770   1.844   0.648   4.869  0.1854  0.3656  0.0655
13760TIP3    H162771   1.795   0.574   4.835 -0.6035  0.8584  0.0935
13760TIP3    H262772   1.933   0.615   4.881 -0.1758 -0.5988  0.1773
13761TIP3   OH262773   0.906   2.555  15.697 -0.3253  0.5067  0.4816
13761TIP3    H162774   0.938   2.608  15.770  1.2264 -0.5239  0.6031
13761TIP3    H262775   0.974   2.563  15.630 -1.3903  0.8664 -0.5788
13762TIP3   OH262776   3.368   0.120  59.521 -0.5749  0.4087 -0.7571
13762TIP3    H162777   3.311   0.176  59.468  1.3565 -0.1111 -3.6490
13762TIP3    H262778   3.334   0.032  59.507  0.2104  0.2196 -1.5930
13763TIP3   OH262779   3.401   0.047  50.677 -0.3798  0.4134 -0.6737
13763TIP3    H162780   3.477   0.104  50.690 -0.7896  0.5293  1.6972
13763TIP3    H262781   3.435  -0.027  50.626  0.7816  1.4561 -1.4930
13764TIP3   OH262782   0.861   3.113  21.963  0.0149 -0.3751  0.1503
13764TIP3    H162783   0.802   3.072  22.027  1.2879 -1.8764  0.4227
13764TIP3    H262784   0.920   3.042  21.936  0.7307  0.7117 -1.2452
13765TIP3   OH262785   0.166   0.983  53.231  0.0935 -0.1333  0.0922
13765TIP3    H162786   0.228   0.989  53.157  0.8396  2.4033  0.8130
13765TIP3    H262787   0.221   0.962  53.306 -0.5422 -1.7927  0.1334
13766TIP3   OH262788   3.374   2.908  10.369  0.2925  0.4983 -0.0883
13766TIP3    H162789   3.437   2.850  10.411 -0.9684 -1.2641 -0.4815
13766TIP3    H262790   3.412   2.927  10.283  0.3824 -0.4212 -0.2621
13767TIP3   OH262791   3.128   1.052  15.253  0.5320 -0.0678  0.0135
13767TIP3    H162792   3.139   1.114  15.326  1.4319  0.1683 -0.3124
13767TIP3    H262793   3.059   1.091  15.199 -0.4765 -0.4773  0.9669
13768TIP3   OH262794   0.287   0.139   1.554 -0.0863  0.0377  0.0217
13768TIP3    H162795   0.354   0.122   1.620 -0.0306 -0.3575 -0.1379
13768TIP3    H262796   0.247   0.054   1.537 -0.2893  0.1860 -0.2524
13769TIP3   OH262797   1.485   2.306  63.845 -0.0996 -0.3434 -0.2337
13769TIP3    H162798   1.414   2.243  63.858  0.1992 -0.9745 -1.4735
13769TIP3    H262799   1.511   2.331  63.934  0.4931 -2.7835  0.3775
13770TIP3   OH262800   1.435   3.069  20.726 -0.1204  0.7603  0.4459
13770TIP3    H162801   1.351   3.096  20.689  0.7092  1.9060 -0.6894
13770TIP3    H262802   1.418   2.983  20.765 -1.3402  0.0456 -1.5247
13771TIP3   OH262803   3.305   3.088  15.917  0.1610  0.1558  0.1897
13771TIP3    H162804   3.318   3.108  16.010  0.1718 -0.8687  0.4171
13771TIP3    H262805   3.271   2.998  15.916 -0.4783  0.3880 -0.7612
13772TIP3   OH262806   0.543   1.642   1.756  0.3291 -0.7170 -0.5637
13772TIP3    H162807   0.586   1.716   1.713  1.2132 -0.7362  0.2557
13772TIP3    H262808   0.498   1.596   1.685 -0.7814  0.9568 -0.9928
13773TIP3   OH262809   0.983   2.406  65.767  0.0304  0.2702  0.5134
13773TIP3    H162810   0.951   2.493  65.743 -1.4733 -0.5356 -0.5922
13773TIP3    H262811   0.957   2.396  65.859  0.8912  1.2693  0.8736
13774TIP3   OH262812   1.929   2.154   3.933  0.6695  0.7025  0.0108
13774TIP3    H162813   1.868   2.224   3.913 -2.8952 -2.4684 -1.4568
13774TIP3    H262814   1.909   2.130   4.024 -0.2299 -0.2034 -0.4051
13775TIP3   OH262815   2.090   2.155  43.693  0.2362  0.7832 -0.2544
13775TIP3    H162816   2.028   2.154  43.766 -0.9080  0.1569 -1.1940
13775TIP3    H262817   2.174   2.179  43.732 -0.2517  0.0142  1.3340
13776TIP3   OH262818   1.700   1.694  15.178  0.3383  0.3226  0.0048
13776TIP3    H162819   1.663   1.711  15.264  1.5459  0.3084  0.5452
13776TIP3    H262820   1.651   1.618  15.146 -0.8456  0.9712  0.2003
13777TIP3   OH262821   3.095   2.335   0.398 -0.2900  0.4430  0.2305
13777TIP3    H162822   3.087   2.250   0.356  1.9854  0.2003  0.2019
13777TIP3    H262823   3.038   2.392   0.347 -2.9593 -1.2683  1.0787
13778TIP3   OH262824   1.381   2.350  21.578  0.1630 -1.2021 -0.2130
13778TIP3    H162825   1.349   2.432  21.540 -2.5579 -1.6720  0.8126
13778TIP3    H262826   1.466   2.372  21.615 -0.6477  1.2745  0.3771
13779TIP3   OH262827   2.596   3.349   0.424  0.0013 -0.0881 -0.2628
13779TIP3    H162828   2.628   3.266   0.388 -0.5185  0.0455 -1.0436
13779TIP3    H262829   2.511   3.327   0.461  0.6822 -0.3077  1.2730
13780TIP3   OH262830   2.710   2.456  21.116  0.1110 -0.3810 -0.2283
13780TIP3    H162831   2.681   2.365  21.105  1.9094 -0.9246 -0.8049
13780TIP3    H262832   2.670   2.502  21.042  1.1086 -1.2294 -1.3428
13781TIP3   OH262833   1.801   0.015  66.335  0.4765  0.4646  0.0349
13781TIP3    H162834   1.794   0.046  66.425  0.4862  0.1833  0.1337
13781TIP3    H262835   1.857   0.080  66.291  0.9098  0.3098  0.3553
13782TIP3   OH262836   2.625   1.574  13.351 -0.0114 -0.3949  0.4874
13782TIP3    H162837   2.554   1.579  13.287  0.2544 -0.3214  0.1912
13782TIP3    H262838   2.585   1.601  13.433  0.3415  2.6766 -0.2110
13783TIP3   OH262839   0.255   1.618   5.246 -0.3172 -0.3139  0.3103
13783TIP3    H162840   0.166   1.644   5.221 -0.0598  0.0658 -0.2306
13783TIP3    H262841   0.311   1.656   5.178  0.3969  0.6772  1.4050
13784TIP3   OH262842   1.806   1.837  64.357 -0.2681  0.0107  0.4051
13784TIP3    H162843   1.857   1.769  64.315  0.1954  0.6546 -0.0928
13784TIP3    H262844   1.841   1.919  64.322  0.4119  0.5998  2.3106
13785TIP3   OH262845   0.824   0.675   0.900 -0.6997 -0.3293  0.0415
13785TIP3    H162846   0.888   0.655   0.832 -0.9850  0.0871 -0.3617
13785TIP3    H262847   0.872   0.669   0.982  0.0052  0.5234 -0.2866
13786TIP3   OH262848   0.540   2.384  47.374  0.1868 -0.2264 -0.5193
13786TIP3    H162849   0.538   2.289  47.371  0.4905 -0.2186 -1.3499
13786TIP3    H262850   0.629   2.406  47.400  0.4603 -0.1715 -1.4453
13787TIP3   OH262851   1.695   0.471  46.089 -0.0477 -0.4352  0.2627
13787TIP3    H162852   1.674   0.411  46.160 -2.5873  0.3295  0.2729
13787TIP3    H262853   1.646   0.439  46.014  1.1307 -0.1781 -0.6533
13788TIP3   OH262854   0.670   3.289  48.538  0.5408 -0.0442 -0.2220
13788TIP3    H162855   0.710   3.317  48.456 -2.4770  2.4674 -1.0394
13788TIP3    H262856   0.675   3.365  48.595 -0.6186 -0.5237  0.5734
13789TIP3   OH262857   1.077   0.877  45.848 -0.3921  0.2731 -0.3018
13789TIP3    H162858   1.006   0.861  45.787 -0.2812 -1.0334 -0.1167
13789TIP3    H262859   1.137   0.803  45.835 -0.9410 -0.6999  2.1848
13790TIP3   OH262860   3.401   0.903  13.310  0.0521 -0.0606  0.0016
13790TIP3    H162861   3.484   0.938  13.279  0.6512  0.7307  2.3256
13790TIP3    H262862   3.424   0.822  13.355 -0.5114 -0.1496  0.1351
13791TIP3   OH262863   0.448   0.542  58.182  0.5128  0.2141 -0.1916
13791TIP3    H162864   0.501   0.464  58.196  0.9064  0.6604  0.8626
13791TIP3    H262865   0.432   0.577  58.270  2.0753  2.4595 -0.7089
13792TIP3   OH262866   0.044   1.923  45.217 -0.2734 -0.1698 -0.3265
13792TIP3    H162867   0.097   1.982  45.164  1.7072 -0.9362  0.6900
13792TIP3    H262868   0.056   1.954  45.307 -1.8054 -0.2128 -0.0804
13793TIP3   OH262869   0.165   0.728  46.390  0.0544  0.4028  0.2916
13793TIP3    H162870   0.169   0.645  46.439  1.5919 -0.3326 -1.0192
13793TIP3    H262871   0.143   0.702  46.301 -0.6424  1.5440  0.1161
13794TIP3   OH262872   0.349   2.942  53.002 -0.4338 -0.2969 -0.1894
13794TIP3    H162873   0.351   2.864  53.057  0.6078 -0.2611 -0.1537
13794TIP3    H262874   0.262   2.941  52.961 -1.5455  0.0914  2.0019
13795TIP3   OH262875   3.025   1.725  51.335  0.5841 -0.5155 -0.2387
13795TIP3    H162876   3.077   1.802  51.355  0.5606 -0.3394 -0.8334
13795TIP3    H262877   3.031   1.715  51.240  0.2607 -1.0112 -0.2144
13796TIP3   OH262878   0.482   2.366  62.666 -0.5532 -0.1250 -0.1656
13796TIP3    H162879   0.527   2.410  62.738  0.1443  0.4993 -0.9693
13796TIP3    H262880   0.402   2.417  62.654  0.5508  1.4086 -1.5197
13797TIP3   OH262881   0.970   1.471  56.376 -0.6167  0.4260  0.3624
13797TIP3    H162882   1.033   1.424  56.322 -3.1973 -3.0876  0.0921
13797TIP3    H262883   1.003   1.461  56.466 -0.2930 -0.5003  0.1428
13798TIP3   OH262884   0.953   1.733  42.061  0.0581  0.5760  0.3943
13798TIP3    H162885   1.049   1.742  42.058  0.0757  0.4131  0.4399
13798TIP3    H262886   0.938   1.639  42.057 -0.0947  0.5942  0.5257
13799TIP3   OH262887   1.030   1.166   0.682 -0.4754 -0.6690 -0.2445
13799TIP3    H162888   0.971   1.102   0.642  0.4210 -1.0659 -0.9746
13799TIP3    H262889   1.117   1.129   0.668  0.0509  0.6498 -0.5381
13800TIP3   OH262890   3.044   1.715   8.009 -0.1086  0.0931  0.0059
13800TIP3    H162891   3.012   1.625   8.000 -2.5092  0.4495  3.2056
13800TIP3    H262892   3.136   1.710   7.982 -0.6610 -2.8139 -1.8447
13801TIP3   OH262893   2.857   3.090  29.783 -0.5043 -0.1666 -0.1641
13801TIP3    H162894   2.792   3.020  29.791 -1.8342  1.0678  0.2239
13801TIP3    H262895   2.921   3.071  29.852 -0.5434 -1.2891 -0.4168
13802TIP3   OH262896   2.994   1.276  53.002  0.6720  0.5863  0.1355
13802TIP3    H162897   2.948   1.260  52.920  1.9035 -1.2684 -0.2553
13802TIP3    H262898   2.930   1.252  53.070  0.9095 -1.7735 -0.3960
13803TIP3   OH262899   3.067   2.496  14.777 -0.5985 -0.2129 -0.8287
13803TIP3    H162900   3.083   2.534  14.691  1.0920  0.0054 -0.4408
13803TIP3    H262901   3.153   2.475  14.811 -1.2514 -0.5439  0.7098
13804TIP3   OH262902   3.060   0.394  10.446 -0.0716  0.8133 -0.0011
13804TIP3    H162903   3.102   0.338  10.511  0.0508 -0.5071 -1.1440
13804TIP3    H262904   3.130   0.448  10.411 -0.2470  1.9582  1.3296
13805TIP3   OH262905   0.270   3.304  48.543 -0.0727 -0.4001 -0.4904
13805TIP3    H162906   0.235   3.252  48.470 -1.5475 -0.0379 -0.0762
13805TIP3    H262907   0.309   3.239  48.602 -0.4969 -0.8781 -0.7275
13806TIP3   OH262908   2.214   3.307  21.225 -0.3478 -0.1047  0.1365
13806TIP3    H162909   2.260   3.291  21.307 -3.0553 -0.1929  1.7698
13806TIP3    H262910   2.209   3.402  21.218 -1.0107 -0.0884  0.6743
13807TIP3   OH262911   0.972   2.474  19.337 -0.0533  0.3066  0.1392
13807TIP3    H162912   1.016   2.547  19.294  0.7510 -0.1902  0.0844
13807TIP3    H262913   0.948   2.415  19.266  2.5003 -1.1800  0.3681
13808TIP3   OH262914   1.726   1.076   4.063  0.3945  0.1330 -0.5764
13808TIP3    H162915   1.781   1.085   4.141  1.4581  1.5374 -1.4322
13808TIP3    H262916   1.649   1.028   4.093  0.4739  1.1895  1.4811
13809TIP3   OH262917   2.159   0.303   5.560  0.1749  0.1742  0.1369
13809TIP3    H162918   2.149   0.358   5.483  0.3387  0.7735  0.5375
13809TIP3    H262919   2.229   0.242   5.536 -1.0418 -0.8832 -0.8757
13810TIP3   OH262920   1.556   2.181  66.467 -0.6267 -0.0219  0.6348
13810TIP3    H162921   1.575   2.098  66.424  1.6562 -0.4739  2.3016
13810TIP3    H262922   1.475   2.166  66.515 -0.3233 -1.2741  0.7989
13811TIP3   OH262923   2.376   1.618   1.300  0.1150 -0.2339 -0.2720
13811TIP3    H162924   2.359   1.574   1.384 -0.3835 -2.1517 -1.3302
13811TIP3    H262925   2.292   1.660   1.278 -0.1261 -0.7888 -0.4156
13812TIP3   OH262926   2.903   1.769   7.017 -0.4068 -0.1612 -0.0869
13812TIP3    H162927   2.916   1.719   7.098 -1.0279 -1.9528 -1.0303
13812TIP3    H262928   2.890   1.702   6.950  2.2819  1.1623 -2.1262
13813TIP3   OH262929   0.026   2.862  17.283 -0.0018 -0.2116  0.2388
13813TIP3    H162930  -0.046   2.875  17.222 -0.0924 -0.1393  0.3595
13813TIP3    H262931   0.062   2.776  17.261  0.1944 -0.0338 -0.1467
13814TIP3   OH262932   0.512   2.726   4.641 -0.1177  0.3030 -0.2063
13814TIP3    H162933   0.494   2.644   4.688  0.3624 -0.0533 -0.6269
13814TIP3    H262934   0.556   2.781   4.705  2.5221 -0.9702 -0.7761
13815TIP3   OH262935   2.190   0.368   4.738 -0.4937 -0.5530 -0.5920
13815TIP3    H162936   2.186   0.391   4.645  0.3147  1.6409 -0.1393
13815TIP3    H262937   2.280   0.385   4.763 -1.1122  0.6496  0.9765
13816TIP3   OH262938   3.259   1.986  28.052 -0.1134  0.1755 -0.4214
13816TIP3    H162939   3.230   1.913  27.997 -1.4967  0.7746 -0.5145
13816TIP3    H262940   3.236   2.064  28.002  2.6340  0.7228 -0.9878
13817TIP3   OH262941   1.013   0.590  66.460 -0.2770 -0.5026  0.0937
13817TIP3    H162942   0.953   0.540  66.404 -2.1713 -0.0811  1.6256
13817TIP3    H262943   0.994   0.559  66.548  0.5860  0.8576  0.7800
13818TIP3   OH262944   2.825   1.701  13.214  0.3065 -0.2848 -0.0116
13818TIP3    H162945   2.772   1.646  13.271  1.3008 -2.7017 -1.3042
13818TIP3    H262946   2.762   1.745  13.158 -0.4561 -1.4222 -0.0749
13819TIP3   OH262947   1.080   0.717   1.959 -0.0420 -0.1638 -0.3425
13819TIP3    H162948   1.110   0.774   1.889 -1.1031 -1.3952 -1.8687
13819TIP3    H262949   1.142   0.731   2.030  0.5649  1.7664 -1.1904
13820TIP3   OH262950   1.140   1.258  15.060 -0.0131 -0.1383 -0.2204
13820TIP3    H162951   1.155   1.307  15.141  0.8880 -1.3898  0.4064
13820TIP3    H262952   1.066   1.302  15.018 -2.4243 -1.1092  2.6470
13821TIP3   OH262953   0.092   0.703  12.983 -0.1482  0.1438 -0.3051
13821TIP3    H162954   0.044   0.785  12.985 -2.0599 -0.7043 -3.4402
13821TIP3    H262955   0.169   0.721  12.929  0.5520  0.3265  0.7247
13822TIP3   OH262956   1.994   2.572  64.232 -0.1715  0.7707 -0.6729
13822TIP3    H162957   2.057   2.633  64.272  2.3653 -0.4726 -2.5258
13822TIP3    H262958   2.021   2.567  64.140 -3.8981  1.1912 -1.9378
13823TIP3   OH262959   2.774   1.991  48.540 -0.1229  0.1825 -0.6732
13823TIP3    H162960   2.852   1.999  48.484  0.2960  0.2027 -0.0998
13823TIP3    H262961   2.706   1.958  48.482 -0.3309  2.3265 -1.7394
13824TIP3   OH262962   1.817   0.712  51.514 -0.3511 -0.2598 -0.1167
13824TIP3    H162963   1.780   0.652  51.579 -0.2859 -0.7621 -0.5356
13824TIP3    H262964   1.908   0.682  51.503  0.6639  1.7913  1.8987
13825TIP3   OH262965   0.449   0.419   9.301 -0.1348 -0.3442 -0.7414
13825TIP3    H162966   0.512   0.430   9.372 -1.2546  1.7542  0.0166
13825TIP3    H262967   0.443   0.505   9.260 -1.3218 -0.9088 -1.8442
13826TIP3   OH262968   0.766   0.911  47.630 -0.1466  0.1345 -0.0414
13826TIP3    H162969   0.861   0.919  47.637 -0.2184 -0.2472  2.0261
13826TIP3    H262970   0.752   0.860  47.550  1.6059 -3.2363  1.5864
13827TIP3   OH262971   1.152   1.337  65.622  0.1557 -0.1384 -0.0150
13827TIP3    H162972   1.106   1.280  65.560 -1.1191  0.0613  0.7048
13827TIP3    H262973   1.086   1.357  65.689  1.5914 -0.6707  1.6252
13828TIP3   OH262974   3.076   2.383  29.182 -0.1624  0.2618  0.2979
13828TIP3    H162975   3.141   2.420  29.242  0.1082 -0.1040  0.2335
13828TIP3    H262976   3.036   2.459  29.140  0.9463  0.4694 -0.4155
13829TIP3   OH262977   0.843   0.963   1.556  0.2104 -0.1939  0.0651
13829TIP3    H162978   0.817   0.983   1.646 -1.9168  0.6514 -0.6702
13829TIP3    H262979   0.840   0.867   1.551 -0.9817 -0.2009  0.5608
13830TIP3   OH262980   2.787   2.504  20.352 -0.0364  0.0970 -0.2848
13830TIP3    H162981   2.818   2.521  20.440 -1.4623 -2.5197  0.8517
13830TIP3    H262982   2.726   2.576  20.333 -1.7910 -0.6353  2.0430
13831TIP3   OH262983   0.403   1.998  19.147 -0.3871  0.3513  0.1113
13831TIP3    H162984   0.319   1.956  19.127 -0.7202  0.9266  0.2869
13831TIP3    H262985   0.449   2.001  19.064 -1.3888  1.9029 -0.4258
13832TIP3   OH262986   1.398   2.266  49.463  0.0948  0.1255 -0.2153
13832TIP3    H162987   1.460   2.235  49.529  2.1852  1.5979 -1.3655
13832TIP3    H262988   1.431   2.228  49.381 -0.1502  1.4027 -0.9275
13833TIP3   OH262989   2.062   2.428  54.303 -0.3485  0.2709  0.4765
13833TIP3    H162990   2.012   2.477  54.368 -3.1007  1.8525 -2.5313
13833TIP3    H262991   2.139   2.483  54.284 -0.9154  1.0949  0.5432
13834TIP3   OH262992   3.420   2.937  56.484 -0.2964 -0.4270 -0.2187
13834TIP3    H162993   3.443   2.873  56.551 -0.3929  0.6753  0.9165
13834TIP3    H262994   3.347   2.898  56.436  1.0184 -2.0576 -0.9700
13835TIP3   OH262995   0.251   2.092   7.300  0.5075 -0.5287  0.1879
13835TIP3    H162996   0.307   2.069   7.226  1.3970  1.2705  0.2522
13835TIP3    H262997   0.216   2.179   7.278 -0.8867 -0.8737  0.9374
13836TIP3   OH262998   1.532   0.528  44.677 -0.4652 -0.0248  0.1178
13836TIP3    H162999   1.513   0.509  44.769  2.2414  1.2028  1.0370
13836TIP3    H263000   1.587   0.607  44.680 -0.4041  0.1207 -2.5803
13837TIP3   OH263001   1.343   0.312  65.413  0.1260  0.3467  0.2730
13837TIP3    H163002   1.292   0.332  65.334  2.1610 -0.2669 -1.2978
13837TIP3    H263003   1.278   0.287  65.478 -1.6232  0.5078 -1.3277
13838TIP3   OH263004   2.663   2.804  54.367  0.4870 -0.5014 -0.0108
13838TIP3    H163005   2.644   2.890  54.403 -1.5034 -0.7792 -0.2776
13838TIP3    H263006   2.757   2.805  54.349  0.3551  1.9718 -0.9285
13839TIP3   OH263007   1.130   2.289  46.410 -0.1476  0.0904  0.0065
13839TIP3    H163008   1.090   2.210  46.374 -0.7842  0.9169 -1.1875
13839TIP3    H263009   1.223   2.281  46.389 -0.3112 -0.0459 -0.7049
13840TIP3   OH263010   1.702   3.075   2.178  0.1884 -0.1768  0.3524
13840TIP3    H163011   1.642   3.143   2.209 -0.5812 -0.5004 -0.3715
13840TIP3    H263012   1.788   3.116   2.181 -0.6161  2.5458 -4.3115
13841TIP3   OH263013   1.134   1.584  61.992  0.1863  0.4027  0.0379
13841TIP3    H163014   1.085   1.511  62.031 -0.3210  0.8028  0.1467
13841TIP3    H263015   1.136   1.651  62.060  0.2127  0.6931 -0.2493
13842TIP3   OH263016   2.891   1.280  59.395  0.1036 -0.8526 -0.0468
13842TIP3    H163017   2.892   1.184  59.401  1.7806 -0.8954 -0.3572
13842TIP3    H263018   2.975   1.302  59.354  0.0665  0.7919  0.6658
13843TIP3   OH263019   2.453   2.800  14.981  0.1739 -0.2349 -0.5201
13843TIP3    H163020   2.418   2.799  14.892  0.8624  0.9516 -0.8309
13843TIP3    H263021   2.519   2.731  14.982 -0.6132 -1.0122 -0.5737
13844TIP3   OH263022   2.395   3.327  16.541 -0.5528  0.5940  0.3051
13844TIP3    H163023   2.362   3.380  16.615 -1.7587 -0.3786  0.4947
13844TIP3    H263024   2.340   3.249  16.542  0.5918 -0.2406 -0.5525
13845TIP3   OH263025   1.424   2.210  11.583  0.8067  0.1907  0.0617
13845TIP3    H163026   1.438   2.167  11.667  0.8166 -1.1039 -0.5792
13845TIP3    H263027   1.333   2.240  11.587  0.8478  0.2521  0.5809
13846TIP3   OH263028   2.481   1.943  43.830  0.2054  0.4500  0.3715
13846TIP3    H163029   2.550   1.939  43.764  1.6662  0.1970  1.8384
13846TIP3    H263030   2.444   2.031  43.821 -0.7521 -0.1183 -1.8187
13847TIP3   OH263031   0.419   1.546  51.494  0.6016  0.3930  0.0348
13847TIP3    H163032   0.339   1.508  51.530  1.7177 -2.8642 -0.6016
13847TIP3    H263033   0.391   1.628  51.454 -1.7869  0.9857  2.6089
13848TIP3   OH263034   2.526   3.056  14.791 -0.0994 -0.3210 -1.0323
13848TIP3    H163035   2.499   3.146  14.776 -1.1802 -0.3360  0.5842
13848TIP3    H263036   2.458   3.003  14.750 -0.2967 -0.3842 -0.6271
13849TIP3   OH263037   3.118   2.349  10.604 -0.6408 -0.1933  0.1822
13849TIP3    H163038   3.124   2.286  10.531 -0.3238 -1.4858  1.2896
13849TIP3    H263039   3.073   2.425  10.566 -0.8472 -0.9920 -1.2557
13850TIP3   OH263040   0.723   2.194  63.857 -0.7715  0.1531 -0.2359
13850TIP3    H163041   0.694   2.285  63.859 -0.3367  0.3165  2.7898
13850TIP3    H263042   0.741   2.177  63.765  0.2259  3.4696 -0.7845
13851TIP3   OH263043   2.650   0.496  58.282  0.4585 -0.0272  0.3826
13851TIP3    H163044   2.741   0.482  58.309  0.9939  1.0276 -0.7902
13851TIP3    H263045   2.647   0.587  58.254 -0.0849 -0.8765 -2.7163
13852TIP3   OH263046   2.709   1.171   5.462 -0.3866  0.0512  0.0663
13852TIP3    H163047   2.702   1.261   5.429 -1.2085 -0.7815 -2.2517
13852TIP3    H263048   2.799   1.164   5.493  0.3205  1.1287 -1.5746
13853TIP3   OH263049   3.082   1.047   4.198  0.0604 -0.3579 -0.2386
13853TIP3    H163050   3.043   1.127   4.234  2.1734  0.7460 -0.2245
13853TIP3    H263051   3.135   1.012   4.270  0.4801 -0.8202 -0.7600
13854TIP3   OH263052   2.906   0.504  12.293  0.2967  0.4209 -0.3028
13854TIP3    H163053   2.924   0.544  12.208 -0.5346 -1.1936 -1.3003
13854TIP3    H263054   2.870   0.575  12.347  0.8122  1.4628 -1.3006
13855TIP3   OH263055   1.818   0.409  52.205  0.0969 -0.4477  0.2117
13855TIP3    H163056   1.780   0.445  52.125  1.1434 -0.6478 -0.4052
13855TIP3    H263057   1.892   0.356  52.174  0.9197 -0.0085  1.3431
13856TIP3   OH263058   2.859   0.760  53.188  0.4387 -0.6185  0.2824
13856TIP3    H163059   2.775   0.718  53.207  0.3751 -0.1406  1.0769
13856TIP3    H263060   2.915   0.738  53.263  0.7604 -0.2209  0.1619
13857TIP3   OH263061   2.893   0.437   0.865 -0.0588  0.3452  0.0569
13857TIP3    H163062   2.921   0.494   0.793  1.4352 -0.5983 -0.1531
13857TIP3    H263063   2.833   0.492   0.917  0.6814  1.8369 -0.5934
13858TIP3   OH263064   2.889   2.842  66.563  0.1687  0.6384 -0.3870
13858TIP3    H163065   2.935   2.760  66.584  0.4087  0.3763 -1.8126
13858TIP3    H263066   2.811   2.841  66.619  0.7215 -0.0256  0.4000
13859TIP3   OH263067   1.660   0.905  55.954 -0.2699  0.3279 -0.2337
13859TIP3    H163068   1.749   0.941  55.949  1.1600 -2.9357 -0.8624
13859TIP3    H263069   1.626   0.914  55.865  0.2714 -0.3141 -0.5123
13860TIP3   OH263070   2.440   0.551  14.003  0.7599 -0.5797  0.1949
13860TIP3    H163071   2.425   0.458  14.022 -1.9400 -0.2180  0.3298
13860TIP3    H263072   2.458   0.590  14.089 -0.2301 -0.6897  0.4719
13861TIP3   OH263073   2.814   2.684   8.269 -0.2799 -0.1842  0.1159
13861TIP3    H163074   2.877   2.745   8.308  1.6393 -1.5965 -0.6722
13861TIP3    H263075   2.800   2.716   8.180 -1.0143  0.3495  0.4122
13862TIP3   OH263076   0.916   2.838  13.813 -0.1359 -0.4088  0.0760
13862TIP3    H163077   0.860   2.780  13.762  0.0615 -0.1832 -0.3992
13862TIP3    H263078   0.945   2.784  13.887 -1.3422 -0.3892  0.5835
13863TIP3   OH263079   2.315   3.431  63.634  0.3541 -0.0414 -0.1484
13863TIP3    H163080   2.234   3.462  63.593  0.6522  0.5457 -0.2998
13863TIP3    H263081   2.287   3.394  63.718  0.0064  0.7416  0.0830
13864TIP3   OH263082   2.468   1.823  52.328 -0.2323 -0.3553 -0.3086
13864TIP3    H163083   2.467   1.741  52.280 -0.3958 -0.5431  0.0117
13864TIP3    H263084   2.556   1.858  52.313  0.5509 -1.5701  1.1725
13865TIP3   OH263085   1.763   1.293  59.597 -0.3897 -0.1914 -0.6291
13865TIP3    H163086   1.714   1.374  59.593 -1.3406 -0.7786 -1.3307
13865TIP3    H263087   1.708   1.234  59.649  0.7896 -0.0708  0.8207
13866TIP3   OH263088   1.617   2.649  58.430  0.3570 -0.5655  0.6976
13866TIP3    H163089   1.584   2.647  58.340  2.8074 -0.3169 -0.2943
13866TIP3    H263090   1.649   2.559  58.445  2.6376  0.0885  0.1540
13867TIP3   OH263091   1.157   3.204  43.641  0.4159  0.3298  0.4841
13867TIP3    H163092   1.250   3.223  43.633  0.6905 -1.1056  0.0110
13867TIP3    H263093   1.142   3.201  43.736  0.9037  0.3195  0.5638
13868TIP3   OH263094   0.847   0.295  18.442 -0.2347 -0.5624  0.0895
13868TIP3    H163095   0.900   0.312  18.520  0.0343  2.0837 -0.5873
13868TIP3    H263096   0.899   0.232  18.392  0.0235 -1.5855  1.5699
13869TIP3   OH263097   1.073   2.168   7.663  0.3385  0.2030  0.5974
13869TIP3    H163098   1.074   2.199   7.572  0.5135 -0.3161  0.4164
13869TIP3    H263099   1.022   2.086   7.659  2.4831 -1.2062  0.4851
13870TIP3   OH263100   3.175   1.380   5.118  0.5533  0.0275 -0.0630
13870TIP3    H163101   3.263   1.358   5.148 -0.2276 -1.7486  1.1505
13870TIP3    H263102   3.150   1.307   5.061  0.4342  1.3145 -1.7405
13871TIP3   OH263103   3.277   3.357   6.272  0.4018 -0.4906 -0.6334
13871TIP3    H163104   3.312   3.410   6.343  0.7027 -2.7056  0.9994
13871TIP3    H263105   3.258   3.419   6.202  1.2924  1.6315  0.9043
13872TIP3   OH263106   1.040   2.734  50.356  0.3407  0.1273  0.1977
13872TIP3    H163107   0.993   2.650  50.354 -0.9759  0.8387 -0.4058
13872TIP3    H263108   1.075   2.743  50.268  2.6560 -0.9189  0.9463
13873TIP3   OH263109   2.425   2.989  56.531 -0.5640 -0.7232 -0.1296
13873TIP3    H163110   2.450   2.987  56.439  0.3856 -2.2140  0.1335
13873TIP3    H263111   2.508   3.002  56.578 -0.7379 -1.9518  0.5756
13874TIP3   OH263112   0.227   0.223  11.845  0.5577 -0.1386 -0.0771
13874TIP3    H163113   0.205   0.134  11.873 -0.9517  0.1621 -0.2139
13874TIP3    H263114   0.261   0.213  11.756 -0.9773 -0.4638 -0.6511
13875TIP3   OH263115   2.684   3.238  45.336 -0.4859 -0.2036 -0.0308
13875TIP3    H163116   2.699   3.210  45.426  2.5242  1.1645  0.0197
13875TIP3    H263117   2.770   3.233  45.295 -1.9688 -1.9322 -3.2541
13876TIP3   OH263118   2.682   2.546  46.056 -0.1966 -0.5834 -0.0202
13876TIP3    H163119   2.773   2.573  46.044 -0.6337  0.4647 -1.2862
13876TIP3    H263120   2.662   2.493  45.979 -1.4413  1.5849 -1.3137
13877TIP3   OH263121   0.367   0.709  46.680 -0.0080 -0.1756  0.2585
13877TIP3    H163122   0.283   0.663  46.674 -0.2719  0.5083 -2.0062
13877TIP3    H263123   0.416   0.682  46.603  2.1703 -1.0120  1.8176
13878TIP3   OH263124   1.588   0.134   6.491 -0.5290  0.3855  0.4937
13878TIP3    H163125   1.523   0.065   6.501  0.3997 -0.2263  2.9436
13878TIP3    H263126   1.539   0.216   6.503 -1.3920  0.1365 -1.0759
13879TIP3   OH263127   3.277   3.262  17.949 -0.1753  0.1799 -0.5141
13879TIP3    H163128   3.350   3.305  17.905  0.9249 -1.0228  0.0968
13879TIP3    H263129   3.288   3.285  18.042 -0.3251 -0.3715 -0.3592
13880TIP3   OH263130   0.111   2.419  64.889 -0.1499  0.6305 -0.1906
13880TIP3    H163131   0.187   2.364  64.904  0.5078  1.0476 -1.7678
13880TIP3    H263132   0.139   2.507  64.912 -0.5525  0.6235  0.3655
13881TIP3   OH263133   0.312   3.128  65.246 -0.3999  1.0385  0.6770
13881TIP3    H163134   0.356   3.212  65.253 -0.7047  1.5074 -2.0015
13881TIP3    H263135   0.375   3.070  65.203 -0.8846  0.4869  0.6826
13882TIP3   OH263136   3.386   1.970  20.646  0.6382 -0.9736  0.1866
13882TIP3    H163137   3.447   1.919  20.592  1.5086  0.0930  0.1217
13882TIP3    H263138   3.382   2.056  20.604  1.3498 -0.1103  1.7890
13883TIP3   OH263139   3.108   1.264  28.724 -0.4798  0.1450  0.0280
13883TIP3    H163140   3.075   1.203  28.789 -1.7429  0.6276 -0.1382
13883TIP3    H263141   3.035   1.323  28.706  1.0747  2.6150  1.2138
13884TIP3   OH263142   2.524   0.771  66.150 -0.0945 -0.5080 -0.2112
13884TIP3    H163143   2.531   0.846  66.090  0.2890 -0.8526 -0.6036
13884TIP3    H263144   2.609   0.728  66.144  0.1785 -0.1989  1.0638
13885TIP3   OH263145   2.125   2.738  21.939  0.4233  0.1156 -0.8440
13885TIP3    H163146   2.054   2.746  21.876 -2.3198  0.1590  2.0021
13885TIP3    H263147   2.091   2.780  22.018  3.5290 -0.1889  0.7940
13886TIP3   OH263148   2.281   2.547  15.860  0.6773  0.7277  0.0378
13886TIP3    H163149   2.203   2.553  15.805  0.8368  2.2790 -0.0693
13886TIP3    H263150   2.277   2.460  15.898  0.8829 -0.6546 -2.8815
13887TIP3   OH263151   1.199   3.281  66.926  0.3683  0.0886 -0.0588
13887TIP3    H163152   1.118   3.278  66.977 -0.8910  3.4650 -1.5438
13887TIP3    H263153   1.197   3.201  66.873 -1.7671 -0.1625  0.2983
13888TIP3   OH263154   2.366   1.832  57.821 -0.0537  0.1977 -0.5878
13888TIP3    H163155   2.401   1.848  57.908 -0.6934  0.6075 -0.3955
13888TIP3    H263156   2.330   1.743  57.826  0.8451 -0.1775 -0.7562
13889TIP3   OH263157   3.254   0.342   6.500  0.0918  0.1487  0.0443
13889TIP3    H163158   3.164   0.347   6.468  0.0205  1.7572  0.4145
13889TIP3    H263159   3.282   0.252   6.479 -1.8596 -0.6655  0.6684
13890TIP3   OH263160   1.535   0.121  64.749  0.2069  0.0021  0.6316
13890TIP3    H163161   1.518   0.066  64.826 -2.2638 -0.4324 -0.1246
13890TIP3    H263162   1.536   0.059  64.676 -0.9147  0.7471 -0.0464
13891TIP3   OH263163   0.441   0.027  64.010 -0.7079  0.6067  0.0341
13891TIP3    H163164   0.375   0.096  64.004 -0.4664  0.9074  0.6968
13891TIP3    H263165   0.398  -0.051  63.975 -1.4682  0.7589  0.5926
13892TIP3   OH263166   2.672   2.561  18.220  0.9535 -0.1958  0.0020
13892TIP3    H163167   2.767   2.566  18.229  0.9333 -1.0031  0.7957
13892TIP3    H263168   2.638   2.610  18.295  0.7411  0.0356 -0.2448
13893TIP3   OH263169   0.408   2.116   6.212 -0.1411  0.5247 -0.0083
13893TIP3    H163170   0.484   2.095   6.266  0.2749  0.8236 -0.4720
13893TIP3    H263171   0.423   2.206   6.183 -0.6400  0.5644 -0.1527
13894TIP3   OH263172   0.870   1.853  13.696  0.1705  0.2882  0.6426
13894TIP3    H163173   0.854   1.763  13.723 -4.3318  0.8996  0.6844
13894TIP3    H263174   0.887   1.846  13.601 -2.0406 -0.5369  0.2550
13895TIP3   OH263175   0.349   3.042   5.870  0.2789  0.0188 -0.3818
13895TIP3    H163176   0.270   3.049   5.924  0.1529 -0.6528 -0.4786
13895TIP3    H263177   0.394   3.126   5.884 -0.6829  0.6142 -0.6980
13896TIP3   OH263178   1.812   0.642  57.908  1.1627  0.2517  0.9482
13896TIP3    H163179   1.834   0.730  57.876 -0.3842  0.3748  0.1282
13896TIP3    H263180   1.874   0.627  57.979  0.9834  2.3355  1.6353
13897TIP3   OH263181   1.734   2.604  19.133 -0.1657  0.1494 -0.1228
13897TIP3    H163182   1.678   2.551  19.077  2.1616 -0.2162 -2.3100
13897TIP3    H263183   1.687   2.686  19.144 -1.2380 -0.2289 -1.6416
13898TIP3   OH263184   3.330   1.968  13.480  0.0399 -0.2643 -0.1577
13898TIP3    H163185   3.239   1.945  13.460 -0.1651  1.0988 -0.9082
13898TIP3    H263186   3.324   2.022  13.559  0.2830 -0.7943  0.2287
13899TIP3   OH263187   1.263   3.084   4.685  0.1146 -0.0225 -0.1380
13899TIP3    H163188   1.265   3.171   4.724 -0.2268 -0.0128 -0.1408
13899TIP3    H263189   1.291   3.098   4.594  0.6273 -0.0032  0.0215
13900TIP3   OH263190   3.345   0.364  48.525 -0.2928 -0.5883  0.3914
13900TIP3    H163191   3.403   0.387  48.452  0.0552  1.2591  1.2071
13900TIP3    H263192   3.363   0.429  48.592 -2.5402 -0.6095  1.1031
13901TIP3   OH263193   2.059   1.672   4.924 -0.8230 -0.7581  0.2887
13901TIP3    H163194   2.084   1.747   4.978  1.2804  0.2452 -1.9088
13901TIP3    H263195   2.134   1.614   4.927 -0.7378 -0.7608 -1.3675
13902TIP3   OH263196   2.352   0.341   3.299  0.5529 -0.3576 -0.1379
13902TIP3    H163197   2.446   0.344   3.282  0.7396  1.5943  0.9976
13902TIP3    H263198   2.315   0.412   3.246 -0.2129 -0.7036 -0.0900
13903TIP3   OH263199   0.093   0.179  30.296  0.1288 -0.7971  0.6091
13903TIP3    H163200   0.090   0.243  30.225 -1.8949 -0.8565  0.5797
13903TIP3    H263201   0.183   0.182  30.328  0.0988  2.1474  0.6694
13904TIP3   OH263202   2.205   1.557  58.146 -0.1870  0.2449  0.7890
13904TIP3    H163203   2.229   1.501  58.072 -0.0114  1.6336 -0.2327
13904TIP3    H263204   2.287   1.579  58.188 -0.3020 -0.6952  1.5341
13905TIP3   OH263205   0.993   2.964  44.695 -0.0184 -1.0394 -0.0162
13905TIP3    H163206   0.956   2.878  44.712  0.0968 -1.2160 -0.6264
13905TIP3    H263207   1.027   2.993  44.779 -0.4460 -1.3986  0.2851
13906TIP3   OH263208   3.359   2.212  15.355 -0.2280 -0.2207  0.3567
13906TIP3    H163209   3.449   2.241  15.340 -0.3994  0.9725  1.4198
13906TIP3    H263210   3.362   2.117  15.343  1.6391 -0.5064  2.3340
13907TIP3   OH263211   3.426   1.165  54.420  0.6376  0.3275 -0.2627
13907TIP3    H163212   3.470   1.085  54.391  1.4303  0.8300 -0.4671
13907TIP3    H263213   3.481   1.236  54.387 -0.2011  0.9641 -0.3060
13908TIP3   OH263214   0.654   1.164  15.958 -0.3208 -0.3261 -0.3947
13908TIP3    H163215   0.638   1.224  15.885  0.4660  0.9344  0.4161
13908TIP3    H263216   0.737   1.123  15.938  1.2045  1.9070  0.9074
13909TIP3   OH263217   3.256   1.098  42.328 -0.0205 -0.2765  0.3876
13909TIP3    H163218   3.287   1.188  42.332 -0.8444 -0.0313  2.0717
13909TIP3    H263219   3.217   1.090  42.241  1.0116  0.6478 -0.1807
13910TIP3   OH263220   1.564   2.132  58.358  0.3317 -0.3209  0.3656
13910TIP3    H163221   1.482   2.127  58.409 -1.3877 -0.6203 -2.2461
13910TIP3    H263222   1.605   2.047  58.370 -1.7278 -1.6359 -1.2574
13911TIP3   OH263223   1.907   1.430  21.909 -0.0091  0.6759  0.3104
13911TIP3    H163224   1.994   1.403  21.879  0.2202  1.6102  0.1006
13911TIP3    H263225   1.909   1.526  21.907 -0.4026  0.7624  2.1814
13912TIP3   OH263226   0.075   3.426   0.078  0.0783 -0.3021  0.4496
13912TIP3    H163227   0.020   3.504   0.063 -1.1982 -1.4721 -1.3618
13912TIP3    H263228   0.103   3.434   0.169 -0.9744  1.6772  0.6643
13913TIP3   OH263229   1.352   0.684  43.643  0.0623  0.7476 -0.0354
13913TIP3    H163230   1.259   0.683  43.622  0.0898 -1.0605 -0.2530
13913TIP3    H263231   1.374   0.777  43.654 -1.9282  1.1532  0.8736
13914TIP3   OH263232   1.266   2.094  65.425  0.7160 -0.3257 -0.3894
13914TIP3    H163233   1.203   2.118  65.357 -0.3936 -1.8148  0.0693
13914TIP3    H263234   1.301   2.178  65.456 -0.6168  0.5041 -1.0629
13915TIP3   OH263235   3.265   1.735  47.183 -0.5265  0.3085 -0.1339
13915TIP3    H163236   3.221   1.764  47.263 -1.4868 -1.4587  0.0505
13915TIP3    H263237   3.342   1.791  47.175 -1.2877  1.6012  1.1255
13916TIP3   OH263238   1.166   2.795  67.089 -0.3651  0.5494 -0.0608
13916TIP3    H163239   1.085   2.744  67.097 -0.6940  1.0247 -0.2968
13916TIP3    H263240   1.158   2.863  67.156  0.3818 -0.0986  0.7133
13917TIP3   OH263241   0.033   2.199  16.704  0.4723 -0.0852 -0.0210
13917TIP3    H163242  -0.013   2.118  16.725  2.1864 -0.9001  0.8174
13917TIP3    H263243   0.025   2.252  16.783  0.6656 -0.0736 -0.0098
13918TIP3   OH263244   0.264   1.991  60.482 -0.0230  0.2104  0.5348
13918TIP3    H163245   0.219   1.949  60.555  1.8656  2.0446  2.9201
13918TIP3    H263246   0.289   2.077  60.515 -0.6934  1.9303 -2.9494
13919TIP3   OH263247   3.158   2.213  63.719  0.4410 -0.0182  0.1734
13919TIP3    H163248   3.189   2.241  63.633 -1.0707  0.6791 -0.1923
13919TIP3    H263249   3.188   2.281  63.779  2.4568 -1.0681  0.4245
13920TIP3   OH263250   0.426   0.502   6.983  0.1919  0.2197  0.1071
13920TIP3    H163251   0.366   0.537   6.918 -0.5857 -1.5250 -0.1667
13920TIP3    H263252   0.504   0.477   6.934  0.7172  1.4076  0.2916
13921TIP3   OH263253   0.905   0.631  55.889  0.4831 -0.1156  0.3021
13921TIP3    H163254   0.890   0.690  55.963  2.3058  0.3556  0.3298
13921TIP3    H263255   0.817   0.615  55.854 -0.3577  0.2214  2.1033
13922TIP3   OH263256   2.631   1.934  15.149 -0.7915  0.5685 -0.4995
13922TIP3    H163257   2.570   1.932  15.223 -1.7105 -0.4792 -1.2387
13922TIP3    H263258   2.597   1.867  15.089 -0.8629  2.2964 -2.4970
13923TIP3   OH263259   0.502   2.674  66.598  0.4506 -0.3059 -0.2122
13923TIP3    H163260   0.518   2.764  66.571  0.0174  0.3446  1.5496
13923TIP3    H263261   0.407   2.666  66.601  0.4803 -0.9434 -0.7073
13924TIP3   OH263262   0.181   3.142  34.425  0.2962 -0.5178 -0.0489
13924TIP3    H163263   0.233   3.210  34.468 -0.3993 -0.0059  0.0116
13924TIP3    H263264   0.236   3.111  34.353  0.4034  0.5305 -0.4372
13925TIP3   OH263265   1.378   2.239  38.442 -0.3983  0.4500 -0.1165
13925TIP3    H163266   1.427   2.230  38.360 -1.6044 -0.8148 -0.7331
13925TIP3    H263267   1.310   2.303  38.423  0.0687  1.0880  0.2958
13926TIP3   OH263268   1.816   0.735  43.282 -0.1048 -0.0225 -0.1238
13926TIP3    H163269   1.904   0.772  43.284 -0.1775  0.1470  0.0710
13926TIP3    H263270   1.828   0.643  43.303  0.2905 -0.5709 -2.5454
13927TIP3   OH263271   2.928   2.192  20.663  0.2106 -0.1059  0.1665
13927TIP3    H163272   2.955   2.107  20.698 -1.3340 -1.2673 -1.3027
13927TIP3    H263273   2.925   2.179  20.568  0.8016  1.8699 -0.1593
13928TIP3   OH263274   2.298   0.120  52.534  0.4677  1.0495  0.0281
13928TIP3    H163275   2.362   0.048  52.538  1.3337  1.7485 -0.6551
13928TIP3    H263276   2.301   0.148  52.442  0.1665  1.9776  0.2973
13929TIP3   OH263277   1.659   1.035  45.749  0.1621  0.5312  0.5190
13929TIP3    H163278   1.680   0.943  45.759 -2.0101  0.1909  3.2341
13929TIP3    H263279   1.707   1.079  45.819 -1.3371  0.9255  1.3433
13930TIP3   OH263280   2.693   1.238  19.388  0.0892  0.2338  0.2821
13930TIP3    H163281   2.627   1.296  19.426  0.2303 -0.5234  1.7656
13930TIP3    H263282   2.647   1.156  19.371  0.5173 -0.1322  0.8531
13931TIP3   OH263283   2.003   3.030  65.396  0.1517  0.0428 -0.7475
13931TIP3    H163284   2.001   3.124  65.380  0.6219  0.2597  0.3362
13931TIP3    H263285   2.074   2.998  65.340 -1.5644 -0.0893 -2.9651
13932TIP3   OH263286   3.012   0.507  46.480 -0.0936 -0.2670 -0.2470
13932TIP3    H163287   2.980   0.432  46.430  1.5846 -0.7840 -0.6042
13932TIP3    H263288   3.022   0.474  46.569  2.0538 -0.9698 -0.6868
13933TIP3   OH263289   1.093   2.346  47.826  0.1919  0.4536  0.6473
13933TIP3    H163290   1.068   2.405  47.897 -0.9799  0.4826  0.2263
13933TIP3    H263291   1.050   2.382  47.748 -0.0524 -0.6116  0.2736
13934TIP3   OH263292   2.503   1.371  53.944  0.3767  0.3032  0.3542
13934TIP3    H163293   2.547   1.388  53.861 -0.3747  2.1235  0.2634
13934TIP3    H263294   2.547   1.428  54.007  0.8044 -0.9047  1.1845
13935TIP3   OH263295   0.878   2.106   5.345  0.3220 -0.4861  0.6725
13935TIP3    H163296   0.954   2.072   5.393  1.4067 -0.6699 -1.0997
13935TIP3    H263297   0.888   2.201   5.349  1.4606 -0.5169 -0.7315
13936TIP3   OH263298   0.068   2.472   3.515  0.6825 -0.5856 -0.0830
13936TIP3    H163299   0.080   2.443   3.605  1.6948 -1.3889 -0.4515
13936TIP3    H263300   0.114   2.406   3.463 -0.4181 -0.4846 -1.2334
13937TIP3   OH263301   0.996   2.716  43.977 -0.0720  0.1018  0.1655
13937TIP3    H163302   0.979   2.634  44.024 -3.9977  0.9110  0.5647
13937TIP3    H263303   0.993   2.784  44.045 -1.2440  0.8961 -0.6378
13938TIP3   OH263304   0.612   0.221  50.022 -0.5142  0.4132 -0.3555
13938TIP3    H163305   0.545   0.239  49.956 -1.2405  0.0987  0.2652
13938TIP3    H263306   0.692   0.206  49.973 -1.1168 -0.1837 -1.1839
13939TIP3   OH263307   0.545   2.154  44.796  0.6332  0.3046  0.0975
13939TIP3    H163308   0.499   2.238  44.788 -1.0877 -0.6119 -0.2607
13939TIP3    H263309   0.635   2.177  44.818  0.0695  2.2166  0.5588
13940TIP3   OH263310   2.993   3.387  66.622 -0.1695 -0.1472  0.1718
13940TIP3    H163311   2.973   3.304  66.579 -1.0224 -0.2644  0.7693
13940TIP3    H263312   3.065   3.367  66.682 -1.1739 -0.7534  1.2147
13941TIP3   OH263313   2.938   0.445  20.493 -0.4027 -0.0919 -0.2546
13941TIP3    H163314   2.925   0.510  20.424  0.9401 -2.2176 -2.7259
13941TIP3    H263315   2.870   0.379  20.475 -0.6683 -0.2124  1.1301
13942TIP3   OH263316   1.360   3.368  46.029  0.2546  0.2108  0.1428
13942TIP3    H163317   1.449   3.363  45.994 -0.1660 -0.9411 -0.8485
13942TIP3    H263318   1.366   3.327  46.115  0.7496  0.3973  0.1977
13943TIP3   OH263319   0.290   2.662   1.733  0.1485 -0.1030  0.5158
13943TIP3    H163320   0.334   2.747   1.736 -0.3674  0.1914  0.0397
13943TIP3    H263321   0.197   2.684   1.731  0.0287 -0.6223 -1.0532
13944TIP3   OH263322   3.210   0.281   1.295  0.0211 -0.7732  0.0332
13944TIP3    H163323   3.143   0.223   1.260 -1.9415  2.4729 -2.1563
13944TIP3    H263324   3.183   0.296   1.386  0.2088 -2.6440  0.4363
13945TIP3   OH263325   0.147   0.292  10.764 -0.3406 -0.1257  0.6800
13945TIP3    H163326   0.114   0.320  10.678 -0.5129  0.4298  0.9272
13945TIP3    H263327   0.075   0.242  10.802  0.2493 -1.6581 -0.0976
13946TIP3   OH263328   3.136   0.555  28.204  0.6325  0.3726 -0.1801
13946TIP3    H163329   3.121   0.460  28.205  1.5316  0.2043 -0.7165
13946TIP3    H263330   3.131   0.581  28.295  0.8630 -0.2909  0.0302
13947TIP3   OH263331   0.620   1.573  64.270 -0.0130 -0.9923 -0.0536
13947TIP3    H163332   0.652   1.641  64.210  0.5690 -1.5321 -0.3695
13947TIP3    H263333   0.697   1.518  64.286 -0.2012 -0.9450  1.0759
13948TIP3   OH263334   0.032   2.805   3.243  0.2066 -0.5946 -0.0040
13948TIP3    H163335  -0.063   2.818   3.243 -0.1167 -2.5949  0.3538
13948TIP3    H263336   0.067   2.879   3.193 -1.5338  0.1298 -0.2163
13949TIP3   OH263337   2.615   0.070  11.457 -0.1910  0.5191  0.0281
13949TIP3    H163338   2.536   0.018  11.443 -0.3913  0.0026  2.6188
13949TIP3    H263339   2.685   0.016  11.422 -0.7177 -0.2115  0.0714
13950TIP3   OH263340   0.367   0.588  56.852 -0.1427 -0.0838  0.3599
13950TIP3    H163341   0.345   0.680  56.834 -1.9519 -0.9699 -2.7324
13950TIP3    H263342   0.283   0.547  56.873  0.2200 -1.4324 -0.6322
13951TIP3   OH263343   1.559   0.956  52.016  0.0480 -0.2957  0.5589
13951TIP3    H163344   1.632   0.975  52.074  0.1404  0.1106  0.3219
13951TIP3    H263345   1.575   1.011  51.939 -0.3346 -0.4486  0.3677
13952TIP3   OH263346   1.737   0.078  62.943 -0.3774 -0.1438 -0.4687
13952TIP3    H163347   1.750   0.158  62.893  2.5048 -0.4278 -0.3277
13952TIP3    H263348   1.821   0.061  62.985 -1.6419 -1.8682  1.6148
13953TIP3   OH263349   1.589   3.105  52.989 -0.6012  0.4659 -0.0459
13953TIP3    H163350   1.680   3.094  52.964 -0.4860 -1.2373  0.9299
13953TIP3    H263351   1.546   3.137  52.910  0.5384 -0.4493 -1.0811
13954TIP3   OH263352   2.617   1.866  57.720 -0.2986  0.6238  0.4445
13954TIP3    H163353   2.627   1.960  57.736 -0.5108  0.5457  1.0676
13954TIP3    H263354   2.537   1.841  57.766  1.6156 -0.5406  3.4534
13955TIP3   OH263355   1.203   2.698   9.374 -0.5488  0.5482 -0.6180
13955TIP3    H163356   1.150   2.690   9.454 -0.5642 -1.3775 -0.7792
13955TIP3    H263357   1.273   2.760   9.398 -1.3720  1.1161  0.4089
13956TIP3   OH263358   1.484   1.515  36.192  0.0492  0.8021 -0.9759
13956TIP3    H163359   1.571   1.482  36.216  0.2954  2.1353  0.1020
13956TIP3    H263360   1.456   1.458  36.121  1.8759  0.4229 -1.4553
13957TIP3   OH263361   3.086   1.014  51.615 -0.1276  0.2831 -0.2993
13957TIP3    H163362   3.152   0.987  51.679  1.0806  0.2450 -1.5175
13957TIP3    H263363   3.130   1.080  51.562 -0.8005 -0.3049 -1.6290
13958TIP3   OH263364   2.491   1.521  14.439  0.1080  0.0711 -0.3449
13958TIP3    H163365   2.495   1.584  14.367  0.4199  0.4705  0.0164
13958TIP3    H263366   2.447   1.568  14.510  1.8884  0.5089  0.5322
13959TIP3   OH263367   3.067   2.655  51.621  0.4655  0.1628  0.2314
13959TIP3    H163368   3.143   2.695  51.577  0.4276 -1.5354 -1.5223
13959TIP3    H263369   3.022   2.608  51.551 -1.4813  0.0376  1.5131
13960TIP3   OH263370   2.641   0.418  17.713 -0.0461  0.0280 -0.1298
13960TIP3    H163371   2.600   0.439  17.797 -0.2650  0.7729 -0.4191
13960TIP3    H263372   2.611   0.486  17.654  2.0890  0.9680 -0.2133
13961TIP3   OH263373   0.154   2.992  21.357 -0.1403  0.0057 -0.3526
13961TIP3    H163374   0.248   2.991  21.378 -0.1477  3.3460  0.4859
13961TIP3    H263375   0.151   2.993  21.262  0.6520 -0.4381 -0.3908
13962TIP3   OH263376   1.207   0.728  64.268 -0.4820 -0.0460 -0.4040
13962TIP3    H163377   1.243   0.714  64.181 -1.7655 -1.3617 -0.7554
13962TIP3    H263378   1.284   0.741  64.324  0.5706 -2.5350 -1.1684
13963TIP3   OH263379   1.192   1.339  20.703  0.0442  0.0117 -0.3429
13963TIP3    H163380   1.252   1.265  20.707  1.4317  1.1171  0.1746
13963TIP3    H263381   1.126   1.320  20.770  1.9950  0.5435  1.8648
13964TIP3   OH263382   3.119   2.217  66.885  0.0515  0.1891  0.0134
13964TIP3    H163383   3.179   2.243  66.955  0.8269 -0.3719 -0.4284
13964TIP3    H263384   3.085   2.132  66.913  1.0986 -0.4926 -0.7166
13965TIP3   OH263385   1.315   3.210  20.041  0.3949  0.3704 -0.0561
13965TIP3    H163386   1.253   3.281  20.031  0.6809  0.6573  0.2005
13965TIP3    H263387   1.390   3.249  20.086 -0.6555 -0.7603  2.8942
13966TIP3   OH263388   0.732   1.126  50.684  0.0890 -0.4053  0.6158
13966TIP3    H163389   0.706   1.043  50.643 -2.1632  0.0817  0.9311
13966TIP3    H263390   0.713   1.192  50.618  0.1194  0.0421  1.0531
13967TIP3   OH263391   0.070   2.798  60.266 -0.1395 -0.0452 -0.5760
13967TIP3    H163392   0.016   2.726  60.233  1.1227 -0.8673 -0.9216
13967TIP3    H263393   0.087   2.852  60.189 -1.0312  0.6297 -0.3304
13968TIP3   OH263394   1.428   0.613   3.820  0.1020  0.2395  0.2705
13968TIP3    H163395   1.446   0.651   3.907 -0.4955 -0.5894  0.7688
13968TIP3    H263396   1.354   0.554   3.835 -0.0976  0.2009 -0.8427
13969TIP3   OH263397   1.748   2.351  16.934  0.4060 -0.1908 -0.1934
13969TIP3    H163398   1.654   2.333  16.944  0.1328  0.6346 -1.1051
13969TIP3    H263399   1.789   2.304  17.007 -0.6182 -1.3494 -0.3255
13970TIP3   OH263400   0.405   0.020  54.273  0.1810 -0.2176 -0.3086
13970TIP3    H163401   0.309   0.023  54.270  0.1236  2.2169  0.9217
13970TIP3    H263402   0.426  -0.038  54.345 -0.4818  0.9157  0.8329
13971TIP3   OH263403   2.672   3.352  44.351 -0.7540 -0.1178 -0.3960
13971TIP3    H163404   2.717   3.417  44.298 -0.3381 -1.2181 -1.4489
13971TIP3    H263405   2.588   3.338  44.307 -1.7603  1.1610  0.9759
13972TIP3   OH263406   1.423   0.366  61.163  0.1635  0.1519 -0.5712
13972TIP3    H163407   1.463   0.428  61.102 -0.9251  2.0237  0.5311
13972TIP3    H263408   1.487   0.358  61.234  1.3109 -1.8194 -1.7466
13973TIP3   OH263409   2.999   1.123  66.856  0.3340  0.8092 -0.3320
13973TIP3    H163410   3.071   1.128  66.919  0.1255 -0.5049  0.0370
13973TIP3    H263411   3.042   1.110  66.772  0.5655 -2.4139  0.1610
13974TIP3   OH263412   1.336   0.287  20.134 -0.2761  0.1792 -0.4131
13974TIP3    H163413   1.247   0.309  20.162  0.1065  1.3820 -0.0809
13974TIP3    H263414   1.390   0.360  20.165  0.5939  0.2236 -1.9034
13975TIP3   OH263415   0.252   1.074   0.056 -0.7900 -0.0879 -0.2679
13975TIP3    H163416   0.202   1.119   0.124  0.7963  1.7737 -0.2524
13975TIP3    H263417   0.343   1.098   0.073 -0.3102  0.2516 -2.8936
13976TIP3   OH263418   3.383   2.286  60.434  0.6257  0.1433 -0.4676
13976TIP3    H163419   3.377   2.349  60.505 -1.0110  0.8752 -1.1957
13976TIP3    H263420   3.313   2.312  60.373 -0.4193 -2.6095 -0.6051
13977TIP3   OH263421   0.565   2.775  67.136  0.1986  0.4057  0.5319
13977TIP3    H163422   0.566   2.730  67.052 -0.2445  0.4731  0.4831
13977TIP3    H263423   0.503   2.726  67.189  0.4876  0.3542  0.8240
13978TIP3   OH263424   2.576   0.255  43.303 -0.2410  0.2260 -0.9002
13978TIP3    H163425   2.503   0.205  43.339  0.5128 -1.7337 -1.9213
13978TIP3    H263426   2.538   0.340  43.280 -1.7082 -0.0289  0.4180
13979TIP3   OH263427   0.603   2.576   0.175 -0.4910  0.0713  0.4290
13979TIP3    H163428   0.587   2.483   0.159  0.3240 -0.2479  1.3642
13979TIP3    H263429   0.639   2.579   0.264  2.8220  0.8747 -0.7711
13980TIP3   OH263430   0.150   1.462  10.595  0.2945 -0.0336 -0.2882
13980TIP3    H163431   0.062   1.500  10.599  0.4989  0.4018  0.1143
13980TIP3    H263432   0.202   1.515  10.655  0.5906 -0.9290  0.2769
13981TIP3   OH263433   2.453   0.405  55.562  0.0375 -0.1725  0.2180
13981TIP3    H163434   2.463   0.310  55.555  0.6887 -0.1433  0.5979
13981TIP3    H263435   2.480   0.425  55.652  0.8867  0.4798 -0.1570
13982TIP3   OH263436   2.260   3.161  46.020  0.1077 -0.3401 -0.3052
13982TIP3    H163437   2.213   3.242  46.037  1.1438  0.1219  0.4597
13982TIP3    H263438   2.249   3.146  45.926 -0.8081  0.2189 -0.2951
13983TIP3   OH263439   1.795   0.279  54.485  0.0007 -0.6215  0.3490
13983TIP3    H163440   1.846   0.326  54.552  0.5216  0.0653 -0.5044
13983TIP3    H263441   1.858   0.221  54.443 -0.2940 -0.9471  0.3515
13984TIP3   OH263442   3.188   2.475  60.228  0.4678  0.3965  0.5349
13984TIP3    H163443   3.141   2.492  60.146  0.9059 -1.1238 -0.0717
13984TIP3    H263444   3.129   2.506  60.297 -1.2147 -0.9534 -0.2231
13985TIP3   OH263445   0.810   0.261   1.588  0.1478  0.6217 -0.1632
13985TIP3    H163446   0.886   0.208   1.563  0.3263  0.9849 -0.3996
13985TIP3    H263447   0.844   0.323   1.653 -0.0461  0.4846  0.0686
13986TIP3   OH263448   1.668   3.088  12.547 -0.3149  0.7739  0.1184
13986TIP3    H163449   1.745   3.102  12.601 -0.8173  1.1196  0.7557
13986TIP3    H263450   1.684   3.005  12.502 -0.3807 -0.1085  1.6617
13987TIP3   OH263451   0.172   2.590  61.728 -0.4360 -0.0230 -0.3565
13987TIP3    H163452   0.123   2.527  61.781  0.5757  0.7437  1.5703
13987TIP3    H263453   0.111   2.663  61.714 -0.4288  0.1560  0.5268
13988TIP3   OH263454   1.700   3.213  18.084  0.1012  0.0811  0.2692
13988TIP3    H163455   1.605   3.208  18.095  0.2649 -1.7862  1.3896
13988TIP3    H263456   1.728   3.281  18.146 -0.4247  0.0370  0.5584
13989TIP3   OH263457   3.241   3.004  67.398 -0.2741 -0.2526 -0.6241
13989TIP3    H163458   3.151   3.031  67.412 -0.4331 -1.1064  0.1204
13989TIP3    H263459   3.243   2.973  67.307 -1.5069 -2.9656  0.1602
13990TIP3   OH263460   0.187   0.297   0.161  0.7340 -0.5523 -0.2781
13990TIP3    H163461   0.206   0.227   0.224 -0.7134 -0.7012  0.0176
13990TIP3    H263462   0.192   0.378   0.212  1.1071 -0.5457 -0.3245
13991TIP3   OH263463   2.280   1.296  50.827 -0.4905  0.7002  0.0629
13991TIP3    H163464   2.339   1.261  50.893 -1.0566  0.4485  0.4439
13991TIP3    H263465   2.285   1.233  50.755  1.9609  2.1822 -1.2041
13992TIP3   OH263466   2.632   2.540   0.057  0.4260  0.3389 -0.3044
13992TIP3    H163467   2.688   2.585   0.120  1.3374  0.2481 -1.0268
13992TIP3    H263468   2.543   2.550   0.092  0.9784 -0.4053  1.4108
13993TIP3   OH263469   1.273   1.472   8.393 -0.1998 -0.6892 -0.4862
13993TIP3    H163470   1.285   1.565   8.374 -1.5244 -0.2514  0.6146
13993TIP3    H263471   1.276   1.467   8.489  0.5533 -1.9012 -0.5527
13994TIP3   OH263472   3.162   2.343  43.028 -0.0095 -0.6602 -0.4261
13994TIP3    H163473   3.164   2.376  43.117  1.3505 -1.5388 -0.1033
13994TIP3    H263474   3.105   2.404  42.981  0.9602  1.0835  0.5492
13995TIP3   OH263475   0.180   0.241   3.702  0.2270  0.4369  0.4431
13995TIP3    H163476   0.164   0.183   3.627 -0.5744  0.7204  0.3950
13995TIP3    H263477   0.203   0.181   3.773 -1.5483 -0.0413  0.6541
13996TIP3   OH263478   3.180   2.122  50.429 -0.4027  0.3360  0.4045
13996TIP3    H163479   3.174   2.204  50.478 -2.2114  0.7186 -0.3829
13996TIP3    H263480   3.269   2.091  50.446  0.1944  2.2341  1.0648
13997TIP3   OH263481   3.259   1.267  59.060  0.2690 -0.1207  0.0706
13997TIP3    H163482   3.171   1.254  59.023  0.8425 -1.3590 -0.9182
13997TIP3    H263483   3.266   1.200  59.128 -1.2108  2.8244  3.5004
13998TIP3   OH263484   0.321   3.289   5.319  0.2594  0.1925 -0.1019
13998TIP3    H163485   0.295   3.278   5.411 -0.2252 -1.2207 -0.3738
13998TIP3    H263486   0.238   3.288   5.271  0.4432  1.8711 -0.4992
13999TIP3   OH263487   0.333   0.350  54.373  0.3316 -0.2123 -0.1182
13999TIP3    H163488   0.387   0.322  54.299  1.4982  0.3174  0.5022
13999TIP3    H263489   0.277   0.419  54.337  0.0923 -0.7394 -0.7684
14000TIP3   OH263490   2.096   0.469  11.279 -0.4092 -0.5123 -0.3065
14000TIP3    H163491   2.130   0.540  11.333 -0.6185 -1.5622  1.2856
14000TIP3    H263492   2.164   0.453  11.215 -0.0791  0.6772 -0.2828
14001TIP3   OH263493   3.101   3.391  58.284  0.3644  0.1435  0.0260
14001TIP3    H163494   3.145   3.430  58.359  0.4532 -1.7520  0.9980
14001TIP3    H263495   3.127   3.299  58.285 -1.4280 -0.4269 -0.9720
14002TIP3   OH263496   3.441   3.345  49.815  0.3357  0.6730 -0.1240
14002TIP3    H163497   3.413   3.333  49.724 -1.0013  0.1163  0.3416
14002TIP3    H263498   3.365   3.382  49.860  0.7002  0.1702  0.9478
14003TIP3   OH263499   1.836   0.453  17.733 -0.5499  0.2386 -0.4253
14003TIP3    H163500   1.922   0.440  17.694 -0.0284  0.3737  0.6511
14003TIP3    H263501   1.822   0.548  17.727  1.4519  0.9890  3.4674
14004TIP3   OH263502   2.884   0.706  57.455  0.1541  0.1458  0.2854
14004TIP3    H163503   2.853   0.785  57.409 -0.1816 -0.8403 -1.2604
14004TIP3    H263504   2.955   0.738  57.511  3.0922  1.0323 -3.4543
14005TIP3   OH263505   2.667   0.864   0.522  0.0693 -0.2588  0.1584
14005TIP3    H163506   2.716   0.860   0.604  0.0849 -1.6951  0.1062
14005TIP3    H263507   2.714   0.805   0.463  0.7330  1.6185 -1.2840
14006TIP3   OH263508   0.718   0.610  47.482 -0.1542 -0.3683 -0.3147
14006TIP3    H163509   0.660   0.542  47.516  1.0306 -1.3727 -0.2275
14006TIP3    H263510   0.804   0.568  47.479  0.6827  1.2635  0.1136
14007TIP3   OH263511   2.558   1.365  19.575  0.0871 -0.0296 -0.0012
14007TIP3    H163512   2.602   1.425  19.635 -1.1476  1.8180 -0.8199
14007TIP3    H263513   2.505   1.309  19.631  0.5609  0.2570  0.7526
14008TIP3   OH263514   2.891   0.091   1.389  0.5910 -0.5109  0.0074
14008TIP3    H163515   2.843   0.016   1.424  0.9261 -2.3521 -3.0872
14008TIP3    H263516   2.983   0.063   1.391  0.6719 -0.4587 -1.6443
14009TIP3   OH263517   2.623   1.557   4.727 -0.4822  0.0556  0.8679
14009TIP3    H163518   2.705   1.565   4.679 -1.1392 -0.5295 -0.4170
14009TIP3    H263519   2.567   1.626   4.692 -2.6544 -3.1742 -2.9362
14010TIP3   OH263520   1.840   2.895  19.302  0.2790  0.6427  0.2817
14010TIP3    H163521   1.862   2.866  19.390 -2.9601  1.6702  1.5668
14010TIP3    H263522   1.854   2.990  19.303  0.3074  0.6516 -0.3460
14011TIP3   OH263523   0.318   1.127  62.501  0.2805  0.0846 -0.1790
14011TIP3    H163524   0.307   1.033  62.486  1.2250 -0.2037  0.7578
14011TIP3    H263525   0.265   1.169  62.434 -0.8738 -1.1259 -0.0671
14012TIP3   OH263526   2.587   0.431   5.303 -0.2697 -0.3971  0.6646
14012TIP3    H163527   2.560   0.382   5.225  0.2957  0.0147  0.2075
14012TIP3    H263528   2.655   0.490   5.272  0.2919 -0.5574  1.5691
14013TIP3   OH263529   1.603   0.935  62.066  0.0701 -0.1725  0.6051
14013TIP3    H163530   1.540   0.914  62.136 -0.6862 -1.6087 -0.4394
14013TIP3    H263531   1.686   0.950  62.112 -0.9060  1.4012  1.9960
14014TIP3   OH263532   2.422   0.323  49.062  0.1708  0.6072 -0.5528
14014TIP3    H163533   2.499   0.275  49.034 -0.1427  0.1623 -0.6726
14014TIP3    H263534   2.450   0.414  49.069  0.8046  0.3860 -0.2001
14015TIP3   OH263535   3.366   2.701  64.533 -0.1181  0.2866 -0.4919
14015TIP3    H163536   3.390   2.728  64.621  0.8901 -0.8386 -0.3849
14015TIP3    H263537   3.307   2.769  64.502 -1.1407  0.3063  1.3419
14016TIP3   OH263538   0.854   1.313  46.191  0.5291 -0.3744 -0.2270
14016TIP3    H163539   0.902   1.281  46.267 -0.2122 -1.3367 -0.1380
14016TIP3    H263540   0.806   1.236  46.159 -0.0355  0.2772 -0.9980
14017TIP3   OH263541   2.079   0.911  56.947  0.2386  0.0999 -0.0293
14017TIP3    H163542   1.998   0.909  56.897  1.0266  1.4767 -1.4316
14017TIP3    H263543   2.142   0.955  56.890  0.6131  3.9784  2.9125
14018TIP3   OH263544   0.697   2.913  63.977 -0.1370  0.3505  0.2129
14018TIP3    H163545   0.618   2.962  63.998  0.0610  0.3213  1.0636
14018TIP3    H263546   0.702   2.845  64.045 -0.0385 -0.4174 -0.5384
14019TIP3   OH263547   1.045   0.808  54.319  0.0837  0.4485 -0.9071
14019TIP3    H163548   1.081   0.798  54.407 -0.7669  0.3415 -0.5701
14019TIP3    H263549   1.040   0.903  54.306 -0.1423  0.4649 -0.6999
14020TIP3   OH263550   2.547   2.909  56.941 -0.2639  0.1483 -0.3333
14020TIP3    H163551   2.561   2.977  56.876  1.1558 -1.4034 -1.7495
14020TIP3    H263552   2.635   2.881  56.966 -0.8024 -0.2882  1.2139
14021TIP3   OH263553   3.328   1.927  10.337 -0.3838 -0.3285  0.4865
14021TIP3    H163554   3.285   1.948  10.254  0.8213  2.1108  0.3584
14021TIP3    H263555   3.358   2.012  10.370  2.3299 -1.5822  1.6280
14022TIP3   OH263556   2.396   3.305  45.264 -0.0544 -0.0288 -0.1255
14022TIP3    H163557   2.341   3.275  45.336 -1.0886  0.0421 -0.8567
14022TIP3    H263558   2.481   3.265  45.279 -0.1145  0.3685  1.3903
14023TIP3   OH263559   0.602   2.736  12.291 -0.1612 -0.0211 -0.3277
14023TIP3    H163560   0.644   2.805  12.240  0.3589 -1.0705 -1.3467
14023TIP3    H263561   0.577   2.779  12.373  1.3250  1.0668 -0.4037
14024TIP3   OH263562   3.410   2.332  63.226 -0.0660 -0.4765  0.3972
14024TIP3    H163563   3.499   2.317  63.193  1.1547 -0.6230  3.4075
14024TIP3    H263564   3.358   2.262  63.188  0.9243 -0.0374 -1.9285
14025TIP3   OH263565   2.353   3.067  62.436 -0.2964 -0.2162  0.0279
14025TIP3    H163566   2.280   3.129  62.444 -0.3458 -0.0489 -1.4705
14025TIP3    H263567   2.328   3.009  62.364  0.6222 -0.7659  0.1298
14026TIP3   OH263568   0.420   1.469  58.914 -0.1481  0.6317 -0.0426
14026TIP3    H163569   0.508   1.506  58.914 -0.9067  2.6544 -2.0199
14026TIP3    H263570   0.366   1.536  58.956 -0.9675  0.0086 -0.0774
14027TIP3   OH263571   2.116   0.244  18.009  0.0418 -0.4580  0.0744
14027TIP3    H163572   2.035   0.193  18.013  0.3083 -1.0450 -1.5075
14027TIP3    H263573   2.121   0.287  18.095 -1.0316 -1.7833  0.8400
14028TIP3   OH263574   1.422   1.945  49.540  0.0407  0.5749  0.4708
14028TIP3    H163575   1.435   1.968  49.632 -0.8719  1.7577  0.3355
14028TIP3    H263576   1.493   1.988  49.493  0.2717  0.3143  0.5854
14029TIP3   OH263577   1.062   1.542  15.574  0.4884 -0.3230 -0.2524
14029TIP3    H163578   1.031   1.504  15.656 -0.1060  0.0055 -0.3245
14029TIP3    H263579   0.988   1.535  15.514  0.7399 -0.0677 -0.6009
14030TIP3   OH263580   2.749   2.188  48.264 -0.0944  0.1480  0.2752
14030TIP3    H163581   2.722   2.242  48.190 -2.3248  0.4764  1.2545
14030TIP3    H263582   2.759   2.100  48.228 -0.2149  0.4852 -0.5918
14031TIP3   OH263583   3.158   2.155  22.028  0.0156 -0.0288  0.0884
14031TIP3    H163584   3.185   2.067  22.054  0.6136 -0.2312 -1.1027
14031TIP3    H263585   3.205   2.213  22.088  1.1040 -0.4799 -0.2952
14032TIP3   OH263586   2.216   0.797  10.457  0.3441 -0.3347  1.2849
14032TIP3    H163587   2.158   0.769  10.386 -0.4497 -0.6589  2.0455
14032TIP3    H263588   2.232   0.717  10.507  1.9034 -0.3687  0.7935
14033TIP3   OH263589   2.614   3.040  55.484 -0.0615 -0.1111 -0.3087
14033TIP3    H163590   2.544   3.066  55.544  0.5531  2.0465 -0.4488
14033TIP3    H263591   2.616   2.944  55.490 -1.0821 -0.0660  1.8790
14034TIP3   OH263592   1.671   0.113  19.084  0.4422 -0.3339 -0.1171
14034TIP3    H163593   1.701   0.051  19.018  1.8728 -0.6717  0.8084
14034TIP3    H263594   1.688   0.199  19.045 -1.7798 -0.4601 -1.5050
14035TIP3   OH263595   2.280   3.258  15.638  0.1991 -0.2845 -0.5782
14035TIP3    H163596   2.197   3.285  15.599 -0.1033 -0.2849  0.0661
14035TIP3    H263597   2.345   3.274  15.569 -0.5476 -1.8493 -1.7104
14036TIP3   OH263598   1.757   0.453  59.739  0.0164 -0.0250  0.4498
14036TIP3    H163599   1.721   0.422  59.656  0.8169  0.0936  0.0482
14036TIP3    H263600   1.681   0.486  59.787 -0.2097  1.9500 -1.1191
14037TIP3   OH263601   2.229   2.964  46.465 -0.1123  0.4413 -0.6220
14037TIP3    H163602   2.209   2.953  46.372 -1.4774 -1.1303 -0.1999
14037TIP3    H263603   2.310   2.914  46.479  0.6740  1.5494 -1.1465
14038TIP3   OH263604   1.603   1.685  66.481  0.4946 -0.0929 -0.3718
14038TIP3    H163605   1.689   1.713  66.514  0.3603 -1.3169  1.1169
14038TIP3    H263606   1.566   1.764  66.441  1.1548  1.2034  1.4475
14039TIP3   OH263607   1.775   1.863  14.985 -0.3092  0.5200 -0.6689
14039TIP3    H163608   1.759   1.811  15.063 -1.5053 -2.6591 -2.8156
14039TIP3    H263609   1.690   1.869  14.941  0.7074  0.1452 -2.8523
14040TIP3   OH263610   3.365   1.691  59.828  0.1267 -0.1317  0.6114
14040TIP3    H163611   3.439   1.636  59.852 -0.4143 -1.3084 -0.2948
14040TIP3    H263612   3.288   1.643  59.860 -0.2930  0.9897  1.4076
14041TIP3   OH263613   2.601   1.441  50.838 -0.3209  0.5818  0.2922
14041TIP3    H163614   2.536   1.457  50.907  1.2045  1.1174  1.6955
14041TIP3    H263615   2.599   1.520  50.784 -1.9346 -0.0811 -0.6606
14042TIP3   OH263616   0.698   3.416   6.666 -0.0985 -0.4393  0.1031
14042TIP3    H163617   0.762   3.346   6.650  0.8772  0.4709 -0.0915
14042TIP3    H263618   0.733   3.463   6.741 -0.1489  0.5023 -0.4435
14043TIP3   OH263619   3.016   3.203  28.070 -0.0099  0.0398 -0.8807
14043TIP3    H163620   2.991   3.134  28.009  1.3864 -0.6697 -0.6845
14043TIP3    H263621   3.038   3.277  28.015  0.4591 -0.3398 -1.2139
14044TIP3   OH263622   2.713   0.321  57.096 -0.5223 -0.3419 -0.2968
14044TIP3    H163623   2.743   0.411  57.108  0.9207 -0.7765 -0.4023
14044TIP3    H263624   2.624   0.320  57.131 -0.6652  1.1843 -0.5504
14045TIP3   OH263625   1.181   0.025  43.070  0.2815 -0.1503 -0.3159
14045TIP3    H163626   1.268  -0.015  43.074  0.8892  1.2192  1.9918
14045TIP3    H263627   1.198   0.119  43.066 -1.0335  0.2369  1.6498
14046TIP3   OH263628   1.097   1.755  35.661 -0.3401 -0.0735 -0.2285
14046TIP3    H163629   1.062   1.708  35.736  0.0945 -1.4373 -0.8489
14046TIP3    H263630   1.097   1.847  35.688  0.0412 -0.5514  1.5233
14047TIP3   OH263631   2.962   0.325  63.418  0.1374 -0.0043  0.0323
14047TIP3    H163632   2.932   0.415  63.404 -1.1269 -0.6116 -1.4052
14047TIP3    H263633   3.032   0.312  63.354  1.2396  0.3460  1.1327
14048TIP3   OH263634   0.784   1.190  50.067 -0.4099  0.5354 -0.6073
14048TIP3    H163635   0.846   1.223  50.131 -0.9032  0.6141 -0.1652
14048TIP3    H263636   0.807   1.097  50.057 -0.5480  0.4394 -0.0595
14049TIP3   OH263637   2.008   1.517  16.631 -0.7031 -0.5432 -0.1518
14049TIP3    H163638   1.980   1.609  16.629 -0.7406 -0.5466  0.2062
14049TIP3    H263639   1.991   1.486  16.542 -2.0990 -0.6124  0.1155
14050TIP3   OH263640   3.448   2.564   4.101 -0.4154 -0.5783  0.3381
14050TIP3    H163641   3.494   2.598   4.024 -0.2503 -0.1828  0.6042
14050TIP3    H263642   3.365   2.530   4.067 -0.8040  0.5501  0.1206
14051TIP3   OH263643   3.421   0.189   1.579  0.4251  0.0576 -1.3519
14051TIP3    H163644   3.345   0.244   1.598  0.9199  0.0136  1.1653
14051TIP3    H263645   3.470   0.238   1.513  0.0700  1.9228 -0.3060
14052TIP3   OH263646   2.281   2.986  45.384  0.2093 -0.1374 -0.1044
14052TIP3    H163647   2.209   3.026  45.433  0.4636  0.0687  0.1005
14052TIP3    H263648   2.343   2.959  45.451  0.5899  0.2091 -0.3120
14053TIP3   OH263649   2.009   3.059  57.974 -0.0489 -0.4640 -0.3197
14053TIP3    H163650   2.078   3.114  58.010  0.0806 -0.2676 -0.8511
14053TIP3    H263651   2.014   2.978  58.023 -2.2099  0.9928  2.6050
14054TIP3   OH263652   3.110   0.668  29.914  1.0342 -0.2020 -0.9893
14054TIP3    H163653   3.015   0.655  29.912  0.8850  0.2952  0.8433
14054TIP3    H263654   3.137   0.659  29.823 -0.8592  0.2623 -1.6559
14055TIP3   OH263655   0.464   0.055  43.148  0.8912  0.3878  0.2177
14055TIP3    H163656   0.513   0.053  43.066 -0.8890 -0.3215 -0.8837
14055TIP3    H263657   0.395   0.120  43.134  0.4319  0.0974  1.0581
14056TIP3   OH263658   0.306   3.178  14.880 -0.3774 -0.4572 -0.0117
14056TIP3    H163659   0.237   3.152  14.818 -1.2088 -2.4880  1.6417
14056TIP3    H263660   0.385   3.182  14.827 -1.4498  0.3188 -1.6580
14057TIP3   OH263661   0.490   3.112  18.016  0.2528 -0.2168  0.1426
14057TIP3    H163662   0.452   3.198  17.999 -2.3498 -1.3387 -0.2084
14057TIP3    H263663   0.504   3.074  17.929  1.6906 -0.0504  0.2863
14058TIP3   OH263664   2.623   2.570  19.269  0.3516 -0.1646  0.2781
14058TIP3    H163665   2.553   2.538  19.213 -1.0176 -0.2867  1.9575
14058TIP3    H263666   2.582   2.581  19.355  2.5273 -0.7613  1.4741
14059TIP3   OH263667   2.266   2.985   7.314  0.0751  0.3493  0.7006
14059TIP3    H163668   2.270   3.076   7.287  0.0091 -0.1187 -1.0149
14059TIP3    H263669   2.339   2.974   7.375 -0.0735  1.5875  1.1287
14060TIP3   OH263670   1.251   0.925  44.195 -0.2591 -0.0909 -0.1792
14060TIP3    H163671   1.238   0.864  44.123 -0.0909 -1.4274  0.8894
14060TIP3    H263672   1.337   0.902  44.231 -0.0034  1.0546 -0.0011
14061TIP3   OH263673   2.946   2.164  67.133 -0.2724  0.2155 -0.5993
14061TIP3    H163674   2.948   2.220  67.210 -0.5037 -0.5154 -0.0421
14061TIP3    H263675   2.913   2.220  67.063 -1.9078  0.4169  0.2692
14062TIP3   OH263676   2.876   1.388  48.967  0.4526 -0.0559  0.1049
14062TIP3    H163677   2.828   1.466  48.996  3.0154  1.9759 -0.7066
14062TIP3    H263678   2.818   1.345  48.905 -1.2383  0.9184  0.9557
14063TIP3   OH263679   0.554   0.635  10.544 -0.5346 -0.5341  0.2959
14063TIP3    H163680   0.560   0.722  10.504  1.0541 -0.3182  0.9011
14063TIP3    H263681   0.643   0.618  10.576 -0.4487 -3.0015 -1.0647
14064TIP3   OH263682   0.724   0.464  13.803  0.4093  0.6966  0.5736
14064TIP3    H163683   0.679   0.391  13.845 -1.2759  0.8895 -0.8208
14064TIP3    H263684   0.657   0.531  13.792  0.9574  0.9576 -1.6824
14065TIP3   OH263685   1.321   0.724  21.979  0.5675  0.7885  0.1573
14065TIP3    H163686   1.307   0.757  22.068  2.4310  0.0977  0.7655
14065TIP3    H263687   1.404   0.676  21.985  1.3397  1.7190 -2.2415
14066TIP3   OH263688   2.250   0.347  52.013 -0.0139  0.0240  0.2883
14066TIP3    H163689   2.345   0.360  52.019 -0.2681  2.4804  0.2140
14066TIP3    H263690   2.213   0.421  52.062 -1.9135 -1.1478  0.7382
14067TIP3   OH263691   2.476   1.938  11.554  0.1669 -0.0532  0.0154
14067TIP3    H163692   2.438   2.025  11.564 -0.1293 -0.1739 -0.0518
14067TIP3    H263693   2.408   1.886  11.511 -0.3921 -0.8052  1.6944
14068TIP3   OH263694   0.307   1.685  61.860  0.3058  0.7640  0.0205
14068TIP3    H163695   0.355   1.627  61.919 -1.2754 -2.9288 -1.9632
14068TIP3    H263696   0.358   1.683  61.779 -1.9218 -1.6976 -1.4978
14069TIP3   OH263697   0.444   1.156  10.522  0.5180 -0.4894 -0.2041
14069TIP3    H163698   0.446   1.129  10.614 -0.2288 -0.8621 -0.2871
14069TIP3    H263699   0.475   1.079  10.474 -2.5417 -1.6626 -0.5206
14070TIP3   OH263700   1.268   1.297  49.038 -0.4785 -0.0805 -0.3329
14070TIP3    H163701   1.323   1.282  48.961 -2.0545 -2.2496 -1.1420
14070TIP3    H263702   1.318   1.259  49.111 -0.1262 -0.3982 -0.7383
14071TIP3   OH263703   1.756   1.002  43.889 -0.2310  0.3077  0.1091
14071TIP3    H163704   1.704   1.077  43.862  1.0334  0.9178 -0.6947
14071TIP3    H263705   1.846   1.034  43.891  0.0188 -0.3481  2.8218
14072TIP3   OH263706   0.393   1.036   9.466  0.3457 -0.1356 -0.0172
14072TIP3    H163707   0.372   1.121   9.504 -0.0786 -0.6451  0.9189
14072TIP3    H263708   0.320   1.017   9.407  1.8349  1.4597 -2.5728
14073TIP3   OH263709   0.187   0.901  52.480  0.2734 -0.2561  0.0278
14073TIP3    H163710   0.132   0.975  52.504 -0.9571 -0.7449 -1.1057
14073TIP3    H263711   0.190   0.904  52.384  1.2054 -0.9607  0.0236
14074TIP3   OH263712   2.152   1.682  45.488 -1.0360 -0.3661 -0.5514
14074TIP3    H163713   2.063   1.651  45.470 -0.4947 -1.2579 -1.8255
14074TIP3    H263714   2.209   1.624  45.437  0.3643 -0.5366  1.1349
14075TIP3   OH263715   3.146   0.857  47.100 -0.1101 -0.0040 -0.0808
14075TIP3    H163716   3.241   0.852  47.097 -0.1734 -2.0842  0.2468
14075TIP3    H263717   3.125   0.867  47.192 -0.2240  1.2349 -0.2143
14076TIP3   OH263718   2.244   1.702  59.649  0.3433  0.6834  0.7152
14076TIP3    H163719   2.257   1.796  59.639 -2.3497  1.1240  0.5697
14076TIP3    H263720   2.159   1.685  59.607  0.3731 -1.6622  1.4700
14077TIP3   OH263721   1.290   2.908  15.302 -0.4344 -0.3366 -0.0419
14077TIP3    H163722   1.259   2.990  15.341  0.3652  0.1735 -0.4492
14077TIP3    H263723   1.286   2.845  15.373 -0.4336  0.2230  0.4649
14078TIP3   OH263724   1.622   2.036  36.276 -0.6622  0.4515 -0.3805
14078TIP3    H163725   1.566   1.962  36.251 -0.7093  0.1055  0.6830
14078TIP3    H263726   1.566   2.113  36.266 -1.3994  0.0927  0.8237
14079TIP3   OH263727   2.964   2.486  13.265 -0.6010 -0.0604  0.0639
14079TIP3    H163728   3.032   2.520  13.208 -0.3893  1.2651  1.0708
14079TIP3    H263729   2.884   2.529  13.237 -1.2910 -2.3058 -1.7350
14080TIP3   OH263730   2.225   2.889   0.826  0.0552  0.0846  0.1783
14080TIP3    H163731   2.202   2.818   0.766 -1.0702  0.3569  0.2770
14080TIP3    H263732   2.142   2.932   0.846  0.7256  1.4901  0.0453
14081TIP3   OH263733   0.707   0.700  43.364 -0.3063  0.7017  0.1683
14081TIP3    H163734   0.615   0.719  43.342 -0.8249 -1.4810  0.2183
14081TIP3    H263735   0.712   0.712  43.458 -1.1134 -1.1555  0.4834
14082TIP3   OH263736   0.931   1.442  18.919  0.0904 -0.3002  0.3140
14082TIP3    H163737   1.013   1.472  18.881 -1.0078  0.8744 -1.2563
14082TIP3    H263738   0.921   1.491  19.000  0.6370 -0.0131  0.2074
14083TIP3   OH263739   1.540   1.805   2.527  0.3191 -0.0591 -0.8338
14083TIP3    H163740   1.608   1.821   2.461  0.9106 -0.3798 -0.3163
14083TIP3    H263741   1.524   1.710   2.521  0.3112 -0.0732 -0.5812
14084TIP3   OH263742   0.969   2.582   9.944  0.2880 -1.2711  0.0944
14084TIP3    H163743   0.926   2.561   9.861 -0.6830 -1.7926  0.7066
14084TIP3    H263744   1.039   2.517   9.951 -1.0268 -2.6734  0.7109
14085TIP3   OH263745   1.406   1.891  19.309  0.0521  0.5043 -0.3790
14085TIP3    H163746   1.470   1.831  19.270  0.2979  0.8765 -0.5557
14085TIP3    H263747   1.458   1.943  19.370 -0.3093 -0.0077  0.3882
14086TIP3   OH263748   3.047   0.967  48.652  0.3633  0.5265 -0.2576
14086TIP3    H163749   3.140   0.964  48.672  0.3107  2.6348  0.5487
14086TIP3    H263750   3.006   0.916  48.722  0.8563 -0.0825 -0.3969
14087TIP3   OH263751   1.646   0.468  52.837  0.4979 -0.1836 -0.2966
14087TIP3    H163752   1.604   0.464  52.751  0.1304 -1.1794 -0.0865
14087TIP3    H263753   1.574   0.470  52.899  0.6838  3.0967 -0.0145
14088TIP3   OH263754   2.223   2.399  10.331 -0.2342 -0.0832  0.6544
14088TIP3    H163755   2.214   2.473  10.392 -4.7280  1.5842 -1.5590
14088TIP3    H263756   2.150   2.341  10.352  0.7312 -1.7357 -0.3567
14089TIP3   OH263757   0.585   0.974   5.511 -0.2250  0.5444  0.3565
14089TIP3    H163758   0.582   1.031   5.587  1.3299  0.8420  0.2287
14089TIP3    H263759   0.495   0.970   5.480 -0.7203  1.1519  1.6631
14090TIP3   OH263760   2.211   0.224  11.768 -0.0234 -0.5387  0.0156
14090TIP3    H163761   2.206   0.319  11.771  0.1455 -0.3748 -2.6034
14090TIP3    H263762   2.299   0.205  11.734 -1.0378 -1.4298 -2.3739
14091TIP3   OH263763   2.153   1.191   9.980  0.1137 -0.3565 -0.0511
14091TIP3    H163764   2.139   1.252   9.908 -0.7766 -0.6116 -0.1095
14091TIP3    H263765   2.153   1.247  10.058  1.7892  0.0054 -0.2856
14092TIP3   OH263766   0.091   1.274   8.525  0.8206 -0.5753 -0.0524
14092TIP3    H163767   0.163   1.309   8.473  0.6971 -1.0954 -0.5833
14092TIP3    H263768   0.013   1.285   8.471  0.6257 -0.7374  0.1891
14093TIP3   OH263769   0.852   1.688  43.770 -0.0395  0.4295 -0.0145
14093TIP3    H163770   0.797   1.699  43.847  0.5303  1.9448  0.2080
14093TIP3    H263771   0.921   1.627  43.798  0.7347  1.7296  1.0300
14094TIP3   OH263772   3.361   0.923  56.263 -0.2322 -0.6819  0.1060
14094TIP3    H163773   3.414   0.873  56.325  2.1046  1.3817 -0.0417
14094TIP3    H263774   3.426   0.973  56.212 -2.3346  2.3288  0.1423
14095TIP3   OH263775   1.948   3.435  18.973  0.4487  0.0774 -0.3464
14095TIP3    H163776   1.968   3.523  18.941  0.8036  0.3940  0.7076
14095TIP3    H263777   2.021   3.382  18.942 -0.5475 -0.2314 -2.3773
14096TIP3   OH263778   1.160   3.092  66.725  0.0438 -0.6978  0.0993
14096TIP3    H163779   1.074   3.129  66.749  1.2169  2.0195  0.4918
14096TIP3    H263780   1.163   3.099  66.630  0.1913  0.1696  0.1575
14097TIP3   OH263781   0.390   3.377  65.528  0.0973  0.1867 -0.1692
14097TIP3    H163782   0.383   3.404  65.437  0.5078  1.2254  0.0860
14097TIP3    H263783   0.470   3.324  65.531  0.8949  1.3393 -0.1718
14098TIP3   OH263784   3.183   2.885   3.772 -0.0741 -0.1208  1.0321
14098TIP3    H163785   3.182   2.868   3.677  0.1287  1.5447  0.7012
14098TIP3    H263786   3.207   2.977   3.779  2.2615 -0.8002  2.8139
14099TIP3   OH263787   1.340   2.504  15.051 -0.3901  0.2251 -0.2682
14099TIP3    H163788   1.404   2.569  15.078 -1.2994  0.4266  1.5441
14099TIP3    H263789   1.269   2.554  15.011 -0.1671  0.1448 -0.7746
14100TIP3   OH263790   0.230   2.748  19.080 -0.6163  0.4040 -0.4755
14100TIP3    H163791   0.187   2.833  19.091 -2.2239 -0.4924  0.6451
14100TIP3    H263792   0.180   2.704  19.013  1.1123  0.8279 -2.1316
14101TIP3   OH263793   0.525   0.633  20.689  0.1960  0.2769 -0.1117
14101TIP3    H163794   0.607   0.653  20.643  0.1387  1.9300  0.4131
14101TIP3    H263795   0.530   0.685  20.769 -1.0854 -0.1191  0.2424
14102TIP3   OH263796   3.244   1.692  56.752 -0.1111 -0.0046 -0.8354
14102TIP3    H163797   3.334   1.671  56.780  1.2587  1.9475 -3.3457
14102TIP3    H263798   3.211   1.610  56.717  1.5101 -0.3152 -1.7551
14103TIP3   OH263799   2.339   2.868  11.204  0.1199  0.3124  0.2126
14103TIP3    H163800   2.402   2.821  11.149 -0.1653  0.4704 -0.2562
14103TIP3    H263801   2.271   2.898  11.143  0.9272  2.4400  0.2793
14104TIP3   OH263802   1.490   2.753  56.899  0.2600 -0.0613  0.3079
14104TIP3    H163803   1.505   2.818  56.831  0.8517 -0.8296 -0.3136
14104TIP3    H263804   1.562   2.691  56.889 -1.0792 -1.6108 -0.0695
14105TIP3   OH263805   2.331   1.548  61.846 -0.1829 -0.5065 -0.5240
14105TIP3    H163806   2.395   1.481  61.821  1.3071  0.0358  1.5656
14105TIP3    H263807   2.379   1.630  61.838 -1.0614  0.0386 -0.2444
14106TIP3   OH263808   0.189   1.141  64.219 -0.2904  0.3279 -0.4479
14106TIP3    H163809   0.122   1.107  64.160 -3.5386  2.8027  1.4651
14106TIP3    H263810   0.214   1.226  64.180 -0.4356  0.7311  0.3133
14107TIP3   OH263811   3.113   0.918   6.161 -0.2042 -0.7827  0.0002
14107TIP3    H163812   3.020   0.897   6.171 -0.4027  0.0792  0.0489
14107TIP3    H263813   3.114   1.004   6.119  0.5692 -0.5480  0.4763
14108TIP3   OH263814   1.246   1.108  43.765 -0.1926 -0.0707  0.1077
14108TIP3    H163815   1.190   1.118  43.688  0.4201 -1.4830 -0.5679
14108TIP3    H263816   1.312   1.045  43.738  1.3884  1.1062  1.0713
14109TIP3   OH263817   3.142   0.162  46.528  0.0330 -0.3416  0.3931
14109TIP3    H163818   3.146   0.173  46.623 -0.7880 -0.2454  0.4315
14109TIP3    H263819   3.059   0.116  46.513  0.0526 -0.1636 -0.2902
14110TIP3   OH263820   0.085   2.202  45.169 -0.0329 -0.3940 -0.1511
14110TIP3    H163821   0.053   2.204  45.078 -0.6527 -0.4033  0.0620
14110TIP3    H263822   0.179   2.220  45.161 -0.2358  0.5039 -0.7285
14111TIP3   OH263823   1.576   2.138   7.807  0.4722 -0.5881  0.5743
14111TIP3    H163824   1.635   2.063   7.793  0.8030 -0.3120  0.4623
14111TIP3    H263825   1.531   2.149   7.724  2.3977  1.0188 -0.3400
14112TIP3   OH263826   1.775   0.638  20.030  0.0075  0.2864  0.2283
14112TIP3    H163827   1.709   0.704  20.010  1.5228  2.2170  1.2373
14112TIP3    H263828   1.853   0.666  19.981  1.0155 -0.1023  1.5559
14113TIP3   OH263829   1.660   1.908  50.347 -0.1204  0.1159  0.5314
14113TIP3    H163830   1.582   1.919  50.402 -1.4356  1.5042 -1.4598
14113TIP3    H263831   1.660   1.816  50.323 -1.6211  0.2455 -0.0487
14114TIP3   OH263832   1.199   0.476   0.578 -0.4194 -0.1036 -0.4751
14114TIP3    H163833   1.194   0.383   0.556  0.1359 -0.5279  1.0995
14114TIP3    H263834   1.286   0.504   0.549 -0.4664 -0.1541 -0.6638
14115TIP3   OH263835   0.175   0.532  46.581 -0.4719  0.3850 -0.0276
14115TIP3    H163836   0.191   0.465  46.515 -0.6556  0.2903  0.0246
14115TIP3    H263837   0.079   0.534  46.591 -0.3531 -1.2965  2.0041
14116TIP3   OH263838   1.482   3.038  20.313 -0.4424  0.3547  0.3623
14116TIP3    H163839   1.570   3.029  20.348 -0.0470 -2.5989 -1.0751
14116TIP3    H263840   1.493   3.093  20.235  0.7227 -2.1033 -1.3292
14117TIP3   OH263841   1.358   3.361  35.984 -0.0772  0.0857  0.1035
14117TIP3    H163842   1.283   3.331  35.933  0.2182 -1.7279  0.6583
14117TIP3    H263843   1.321   3.383  36.070 -0.1046  0.0074  0.1132
14118TIP3   OH263844   0.483   0.339  12.929 -0.2143  0.5116  0.2986
14118TIP3    H163845   0.466   0.347  13.023 -2.1107  0.8993 -0.0206
14118TIP3    H263846   0.507   0.428  12.902  0.9389  0.2704  0.5106
14119TIP3   OH263847   2.365   1.831  16.144  0.4914  0.2217 -0.0353
14119TIP3    H163848   2.419   1.904  16.174 -1.6750  1.4671  0.9736
14119TIP3    H263849   2.365   1.839  16.048  0.6921  1.2280  0.0420
14120TIP3   OH263850   1.215   0.669  10.031 -1.0438  0.2374 -0.5241
14120TIP3    H163851   1.299   0.623  10.026 -1.7626 -1.2622  0.2043
14120TIP3    H263852   1.228   0.736  10.097 -0.2641  0.3710 -0.8044
14121TIP3   OH263853   2.553   2.013  63.028  0.2285 -0.3459 -0.0045
14121TIP3    H163854   2.642   2.007  62.993 -0.0342 -0.4277 -0.6724
14121TIP3    H263855   2.500   1.963  62.966 -0.2463 -0.4971  0.5223
14122TIP3   OH263856   2.018   1.907  67.000 -0.1050 -0.7778  0.0140
14122TIP3    H163857   1.941   1.881  66.950  0.7685 -4.1152  0.1607
14122TIP3    H263858   1.983   1.936  67.084 -1.3213  0.8774 -1.0004
14123TIP3   OH263859   1.302   0.314   8.070  0.4982 -0.8343 -0.1706
14123TIP3    H163860   1.261   0.228   8.066  0.3961 -0.9053  1.5011
14123TIP3    H263861   1.230   0.375   8.080  0.5894 -0.5836 -1.0346
14124TIP3   OH263862   1.472   2.480  49.207  0.4507 -0.2427  0.3333
14124TIP3    H163863   1.502   2.397  49.171  1.4427  0.0914  0.3531
14124TIP3    H263864   1.543   2.508  49.266 -0.0690  0.3931  0.6774
14125TIP3   OH263865   1.897   1.629  11.365  0.7862  0.2636  0.1988
14125TIP3    H163866   1.872   1.662  11.278 -0.4278 -0.9013  0.0738
14125TIP3    H263867   1.942   1.703  11.406 -1.8028  2.1408 -0.0628
14126TIP3   OH263868   0.199   1.147  17.407  0.0940  0.1577 -0.3065
14126TIP3    H163869   0.263   1.176  17.342  0.6609 -0.3110  0.0268
14126TIP3    H263870   0.252   1.121  17.482 -0.4164 -1.0612 -0.3427
14127TIP3   OH263871   2.868   1.961  13.868 -0.1297  0.0903 -0.0085
14127TIP3    H163872   2.945   1.950  13.923 -0.4436 -0.3921  0.3431
14127TIP3    H263873   2.818   2.032  13.909  0.4133  0.8174 -0.5761
14128TIP3   OH263874   0.436   3.230  45.014  0.5638 -0.0802 -0.3293
14128TIP3    H163875   0.355   3.252  45.059  1.5936 -0.4408  1.8547
14128TIP3    H263876   0.479   3.315  44.999  0.1566  0.0502 -0.7878
14129TIP3   OH263877   1.141   2.324  17.239 -0.0444  0.1254  0.3102
14129TIP3    H163878   1.222   2.315  17.188  0.1434 -1.2928  0.8199
14129TIP3    H263879   1.076   2.272  17.190 -0.2588  0.0419  0.6794
14130TIP3   OH263880   0.494   0.516   0.526  0.3733  0.3420 -0.1962
14130TIP3    H163881   0.476   0.598   0.480 -0.0990  0.5872  0.4135
14130TIP3    H263882   0.476   0.536   0.618  0.8339 -0.2783  0.0356
14131TIP3   OH263883   0.241   3.398  50.872 -0.4065 -0.9609 -0.0951
14131TIP3    H163884   0.259   3.475  50.926  0.0800 -0.5059 -0.8808
14131TIP3    H263885   0.234   3.432  50.783  0.2875 -1.8731 -0.5189
14132TIP3   OH263886   2.229   2.488  15.209  0.2132 -0.1720  0.2456
14132TIP3    H163887   2.161   2.431  15.172  0.2102 -1.2330  1.7765
14132TIP3    H263888   2.298   2.427  15.237  0.2756  0.5700  1.8002
14133TIP3   OH263889   0.445   1.268  49.096 -0.5084 -0.4071 -0.1243
14133TIP3    H163890   0.389   1.207  49.145 -0.0660  0.2486  1.2380
14133TIP3    H263891   0.528   1.222  49.088 -0.2160 -0.0710  0.7919
14134TIP3   OH263892   2.767   0.404  13.889 -0.3978  0.2935 -0.2313
14134TIP3    H163893   2.695   0.400  13.952  1.5612 -0.1667  2.1536
14134TIP3    H263894   2.743   0.475  13.829 -1.8917  1.5458  1.7373
14135TIP3   OH263895   0.223   1.146  58.162  0.7119  0.5412 -0.2909
14135TIP3    H163896   0.128   1.148  58.177  0.9115  1.7035  0.9956
14135TIP3    H263897   0.237   1.064  58.115 -1.1190  1.1566 -2.0736
14136TIP3   OH263898   2.111   1.964  59.278  0.0475 -0.0991 -0.2408
14136TIP3    H163899   2.018   1.960  59.300  0.4643 -2.0981  1.5739
14136TIP3    H263900   2.124   1.894  59.214  0.3895 -0.2044 -0.0622
14137TIP3   OH263901   2.861   1.210  50.567  0.7679 -0.1606  0.0148
14137TIP3    H163902   2.812   1.208  50.649  0.5117 -0.5720 -0.1469
14137TIP3    H263903   2.842   1.126  50.525  1.4479 -0.2458 -0.1442
14138TIP3   OH263904   0.422   1.392  12.527  0.3786  0.0222 -0.1182
14138TIP3    H163905   0.407   1.474  12.575  1.3289 -0.0002  0.2350
14138TIP3    H263906   0.386   1.324  12.584  1.1798  0.0319  0.4110
14139TIP3   OH263907   3.444   0.078  22.509  0.0724 -0.4893  0.0332
14139TIP3    H163908   3.476   0.111  22.425  2.0564 -0.7536  0.6378
14139TIP3    H263909   3.515   0.024  22.542  0.0059  0.8683  2.6405
14140TIP3   OH263910   0.305   0.364  10.084  0.2880  0.0202  0.1427
14140TIP3    H163911   0.239   0.307  10.124  0.5687  0.1730  0.8372
14140TIP3    H263912   0.324   0.429  10.151 -1.0408  1.7985 -1.1251
14141TIP3   OH263913   2.102   0.745  58.512 -0.0199  0.2045  0.0523
14141TIP3    H163914   2.155   0.679  58.467 -0.3476 -0.0056 -0.0262
14141TIP3    H263915   2.015   0.737  58.473 -0.3009  0.0424  0.6994
14142TIP3   OH263916   2.258   0.656  20.724 -0.3628 -0.0602 -0.3529
14142TIP3    H163917   2.223   0.718  20.660 -0.4275 -0.0847 -0.3418
14142TIP3    H263918   2.349   0.682  20.736 -0.9781  1.4938  1.4004
14143TIP3   OH263919   1.294   1.677  21.751 -0.4050 -0.5867  0.0736
14143TIP3    H163920   1.252   1.717  21.674  0.9052  1.0898  0.1744
14143TIP3    H263921   1.268   1.734  21.824  0.0646 -0.9436  0.5221
14144TIP3   OH263922   3.202   2.440  63.439  0.5018 -0.1478 -0.0915
14144TIP3    H163923   3.287   2.419  63.400 -0.7236  0.0222 -3.1406
14144TIP3    H263924   3.192   2.534  63.424 -0.4239 -0.2624 -0.2207
14145TIP3   OH263925   1.901   3.353   5.813 -0.3512 -0.1928 -0.0437
14145TIP3    H163926   1.832   3.316   5.867  0.5250 -2.0348 -0.1106
14145TIP3    H263927   1.981   3.341   5.865  0.0842  0.9232 -0.4181
14146TIP3   OH263928   2.185   0.922  46.823  0.4673  0.3929  0.1808
14146TIP3    H163929   2.197   0.866  46.899  0.5670 -0.2062 -0.2713
14146TIP3    H263930   2.266   0.974  46.819  1.1584 -0.6983 -0.4323
14147TIP3   OH263931   1.163   0.982  59.556  0.4200  0.3967  0.1154
14147TIP3    H163932   1.085   1.035  59.544  0.5333  0.4408 -0.4423
14147TIP3    H263933   1.209   0.987  59.472  0.3605 -0.6923  0.0054
14148TIP3   OH263934   1.165   2.887  20.213  0.5082  0.0000  0.3898
14148TIP3    H163935   1.192   2.919  20.127 -1.0385 -0.6817 -0.3885
14148TIP3    H263936   1.192   2.796  20.215 -0.5167 -0.3196  0.1293
14149TIP3   OH263937   0.340   2.066  16.658  0.2897  0.3501  0.0536
14149TIP3    H163938   0.411   2.014  16.623  0.4263  2.1642 -2.6770
14149TIP3    H263939   0.274   2.068  16.589 -0.3963  2.4176  0.6712
14150TIP3   OH263940   2.396   1.332  47.444 -0.3090  0.1204  0.1350
14150TIP3    H163941   2.333   1.311  47.513 -0.8140 -0.0966 -0.3770
14150TIP3    H263942   2.437   1.413  47.472 -1.0982  0.4758  0.3017
14151TIP3   OH263943   0.269   0.493   5.871 -0.0236  0.3097  0.0357
14151TIP3    H163944   0.356   0.479   5.834 -0.7127  0.0001 -1.5108
14151TIP3    H263945   0.286   0.515   5.963  1.5469 -3.1017  0.7298
14152TIP3   OH263946   1.095   1.045   9.401  0.5389 -0.1943 -0.5630
14152TIP3    H163947   1.083   1.139   9.390 -2.0083 -0.3864 -0.1214
14152TIP3    H263948   1.113   1.012   9.313  1.0486  0.6446 -0.7806
14153TIP3   OH263949   0.671   2.198  22.289  0.3819  0.7995  0.1464
14153TIP3    H163950   0.647   2.186  22.380  0.3981  0.6731  0.1354
14153TIP3    H263951   0.615   2.137  22.241  0.2271  1.0151  0.0532
14154TIP3   OH263952   0.909   3.040  20.198  0.2980  0.1439 -0.4576
14154TIP3    H163953   0.977   2.979  20.227  2.1101  2.2376 -0.0743
14154TIP3    H263954   0.838   3.027  20.261  0.1372 -2.2790 -1.0306
14155TIP3   OH263955   0.640   0.427  20.524 -0.2505 -0.2840  0.2734
14155TIP3    H163956   0.581   0.428  20.599 -0.9870 -0.9341 -0.2783
14155TIP3    H263957   0.585   0.451  20.450  0.9965  2.9039  0.2296
14156TIP3   OH263958   2.477   2.735  50.674 -0.0089 -0.1453 -0.1847
14156TIP3    H163959   2.491   2.825  50.644 -0.9164  0.2536  0.5554
14156TIP3    H263960   2.565   2.703  50.693  0.3364  0.5426 -0.5660
14157TIP3   OH263961   1.884   1.813  44.642 -0.0304 -0.5067  0.6457
14157TIP3    H163962   1.801   1.765  44.641 -0.9033  0.9454 -0.0888
14157TIP3    H263963   1.919   1.802  44.553  0.6259 -1.1943  0.9812
14158TIP3   OH263964   0.289   0.117  13.869  0.8088  0.3611  0.4171
14158TIP3    H163965   0.280   0.038  13.816 -0.3585  0.1858  0.8348
14158TIP3    H263966   0.281   0.189  13.807 -1.8493  0.1875  0.4216
14159TIP3   OH263967   2.655   0.795  31.800  0.1177 -0.1216  0.1546
14159TIP3    H163968   2.733   0.804  31.855  0.3885 -0.7835 -0.1191
14159TIP3    H263969   2.666   0.711  31.755 -0.3008  0.2080 -0.5910
14160TIP3   OH263970   2.863   0.107  46.446  0.3389  0.4383 -0.4149
14160TIP3    H163971   2.827   0.024  46.414  1.6569 -0.0681 -0.6207
14160TIP3    H263972   2.795   0.141  46.504 -0.4960 -0.4610 -0.8311
14161TIP3   OH263973   3.335   0.994  47.446  0.4920 -0.2216  0.2420
14161TIP3    H163974   3.329   1.028  47.356  3.0798  0.9129  0.4047
14161TIP3    H263975   3.283   1.054  47.498  0.7145  0.3968 -0.2289
14162TIP3   OH263976   3.113   1.871  52.906 -1.0892 -0.3698 -0.2745
14162TIP3    H163977   3.064   1.813  52.847  0.9005 -1.9475 -0.4910
14162TIP3    H263978   3.127   1.951  52.856 -1.6608 -0.6972 -0.9640
14163TIP3   OH263979   3.133   2.148   1.573 -0.1483 -0.1403 -0.3003
14163TIP3    H163980   3.079   2.080   1.613 -2.7486  0.7972 -1.9868
14163TIP3    H263981   3.135   2.126   1.480  1.6181  0.3996 -0.4221
14164TIP3   OH263982   2.861   2.578   8.607 -0.5425  0.3712 -0.8257
14164TIP3    H163983   2.801   2.504   8.593  1.6042 -1.7962  0.5765
14164TIP3    H263984   2.896   2.596   8.520  0.3145 -1.6258 -0.9489
14165TIP3   OH263985   1.164   2.388  42.942  0.3997 -0.0559 -0.2248
14165TIP3    H163986   1.157   2.483  42.943 -2.8199 -0.1597  1.7404
14165TIP3    H263987   1.166   2.363  43.035  0.7713 -1.9122 -0.6858
14166TIP3   OH263988   2.073   2.446   3.607 -0.2687 -0.2431  0.4766
14166TIP3    H163989   2.115   2.482   3.529  1.4637 -0.1753  1.3781
14166TIP3    H263990   2.131   2.375   3.634 -0.6493 -0.0480  1.8848
14167TIP3   OH263991   0.034   0.743  15.108  0.3548  0.4478  0.0990
14167TIP3    H163992   0.052   0.831  15.142  0.7025  0.3921  0.0626
14167TIP3    H263993  -0.037   0.756  15.045 -1.3857  0.3319  1.9562
14168TIP3   OH263994   2.385   3.299  66.111  0.5898  0.0695  0.0177
14168TIP3    H163995   2.302   3.258  66.136  0.2303  0.0689 -1.0856
14168TIP3    H263996   2.408   3.354  66.185  0.0904 -0.6575  0.7356
14169TIP3   OH263997   1.805   1.129  42.977 -0.3695  0.8318  0.1587
14169TIP3    H163998   1.736   1.104  42.917 -0.6667  2.7062 -0.3437
14169TIP3    H263999   1.807   1.225  42.974  1.9070  0.8656  0.5281
14170TIP3   OH264000   0.521   3.156  19.932 -0.2110  0.1105 -0.4659
14170TIP3    H164001   0.612   3.146  19.903  0.5602  1.5295  1.2704
14170TIP3    H264002   0.482   3.070  19.919  1.3497 -0.4905 -1.3750
14171TIP3   OH264003   0.085   2.197  58.109  0.1095  0.0903 -0.3790
14171TIP3    H164004   0.059   2.146  58.185  1.4664 -2.3792 -1.4355
14171TIP3    H264005   0.024   2.170  58.040  0.7056  0.0591 -0.9030
14172TIP3   OH264006   1.965   1.707  59.634 -0.2901  0.7913 -0.0894
14172TIP3    H164007   1.882   1.753  59.624 -1.6849 -0.8691  2.6192
14172TIP3    H264008   1.981   1.709  59.729  1.5463 -0.9655 -0.3101
14173TIP3   OH264009   3.251   1.626  59.283 -0.2139 -0.0616  0.9145
14173TIP3    H164010   3.327   1.579  59.249 -0.0240 -0.8708  2.3930
14173TIP3    H264011   3.267   1.718  59.260 -0.8009 -0.6500 -2.4203
14174TIP3   OH264012   1.210   1.937  11.344 -0.0311  0.3543  0.1166
14174TIP3    H164013   1.293   1.891  11.359 -0.3044 -0.2020 -0.0561
14174TIP3    H264014   1.219   1.976  11.258 -0.0299  0.1144  0.0080
14175TIP3   OH264015   0.460   0.476  30.650 -0.0018  0.0668 -0.4188
14175TIP3    H164016   0.549   0.472  30.617  0.3358  0.1169  0.4617
14175TIP3    H264017   0.466   0.527  30.730 -0.8269  0.0927 -0.3632
14176TIP3   OH264018   3.158   3.258  54.505  0.3048  0.0380 -0.7393
14176TIP3    H164019   3.107   3.195  54.453 -0.5525 -0.5871  0.7820
14176TIP3    H264020   3.247   3.222  54.506  0.1198 -0.4368 -1.0090
14177TIP3   OH264021   0.209   3.238  15.126  0.0394  0.2253  0.2429
14177TIP3    H164022   0.243   3.219  15.039 -1.4881  0.7081 -0.5090
14177TIP3    H264023   0.152   3.314  15.114 -2.4071 -1.3344  1.0761
14178TIP3   OH264024   1.798   2.593  60.987 -0.0688  0.0312 -0.5417
14178TIP3    H164025   1.736   2.567  60.918  0.5571 -0.9092 -0.7554
14178TIP3    H264026   1.880   2.608  60.941 -0.0502  1.0159 -0.2162
14179TIP3   OH264027   1.323   0.727  61.933 -0.3473 -0.0036  0.3670
14179TIP3    H164028   1.358   0.679  61.858  2.4932  1.1534  0.8526
14179TIP3    H264029   1.314   0.661  62.001 -0.3813 -0.5557 -0.1574
14180TIP3   OH264030   0.728   0.231  20.303  0.0186  0.0548  0.0460
14180TIP3    H164031   0.718   0.186  20.387 -2.0184 -1.2238 -0.7847
14180TIP3    H264032   0.778   0.310  20.323  0.6568 -0.8371  2.2110
14181TIP3   OH264033   1.813   1.745  11.132 -0.1865  0.2074 -0.2118
14181TIP3    H164034   1.751   1.777  11.199 -0.8743 -2.1280  0.3471
14181TIP3    H264035   1.840   1.824  11.086 -1.0034  1.7076  1.7264
14182TIP3   OH264036   1.165   0.951  52.959  0.0611 -0.0075  0.4375
14182TIP3    H164037   1.070   0.940  52.951  0.2875 -1.1853 -1.0577
14182TIP3    H264038   1.175   1.042  52.989 -1.5099  0.4906 -0.3888
14183TIP3   OH264039   0.587   0.809  66.804 -0.3160 -0.8315  0.5523
14183TIP3    H164040   0.635   0.733  66.771 -1.3166 -0.6769 -1.4134
14183TIP3    H264041   0.498   0.796  66.772 -0.7744  0.5873  1.1802
14184TIP3   OH264042   0.045   1.538  45.609  0.3607 -0.2978 -0.7245
14184TIP3    H164043   0.126   1.530  45.659  0.1953 -1.2579 -0.5822
14184TIP3    H264044   0.015   1.447  45.599 -2.6726  0.1465  2.4800
14185TIP3   OH264045   1.294   3.371  49.096  0.3080  0.3889 -0.3412
14185TIP3    H164046   1.206   3.404  49.077 -0.2130 -0.5402  0.3953
14185TIP3    H264047   1.352   3.434  49.054 -0.6886  1.4240 -0.2271
14186TIP3   OH264048   1.688   1.254  46.322 -0.5127  0.3878 -0.4348
14186TIP3    H164049   1.772   1.234  46.281 -1.0671  1.0988 -1.9975
14186TIP3    H264050   1.678   1.188  46.390  0.3988 -0.9273 -1.5359
14187TIP3   OH264051   0.863   2.336   6.465 -0.4864 -0.4422 -0.1903
14187TIP3    H164052   0.823   2.325   6.551 -1.7278 -0.7928 -0.7846
14187TIP3    H264053   0.941   2.280   6.467 -0.0570  0.1793  0.9661
14188TIP3   OH264054   1.193   1.930  21.596 -0.2704  0.2609  0.3228
14188TIP3    H164055   1.118   1.930  21.537  0.3390 -0.6590 -0.4718
14188TIP3    H264056   1.207   2.022  21.616 -1.7158  0.4374  0.6295
14189TIP3   OH264057   1.235   1.149  56.573 -0.1359  0.4115  0.3406
14189TIP3    H164058   1.191   1.064  56.586  0.9161 -0.0753  0.8269
14189TIP3    H264059   1.249   1.154  56.479 -0.2445  0.0649  0.3022
14190TIP3   OH264060   0.031   0.538  50.228  0.1671 -0.2772  0.1487
14190TIP3    H164061  -0.014   0.618  50.201 -1.2289 -1.7623 -2.2958
14190TIP3    H264062  -0.039   0.481  50.259  0.9916 -0.9759  0.7666
14191TIP3   OH264063   3.039   0.138  55.367  0.1331 -0.0082 -0.2628
14191TIP3    H164064   3.074   0.187  55.293  0.9630  0.1895  0.2467
14191TIP3    H264065   3.104   0.069  55.382 -0.6312 -0.7791 -0.4669
14192TIP3   OH264066   0.201   0.443  13.504 -0.5204  0.1200 -0.2406
14192TIP3    H164067   0.184   0.420  13.413 -0.2975  1.3199 -0.6014
14192TIP3    H264068   0.292   0.418  13.519 -0.9127 -1.2240  0.0441
14193TIP3   OH264069   2.683   1.345  53.414 -0.4327 -0.9362  0.2181
14193TIP3    H164070   2.614   1.311  53.358 -1.4881  1.0151  0.2341
14193TIP3    H264071   2.731   1.407  53.359 -0.3956 -0.2859  0.9602
14194TIP3   OH264072   2.480   2.872  46.524 -0.8317  0.0336 -1.0859
14194TIP3    H164073   2.485   2.806  46.454 -0.6874 -0.1426 -0.9123
14194TIP3    H264074   2.536   2.943  46.494 -0.9963  0.0819 -1.2773
14195TIP3   OH264075   2.300   1.107  49.993  0.1672  0.3353  0.0758
14195TIP3    H164076   2.222   1.109  49.937  0.2692 -1.7121 -0.2187
14195TIP3    H264077   2.359   1.045  49.949  1.5781  1.1182  0.7973
14196TIP3   OH264078   3.287   2.057  54.466 -0.4642 -0.2199  0.0607
14196TIP3    H164079   3.210   2.076  54.412 -2.4984 -1.9294  2.0968
14196TIP3    H264080   3.345   2.006  54.409 -0.0390  2.3892 -1.9920
14197TIP3   OH264081   1.820   1.753   7.257 -0.0864  0.4156 -0.6601
14197TIP3    H164082   1.779   1.819   7.201 -0.2776  1.8638  1.0981
14197TIP3    H264083   1.904   1.791   7.282  0.2452 -0.4539 -0.4193
14198TIP3   OH264084   3.088   3.153  10.898 -0.0702  0.2121  0.3758
14198TIP3    H164085   3.162   3.211  10.882  0.3007 -0.3150  0.1592
14198TIP3    H264086   3.100   3.122  10.987  0.4986 -0.6110  0.0279
14199TIP3   OH264087   1.319   2.958   2.619 -0.2682  0.1976  0.1896
14199TIP3    H164088   1.332   2.996   2.706  3.1407 -1.7313  0.6524
14199TIP3    H264089   1.389   2.895   2.608 -2.1746 -1.6829 -2.9259
14200TIP3   OH264090   0.984   1.461  22.930  0.5874 -0.2021  0.3547
14200TIP3    H164091   1.035   1.495  22.857  0.0238 -2.1650 -1.0314
14200TIP3    H264092   1.032   1.383  22.958 -0.0761 -0.3925  0.9970
14201TIP3   OH264093   2.704   0.811  60.171 -0.2204 -0.7305 -0.0645
14201TIP3    H164094   2.626   0.809  60.227 -0.2226  1.5288  0.0993
14201TIP3    H264095   2.674   0.777  60.087 -1.3247 -0.0942  0.0575
14202TIP3   OH264096   2.563   2.640  56.750 -0.4022 -0.3243  0.3476
14202TIP3    H164097   2.608   2.678  56.826 -1.2740 -1.0309  1.2473
14202TIP3    H264098   2.476   2.679  56.751 -0.6726 -0.9161  0.1554
14203TIP3   OH264099   0.638   1.432  46.456 -0.6890  0.0057  0.4128
14203TIP3    H164100   0.575   1.361  46.443 -0.9578  0.2361  0.4304
14203TIP3    H264101   0.585   1.505  46.490 -0.4670  0.2960  0.1494
14204TIP3   OH264102   2.010   3.352   6.358  0.0674 -0.0060  0.2062
14204TIP3    H164103   1.973   3.285   6.300 -1.8248  1.3554 -0.2454
14204TIP3    H264104   2.099   3.320   6.377  0.0438 -1.4944 -1.8012
14205TIP3   OH264105   3.355   2.002  15.180 -0.1806 -0.3341 -0.3144
14205TIP3    H164106   3.357   1.974  15.089  1.6787 -1.5647  0.0468
14205TIP3    H264107   3.268   1.977  15.211 -1.9039  2.5011 -2.3671
14206TIP3   OH264108   2.963   1.697  65.336  0.0129 -0.3742  0.3672
14206TIP3    H164109   3.028   1.744  65.390 -1.2211  1.1097  0.6396
14206TIP3    H264110   2.883   1.749  65.344 -1.1716 -2.0324 -0.1403
14207TIP3   OH264111   1.825   3.369  43.111  0.4895 -0.6088  0.2551
14207TIP3    H164112   1.819   3.338  43.021  0.4665 -0.7254  0.2971
14207TIP3    H264113   1.762   3.315  43.160 -0.3248  0.1956  0.1328
14208TIP3   OH264114   0.791   1.210  12.129  0.1591  0.3473  0.1534
14208TIP3    H164115   0.735   1.288  12.122  3.0368  2.5517  0.0807
14208TIP3    H264116   0.878   1.240  12.104  1.6265 -2.6931  1.1275
14209TIP3   OH264117   0.544   1.739  11.141 -0.6727 -0.2996 -0.1523
14209TIP3    H164118   0.595   1.709  11.217 -1.0019  1.7455  0.9276
14209TIP3    H264119   0.603   1.797  11.094 -1.2697  0.3468 -0.1174
14210TIP3   OH264120   1.082   2.836  39.107  0.1258 -0.0920 -0.2511
14210TIP3    H164121   1.003   2.845  39.161  0.3529  1.3607 -0.1275
14210TIP3    H264122   1.139   2.907  39.136  1.2980 -0.8358 -0.6737
14211TIP3   OH264123   1.920   0.361  13.465 -0.6146 -0.7586 -0.3010
14211TIP3    H164124   1.993   0.416  13.438 -1.3428 -0.5004 -1.8892
14211TIP3    H264125   1.952   0.272  13.451 -0.5625 -0.6503 -0.9231
14212TIP3   OH264126   1.308   0.155  59.426 -0.4174 -0.2167  0.6297
14212TIP3    H164127   1.271   0.160  59.338 -1.3940  0.7689  1.0562
14212TIP3    H264128   1.338   0.244  59.444  0.4244 -0.5696  1.0371
14213TIP3   OH264129   0.926   2.823  57.570  0.3743 -0.0939 -0.0257
14213TIP3    H164130   1.014   2.839  57.604  0.8184  1.1598 -1.6037
14213TIP3    H264131   0.882   2.908  57.577 -0.1110 -0.2641 -0.8803
14214TIP3   OH264132   2.703   0.095   1.980  0.4136 -0.1158  0.1828
14214TIP3    H164133   2.787   0.051   1.995  0.3234 -0.2965  0.1576
14214TIP3    H264134   2.671   0.058   1.898  0.2571 -0.1281  0.2496
14215TIP3   OH264135   2.807   0.091  44.165  0.1348  0.1476 -0.0218
14215TIP3    H164136   2.780   0.058  44.080  0.0082 -0.6471  0.3222
14215TIP3    H264137   2.882   0.037  44.189 -2.1263 -2.3171  2.1066
14216TIP3   OH264138   3.040   0.953  11.555  0.3386  0.2922  0.0433
14216TIP3    H164139   3.120   0.931  11.508  0.0427 -0.6390 -0.0444
14216TIP3    H264140   2.980   0.985  11.487 -0.4394 -1.9994 -0.4383
14217TIP3   OH264141   3.258   0.370  63.526  0.3674  0.0479  0.5532
14217TIP3    H164142   3.204   0.419  63.588  0.2014 -0.2757  0.6660
14217TIP3    H264143   3.242   0.412  63.441  1.7518  1.4758  0.9466
14218TIP3   OH264144   0.616   2.398   2.651  0.1973  0.6703 -0.8931
14218TIP3    H164145   0.554   2.351   2.595 -0.9402  0.6608  0.3414
14218TIP3    H264146   0.563   2.434   2.721  1.6920 -0.0543  0.6833
14219TIP3   OH264147   1.170   1.626  58.135 -0.1728 -0.6131  0.1682
14219TIP3    H164148   1.246   1.574  58.158  0.9074 -0.8416 -3.3218
14219TIP3    H264149   1.111   1.565  58.090 -2.1547 -0.2686  2.0971
14220TIP3   OH264150   3.181   3.382  61.801 -0.0933  0.0549  0.2189
14220TIP3    H164151   3.161   3.467  61.763 -0.4530 -0.3994 -0.6363
14220TIP3    H264152   3.108   3.363  61.859  0.0563  0.3844  0.5188
14221TIP3   OH264153   3.448   3.275  16.485 -0.4266  0.1315 -0.0509
14221TIP3    H164154   3.434   3.190  16.527 -1.0331 -0.2753 -1.0353
14221TIP3    H264155   3.498   3.326  16.550  0.4866 -1.1682  0.3123
14222TIP3   OH264156   0.043   0.825  55.065 -0.0576  0.2391 -0.0278
14222TIP3    H164157   0.124   0.785  55.033 -0.5619 -0.9871  0.1788
14222TIP3    H264158  -0.013   0.751  55.088 -0.4326  1.0542  1.8960
14223TIP3   OH264159   2.626   3.406   1.237 -0.3970  0.3518 -0.3063
14223TIP3    H164160   2.636   3.420   1.143 -1.4292  1.0441 -0.3307
14223TIP3    H264161   2.544   3.356   1.245 -1.6691  2.3948  0.3291
14224TIP3   OH264162   1.768   0.063  45.682  0.1970  0.1003 -1.2297
14224TIP3    H164163   1.739   0.113  45.605  0.7143  1.5883 -0.4778
14224TIP3    H264164   1.808   0.127  45.740 -1.5549 -0.6897  1.0145
14225TIP3   OH264165   1.441   2.382  38.655 -0.6219  0.7746 -0.0123
14225TIP3    H164166   1.536   2.384  38.647 -0.6530  3.5234 -0.7964
14225TIP3    H264167   1.411   2.342  38.574 -0.1692  0.0073  0.1845
14226TIP3   OH264168   2.000   0.599  46.514  0.1724 -0.4191  0.8150
14226TIP3    H164169   2.003   0.690  46.544 -0.7089  0.1065 -0.5569
14226TIP3    H264170   1.926   0.561  46.562 -0.3043 -0.0119  0.4189
14227TIP3   OH264171   2.716   0.873  46.889 -0.4410 -0.2289  0.5540
14227TIP3    H164172   2.800   0.912  46.863 -0.7494  1.0218  1.3403
14227TIP3    H264173   2.727   0.779  46.874 -0.0344  0.2004 -2.5072
14228TIP3   OH264174   2.718   1.405  12.911  0.0972  0.6113  0.2806
14228TIP3    H164175   2.669   1.464  12.855  0.1496  1.0870  0.7259
14228TIP3    H264176   2.793   1.378  12.857 -0.0898  0.7138 -0.0318
14229TIP3   OH264177   1.755   2.963  18.006 -0.1073  0.0623  0.4366
14229TIP3    H164178   1.734   3.050  18.040 -0.4507 -0.4699  1.6310
14229TIP3    H264179   1.806   2.922  18.075 -1.1442 -1.1923  0.4878
14230TIP3   OH264180   1.555   0.021  53.424  0.4841  0.0359  0.4156
14230TIP3    H164181   1.515  -0.065  53.424  2.4251 -0.9264  0.6783
14230TIP3    H264182   1.540   0.055  53.513 -1.8716  0.8277 -0.2081
14231TIP3   OH264183   0.640   1.600   6.208 -0.3656 -0.2480  0.0820
14231TIP3    H164184   0.591   1.677   6.181 -0.4186 -0.0784  0.6413
14231TIP3    H264185   0.725   1.634   6.237 -0.6198 -0.3163  0.9402
14232TIP3   OH264186   0.983   2.971  39.621 -0.1691 -0.6551 -0.5773
14232TIP3    H164187   1.023   2.914  39.688  0.1324  0.1737 -0.0385
14232TIP3    H264188   1.000   2.926  39.538 -0.8769 -1.8936 -0.0702
14233TIP3   OH264189   1.788   1.544   1.849 -0.2953 -0.1543  0.1870
14233TIP3    H164190   1.818   1.528   1.759 -2.7590 -0.1302 -0.7280
14233TIP3    H264191   1.727   1.472   1.867 -0.6889  0.4617  1.4231
14234TIP3   OH264192   1.196   1.447   6.353 -0.3342 -0.2194 -0.9412
14234TIP3    H164193   1.179   1.539   6.335  0.6459  0.4040  1.0712
14234TIP3    H264194   1.199   1.440   6.448 -4.2885 -3.1102 -0.7737
14235TIP3   OH264195   2.895   2.325   7.842  0.3762 -0.1281  0.1358
14235TIP3    H164196   2.888   2.408   7.889 -3.5516 -0.6300  0.7739
14235TIP3    H264197   2.869   2.258   7.906  1.4381 -1.6434 -0.9366
14236TIP3   OH264198   0.270   1.229  63.074  0.6778  0.4072  0.7573
14236TIP3    H164199   0.304   1.170  63.141  1.8234 -2.2208 -1.9335
14236TIP3    H264200   0.348   1.266  63.032  0.1994 -1.1417 -1.6755
14237TIP3   OH264201   2.134   3.378  21.729  0.4736 -0.1643  0.1223
14237TIP3    H164202   2.091   3.301  21.768 -0.4568  0.6454  0.7474
14237TIP3    H264203   2.211   3.393  21.784 -0.6243  0.7445  1.4855
14238TIP3   OH264204   0.220   0.192  63.215 -0.4435  0.0510  0.9492
14238TIP3    H164205   0.165   0.263  63.181 -0.6197 -0.1221  0.8708
14238TIP3    H264206   0.307   0.230  63.221 -0.4784  0.1892  0.6298
14239TIP3   OH264207   0.379   3.383  56.956  0.2931 -0.0704  0.8866
14239TIP3    H164208   0.373   3.288  56.968 -2.2809  0.2153  2.7448
14239TIP3    H264209   0.452   3.410  57.011 -0.8998 -0.7098  2.8877
14240TIP3   OH264210   2.916   1.369   4.438 -0.6952  0.0650 -0.0908
14240TIP3    H164211   2.998   1.353   4.485 -1.6527 -1.6701  1.1231
14240TIP3    H264212   2.932   1.336   4.350 -0.0492 -0.1131  0.0866
14241TIP3   OH264213   2.836   1.425  53.987  0.1706 -0.0043  0.2181
14241TIP3    H164214   2.928   1.440  53.963 -0.1895  1.3914 -0.3910
14241TIP3    H264215   2.803   1.367  53.918  0.7391 -1.0325  0.7849
14242TIP3   OH264216   0.823   1.992   5.125  0.4020  0.2477  0.1832
14242TIP3    H164217   0.729   1.987   5.145  0.2013  2.8161  0.1810
14242TIP3    H264218   0.859   2.047   5.195  1.7135  0.1811 -0.4202
14243TIP3   OH264219   2.843   0.995  57.418  0.0569  0.0072 -0.7139
14243TIP3    H164220   2.923   0.977  57.368  0.0057  1.2579 -1.2814
14243TIP3    H264221   2.852   1.087  57.444 -1.2745  0.2093 -0.9335
14244TIP3   OH264222   3.433   1.427   6.602  0.1745 -0.4978  0.5084
14244TIP3    H164223   3.375   1.396   6.671  0.3798 -1.0969  0.4120
14244TIP3    H264224   3.461   1.348   6.556 -2.4064 -0.0022 -2.2631
14245TIP3   OH264225   2.197   1.526  62.552 -0.7887 -0.3309  0.0021
14245TIP3    H164226   2.118   1.480  62.581 -0.3699 -1.2341 -0.2664
14245TIP3    H264227   2.269   1.468  62.576 -0.0259  1.2327  1.8363
14246TIP3   OH264228   2.843   0.821  17.906  0.0518 -0.1582 -0.5878
14246TIP3    H164229   2.815   0.730  17.901  0.2185 -0.4032  1.6761
14246TIP3    H264230   2.779   0.869  17.854 -1.2505 -1.3660 -0.1571
14247TIP3   OH264231   0.124   2.795  13.694 -0.7096  0.3690  0.8714
14247TIP3    H164232   0.035   2.774  13.663 -0.8106  1.1043  0.6469
14247TIP3    H264233   0.148   2.874  13.646  0.4015 -0.2848  0.3101
14248TIP3   OH264234   0.284   3.045  46.356 -0.0599  0.1362 -0.0330
14248TIP3    H164235   0.246   3.104  46.291 -2.3927 -2.4505 -1.2312
14248TIP3    H264236   0.241   3.069  46.438  0.1070  0.9860 -0.1805
14249TIP3   OH264237   0.724   2.568  10.088  0.1279  0.1018 -0.1363
14249TIP3    H164238   0.785   2.628  10.046 -0.3386  0.6250 -0.0821
14249TIP3    H264239   0.777   2.490  10.109  1.3022  1.3407  1.8009
14250TIP3   OH264240   2.291   3.284  10.426 -0.2950 -0.3668  0.4067
14250TIP3    H164241   2.256   3.314  10.510  0.1612 -0.5379  0.6620
14250TIP3    H264242   2.379   3.253  10.447  0.1548  0.3917 -0.2779
14251TIP3   OH264243   1.802   0.507  17.063 -0.1170 -0.1470 -0.1592
14251TIP3    H164244   1.858   0.472  17.132 -0.1235  0.6131  0.2508
14251TIP3    H264245   1.824   0.601  17.060  2.1520 -0.5878 -3.2707
14252TIP3   OH264246   2.134   1.786  52.718 -0.8992  0.4952  0.3566
14252TIP3    H164247   2.132   1.845  52.794  0.4348 -0.0808  0.8569
14252TIP3    H264248   2.224   1.791  52.686 -0.9562 -0.7463 -0.0267
14253TIP3   OH264249   2.499   2.703  15.789 -0.7673 -0.2563  0.3331
14253TIP3    H164250   2.557   2.688  15.714 -1.8563  0.9491 -0.8282
14253TIP3    H264251   2.426   2.643  15.776 -1.3103  0.4511 -0.0110
14254TIP3   OH264252   0.808   1.161  48.606 -0.3593 -0.0599  0.1315
14254TIP3    H164253   0.805   1.188  48.698  0.2194 -2.6029  0.9693
14254TIP3    H264254   0.715   1.154  48.581 -0.5550 -0.7245  0.9831
14255TIP3   OH264255   1.031   3.315  56.732  0.5882 -0.3271  0.2284
14255TIP3    H164256   1.004   3.302  56.822 -0.4620 -3.7969 -0.4330
14255TIP3    H264257   0.949   3.324  56.683  1.0798  0.1348 -0.5279
14256TIP3   OH264258   1.061   0.026  20.310 -0.0222 -0.4050 -0.0426
14256TIP3    H164259   0.984  -0.006  20.357  0.2450  1.4830  1.8773
14256TIP3    H264260   1.122  -0.047  20.312 -0.5879 -0.8847  1.3312
14257TIP3   OH264261   3.313   0.647  17.037 -0.0840  0.5977  0.0985
14257TIP3    H164262   3.319   0.627  17.130  0.5545  2.3944  0.4813
14257TIP3    H264263   3.222   0.628  17.014 -0.2830  0.2606  1.1154
14258TIP3   OH264264   3.153   2.082  52.429  0.3567 -0.4310  0.2202
14258TIP3    H164265   3.207   2.114  52.356  0.9351 -0.7908  0.4872
14258TIP3    H264266   3.180   1.992  52.442 -1.3997 -1.1188 -0.6348
14259TIP3   OH264267   1.328   1.741  50.040 -0.3425 -0.6592  0.4796
14259TIP3    H164268   1.318   1.693  49.958 -0.5653 -1.9685  1.2369
14259TIP3    H264269   1.377   1.681  50.097  1.8294  1.1011  0.6101
14260TIP3   OH264270   0.953   3.423  17.321  0.6072 -0.2501  0.2098
14260TIP3    H164271   1.019   3.354  17.316 -1.3122 -2.3076  1.0913
14260TIP3    H264272   0.901   3.401  17.399 -0.8730  1.4710 -0.2089
14261TIP3   OH264273   1.721   2.115  57.164  0.2706 -0.5796  0.8040
14261TIP3    H164274   1.723   2.150  57.074 -2.6707 -0.0983  0.8262
14261TIP3    H264275   1.788   2.046  57.164  1.4765  0.4658 -1.2562
14262TIP3   OH264276   0.669   3.341  12.071 -0.4016 -0.0528 -0.2852
14262TIP3    H164277   0.737   3.385  12.122  0.2953 -1.6136  0.1698
14262TIP3    H264278   0.601   3.321  12.135 -1.0299  0.9456 -0.6229
14263TIP3   OH264279   3.255   1.313   7.495 -0.4369 -0.1256  0.4371
14263TIP3    H164280   3.262   1.229   7.540 -0.9236 -0.0738  0.6105
14263TIP3    H264281   3.226   1.375   7.563  0.1687  0.2395  0.3726
14264TIP3   OH264282   0.679   0.191   7.578  0.4687 -0.0728 -0.2187
14264TIP3    H164283   0.703   0.244   7.502  0.0871  0.7423  0.2163
14264TIP3    H264284   0.763   0.173   7.621  0.6848 -0.5152 -0.7988
14265TIP3   OH264285   2.947   0.648  51.508  0.0536 -0.2638  0.2406
14265TIP3    H164286   2.943   0.704  51.430  2.9345  1.1252  0.9730
14265TIP3    H264287   3.039   0.625  51.517 -0.6308 -2.8523  1.6235
14266TIP3   OH264288   0.650   2.447  20.327 -0.4959 -0.2842 -0.2834
14266TIP3    H164289   0.626   2.375  20.269  1.2645 -0.3269 -1.0067
14266TIP3    H264290   0.645   2.409  20.415  1.3319 -1.6059 -0.7023
14267TIP3   OH264291   1.769   0.355  19.780  0.1664  0.3045 -0.6017
14267TIP3    H164292   1.756   0.319  19.868 -3.7516 -2.3575 -1.9542
14267TIP3    H264293   1.752   0.449  19.790 -0.4119  0.0431  1.4417
14268TIP3   OH264294   1.565   3.112   8.361 -0.6018  0.2381  0.2770
14268TIP3    H164295   1.515   3.193   8.354  0.6475  0.9800 -0.4190
14268TIP3    H264296   1.655   3.137   8.341 -0.0222 -1.1551  0.9473
14269TIP3   OH264297   2.649   2.473   4.291  0.0860 -0.0011 -0.4486
14269TIP3    H164298   2.719   2.415   4.262  0.1563 -1.3906  2.1850
14269TIP3    H264299   2.570   2.419   4.289 -0.3870  0.6923 -0.7233
14270TIP3   OH264300   2.141   3.146   1.173 -0.0642 -0.1181  0.7728
14270TIP3    H164301   2.181   3.071   1.218 -1.8441 -1.5327  0.1447
14270TIP3    H264302   2.118   3.206   1.244  2.7030  0.6042  1.1769
14271TIP3   OH264303   0.522   2.337  18.819 -0.0826 -0.0415 -0.9351
14271TIP3    H164304   0.588   2.376  18.762 -1.0579  2.2301 -0.6158
14271TIP3    H264305   0.570   2.315  18.899  0.3311  1.6610 -0.6738
14272TIP3   OH264306   2.595   2.613  60.358 -0.5185  0.2973  0.2769
14272TIP3    H164307   2.555   2.555  60.422 -0.0462 -0.9285 -0.4961
14272TIP3    H264308   2.560   2.699  60.379 -1.0209 -0.2062  1.6372
14273TIP3   OH264309   0.667   2.855  20.607 -0.3698 -0.3807 -0.0904
14273TIP3    H164310   0.639   2.940  20.573  0.7169  0.5091  1.1596
14273TIP3    H264311   0.703   2.874  20.693  0.4149 -2.0388 -0.0156
14274TIP3   OH264312   2.131   1.067  55.999  1.0334  0.0943  0.1615
14274TIP3    H164313   2.184   1.074  55.919 -0.2604  3.1496 -0.5928
14274TIP3    H264314   2.185   1.105  56.067  1.4428 -0.8303  0.3606
14275TIP3   OH264315   1.285   0.793   9.455 -0.1033 -0.3007 -0.4153
14275TIP3    H164316   1.330   0.709   9.465  0.4046 -0.0058 -0.1866
14275TIP3    H264317   1.193   0.774   9.475  0.1158 -0.6755  0.2587
14276TIP3   OH264318   0.514   2.983  52.697  0.1944  0.3735 -0.0826
14276TIP3    H164319   0.435   3.036  52.690 -0.9069 -1.1237  0.5236
14276TIP3    H264320   0.547   2.999  52.785 -1.0427 -1.0898  0.6970
14277TIP3   OH264321   0.468   2.584  61.763 -0.0233  0.9739 -0.2775
14277TIP3    H164322   0.473   2.489  61.767  0.6055  1.0306  2.1311
14277TIP3    H264323   0.377   2.604  61.782 -0.6783  0.8842 -2.8960
14278TIP3   OH264324   1.651   2.571  60.730 -0.1351 -0.1058 -0.4153
14278TIP3    H164325   1.692   2.559  60.644  0.6265 -3.1383  0.2467
14278TIP3    H264326   1.635   2.665  60.736  1.6098  0.4691 -3.0427
14279TIP3   OH264327   0.979   1.962  54.955 -0.6722  0.4219 -0.0293
14279TIP3    H164328   1.031   2.023  54.903  0.1629  0.2542  0.5976
14279TIP3    H264329   0.888   1.984  54.934 -0.3851 -0.0468 -2.0604
14280TIP3   OH264330   0.928   1.984   0.814  0.3382 -0.3310  0.2039
14280TIP3    H164331   0.899   1.949   0.899  0.0866  1.4888  0.9173
14280TIP3    H264332   1.023   1.971   0.815  0.5940  1.2764  1.6042
14281TIP3   OH264333   0.973   1.863   5.775  1.0838 -0.3225  0.3198
14281TIP3    H164334   0.976   1.866   5.871  2.0109  2.9250  0.3218
14281TIP3    H264335   0.884   1.834   5.755  0.7758 -0.8011  2.1369
14282TIP3   OH264336   2.710   1.055  14.808 -0.3891 -0.0344 -0.1303
14282TIP3    H164337   2.700   1.149  14.820 -1.1082 -0.0760 -0.3305
14282TIP3    H264338   2.623   1.025  14.782 -0.1285 -0.7309 -0.2263
14283TIP3   OH264339   2.084   2.656  59.730 -0.1018  0.2404  0.1269
14283TIP3    H164340   2.072   2.742  59.768  0.6513  0.3435  0.1397
14283TIP3    H264341   2.099   2.673  59.637 -0.0866  0.1125  0.1065
14284TIP3   OH264342   2.958   1.053   7.510  0.0458  0.2925  0.4208
14284TIP3    H164343   3.015   1.035   7.435  1.3960 -0.8860  1.6836
14284TIP3    H264344   2.977   1.144   7.533  0.1526  0.4362 -0.2076
14285TIP3   OH264345   0.182   2.940  11.871 -0.1656  0.5560 -0.0109
14285TIP3    H164346   0.135   2.908  11.794  3.8573  0.8369 -2.8924
14285TIP3    H264347   0.219   2.861  11.911 -0.5828  0.5930  0.4596
14286TIP3   OH264348   1.384   1.904  58.722 -0.4390 -0.3492  0.8830
14286TIP3    H164349   1.472   1.877  58.750 -0.1897 -0.8929 -0.3069
14286TIP3    H264350   1.400   1.966  58.651 -1.0323  1.7162  2.4608
14287TIP3   OH264351   0.233   2.331  66.582  0.1110  0.1586  0.2612
14287TIP3    H164352   0.213   2.239  66.564  0.3776  0.0766  0.3784
14287TIP3    H264353   0.302   2.327  66.649 -0.0278  0.4430  0.4243
14288TIP3   OH264354   0.729   1.287  64.552  0.0630 -0.3906  0.3609
14288TIP3    H164355   0.809   1.270  64.503 -0.0650  1.6399 -0.6447
14288TIP3    H264356   0.661   1.292  64.485 -1.0675 -2.5672  1.2327
14289TIP3   OH264357   0.800   2.941  14.805  0.3875 -0.2219  0.9347
14289TIP3    H164358   0.798   2.924  14.899 -0.7589 -0.3095  0.9059
14289TIP3    H264359   0.893   2.940  14.782  0.6026 -1.7451  1.7904
14290TIP3   OH264360   0.017   0.848  67.392  0.4611  0.6376  0.1802
14290TIP3    H164361  -0.019   0.852  67.303  1.4241  1.5467 -0.1889
14290TIP3    H264362   0.086   0.915  67.393  1.1276 -0.0331  1.3127
14291TIP3   OH264363   0.835   2.055  61.007 -0.2437  0.1156 -0.0983
14291TIP3    H164364   0.803   2.009  61.085  0.3873  0.7640  0.5583
14291TIP3    H264365   0.921   2.089  61.032  0.2810 -0.2474 -1.3097
14292TIP3   OH264366   0.112   2.682   0.119  0.4302 -0.4601  0.3143
14292TIP3    H164367   0.017   2.685   0.128  0.4627  0.0303  0.5541
14292TIP3    H264368   0.145   2.695   0.208  0.7384  1.7995 -0.0671
14293TIP3   OH264369   2.970   1.621  11.741  0.5906  0.8311 -0.7194
14293TIP3    H164370   3.054   1.595  11.703  1.0133 -1.3685  1.4748
14293TIP3    H264371   2.978   1.599  11.834 -3.0318 -1.3337 -0.7240
14294TIP3   OH264372   2.065   0.460  47.827  0.1451  0.1343 -0.2173
14294TIP3    H164373   2.140   0.463  47.767 -0.4696 -1.1213 -1.0884
14294TIP3    H264374   2.092   0.515  47.901  1.8491 -0.1353 -0.5845
14295TIP3   OH264375   2.124   0.568  43.878  0.3151  0.1711  0.2158
14295TIP3    H164376   2.092   0.600  43.794  0.6541  0.5112  0.2161
14295TIP3    H264377   2.218   0.557  43.865  0.3736  0.2636  0.5602
14296TIP3   OH264378   1.736   2.300  63.427  0.3676  0.5227 -0.1398
14296TIP3    H164379   1.769   2.235  63.365  1.3966  2.5169 -1.8060
14296TIP3    H264380   1.655   2.332  63.387 -1.2494 -1.0501  1.6619
14297TIP3   OH264381   2.451   1.875  65.004 -0.0629 -0.1617 -0.4142
14297TIP3    H164382   2.506   1.887  65.081  1.0276 -1.6702 -0.9206
14297TIP3    H264383   2.411   1.961  64.990 -0.2186  0.1727  1.7500
14298TIP3   OH264384   3.315   0.598  20.822 -0.1039  0.8053  0.0268
14298TIP3    H164385   3.386   0.625  20.763  0.6973  0.7250  0.9417
14298TIP3    H264386   3.272   0.527  20.775  2.1514 -1.0594  0.6050
14299TIP3   OH264387   1.318   2.522  20.935  0.3636  0.6574 -0.2323
14299TIP3    H164388   1.333   2.428  20.929 -1.1422  0.3484  0.3839
14299TIP3    H264389   1.305   2.539  21.028 -1.5851  1.0699 -0.5256
14300TIP3   OH264390   1.502   0.372   6.519  0.6138 -0.6856 -0.6334
14300TIP3    H164391   1.488   0.371   6.614 -0.4481 -0.8902 -0.7706
14300TIP3    H264392   1.592   0.400   6.508  0.7537 -0.6599  0.4410
14301TIP3   OH264393   2.589   0.933   7.933  0.2036 -0.1462  0.0242
14301TIP3    H164394   2.608   0.938   8.027  0.4194  0.1939 -0.0344
14301TIP3    H264395   2.587   0.839   7.914 -0.8492 -0.2453  0.5648
14302TIP3   OH264396   3.295   0.580   4.319 -0.0846 -0.0807 -0.1989
14302TIP3    H164397   3.212   0.596   4.272 -0.8696 -0.1223  1.1271
14302TIP3    H264398   3.293   0.641   4.392  1.1018 -0.0486 -0.1767
14303TIP3   OH264399   2.640   3.247   2.699 -0.1902  0.1001 -0.4509
14303TIP3    H164400   2.677   3.230   2.612  0.7199  0.2076 -0.0978
14303TIP3    H264401   2.587   3.326   2.687 -1.0973 -0.5910 -1.1736
14304TIP3   OH264402   0.719   2.066  60.379 -0.0029  0.0348  0.3142
14304TIP3    H164403   0.754   2.130  60.442 -0.6736  0.1187  0.6065
14304TIP3    H264404   0.631   2.098  60.359 -0.5366 -1.0513  0.8283
14305TIP3   OH264405   2.507   0.871  60.357 -0.1214  0.4563 -0.0859
14305TIP3    H164406   2.541   0.898  60.442 -1.7257  1.1148  0.4028
14305TIP3    H264407   2.523   0.946  60.299 -3.3489  2.1536  0.9280
14306TIP3   OH264408   2.807   0.219  51.853  0.7318  0.6516 -0.4745
14306TIP3    H164409   2.721   0.187  51.880  1.2746 -0.0580  0.5114
14306TIP3    H264410   2.789   0.293  51.796 -0.5584  2.1028  1.6527
14307TIP3   OH264411   1.178   2.663  43.326 -0.2138 -0.3134  0.4214
14307TIP3    H164412   1.258   2.639  43.280 -0.7552 -1.2603 -0.0571
14307TIP3    H264413   1.107   2.641  43.264 -0.8099  1.6333  0.3296
14308TIP3   OH264414   1.995   0.930  11.859 -0.3285 -0.1226 -0.2170
14308TIP3    H164415   2.067   0.877  11.892  0.5345  0.6639 -0.7606
14308TIP3    H264416   2.007   1.016  11.900 -1.5319 -0.2481  0.4341
14309TIP3   OH264417   1.194   1.572   2.591  0.1601 -0.1243 -0.7241
14309TIP3    H164418   1.217   1.602   2.503  0.8360  0.1805 -0.4530
14309TIP3    H264419   1.201   1.477   2.587  1.1761 -0.0655 -0.7546
14310TIP3   OH264420   2.337   3.173  63.999 -0.6725 -0.4977  0.3794
14310TIP3    H164421   2.320   3.123  63.919 -1.4351  0.7945 -0.3125
14310TIP3    H264422   2.259   3.157  64.053 -0.6877 -0.4581  0.3695
14311TIP3   OH264423   3.367   2.277   1.143 -0.6666 -0.3616  0.1906
14311TIP3    H164424   3.412   2.240   1.067  1.4874  0.4055  1.0223
14311TIP3    H264425   3.381   2.213   1.213  0.4830  0.5647  0.8442
14312TIP3   OH264426   3.437   0.830  48.267  0.3425 -0.4406  0.0953
14312TIP3    H164427   3.382   0.907  48.254 -0.0986 -0.2614  2.5341
14312TIP3    H264428   3.502   0.834  48.196 -0.0102  1.8563 -0.1742
14313TIP3   OH264429   3.001   3.148  20.222  0.3349 -0.3420 -0.2523
14313TIP3    H164430   2.962   3.146  20.309 -1.1642 -1.1208 -0.9146
14313TIP3    H264431   2.951   3.214  20.174  1.7685  0.7797 -0.2828
14314TIP3   OH264432   1.711   0.910  10.018  0.0617 -0.1984  0.4149
14314TIP3    H164433   1.658   0.882   9.944  0.5481  0.9249 -0.3816
14314TIP3    H264434   1.773   0.973   9.982 -1.1434  2.1448  2.1116
14315TIP3   OH264435   0.297   2.194  13.513 -0.0775 -0.2519  0.5675
14315TIP3    H164436   0.326   2.228  13.598  0.2932 -0.2913  0.4586
14315TIP3    H264437   0.377   2.189  13.461  0.0015 -1.8690  0.7822
14316TIP3   OH264438   3.262   2.259  49.104  0.2951  0.1155  0.6419
14316TIP3    H164439   3.261   2.309  49.186 -0.6710 -0.5439  1.0527
14316TIP3    H264440   3.295   2.173  49.128 -1.1850 -0.4910  0.6203
14317TIP3   OH264441   0.748   3.213  10.924 -0.1063  0.2657 -0.0666
14317TIP3    H164442   0.696   3.156  10.868  1.6275  0.1942 -1.7440
14317TIP3    H264443   0.684   3.259  10.978 -1.9315  0.3534 -2.1388
14318TIP3   OH264444   2.650   2.647  14.043 -0.4613 -0.0980 -0.5893
14318TIP3    H164445   2.603   2.573  14.005 -0.7139 -0.5328  0.5286
14318TIP3    H264446   2.602   2.669  14.122 -0.1414  1.0015 -0.6799
14319TIP3   OH264447   0.101   3.067   8.179  0.1422 -0.3561  0.0961
14319TIP3    H164448   0.132   3.029   8.261  0.2627  1.3483  0.8933
14319TIP3    H264449   0.013   3.101   8.199  0.7102  1.3090 -0.0294
14320TIP3   OH264450   1.432   1.430  58.500 -0.2866  0.2885 -0.2848
14320TIP3    H164451   1.451   1.349  58.547 -1.4872  1.3330  2.2143
14320TIP3    H264452   1.491   1.429  58.425  1.0412 -1.9928  0.6908
14321TIP3   OH264453   0.797   1.809  15.983  0.0385  0.1761 -0.4410
14321TIP3    H164454   0.794   1.809  16.078  0.0976  1.3624 -0.4213
14321TIP3    H264455   0.772   1.898  15.958 -0.7731 -0.3400 -1.5647
14322TIP3   OH264456   0.536   0.574  16.722 -0.1094 -0.5606  0.0549
14322TIP3    H164457   0.542   0.481  16.743  1.0970 -0.2138  1.4302
14322TIP3    H264458   0.624   0.608  16.739 -0.1955  0.6270 -1.6030
14323TIP3   OH264459   0.955   3.025   1.581 -0.2396 -0.0514 -0.2198
14323TIP3    H164460   0.992   3.066   1.503  0.3260 -1.9344 -1.0098
14323TIP3    H264461   0.884   2.971   1.548  1.0397 -2.1655  0.2738
14324TIP3   OH264462   0.274   1.725  11.151  0.7313 -0.3549 -0.3377
14324TIP3    H164463   0.367   1.714  11.132  0.8532 -0.6252  0.3830
14324TIP3    H264464   0.235   1.751  11.067  1.8176  2.0642 -0.1806
14325TIP3   OH264465   0.586   0.389  14.498  0.8480  0.2398  0.5575
14325TIP3    H164466   0.515   0.428  14.446  1.2737  0.4469  0.1234
14325TIP3    H264467   0.662   0.393  14.440  0.9937 -0.8564  0.6668
14326TIP3   OH264468   1.152   1.148  16.177 -0.4116 -0.8670  0.3054
14326TIP3    H164469   1.173   1.234  16.212  1.1469 -1.4276  0.8122
14326TIP3    H264470   1.061   1.132  16.205 -1.4698  1.3898 -1.4713
14327TIP3   OH264471   1.271   2.735   3.875  0.0489 -0.6975  0.8017
14327TIP3    H164472   1.332   2.777   3.935 -0.1692 -0.3064  0.7554
14327TIP3    H264473   1.188   2.730   3.923 -0.1327 -0.3593  0.5287
14328TIP3   OH264474   3.415   1.845  64.737 -1.1247 -0.3424 -0.0973
14328TIP3    H164475   3.496   1.891  64.713 -0.7655  0.7248  2.6933
14328TIP3    H264476   3.420   1.762  64.691  2.0124 -0.6608  0.5683
14329TIP3   OH264477   1.453   1.310  35.401 -0.3776  0.8556 -0.6157
14329TIP3    H164478   1.416   1.249  35.337 -0.4628  0.7879 -0.5018
14329TIP3    H264479   1.527   1.263  35.439 -0.3447  0.8856 -0.6429
14330TIP3   OH264480   2.490   1.146  10.572  0.1008 -0.1128  0.0422
14330TIP3    H164481   2.479   1.086  10.499 -0.2759  0.4305 -0.3588
14330TIP3    H264482   2.499   1.232  10.532 -0.7441  0.2795  0.6429
14331TIP3   OH264483   1.242   2.485   0.373 -0.3021 -0.3822 -0.0195
14331TIP3    H164484   1.295   2.546   0.423  1.5980 -1.9393 -0.0003
14331TIP3    H264485   1.181   2.448   0.437  0.3063 -0.4139  0.5470
14332TIP3   OH264486   2.269   2.768   7.866 -0.5319 -0.3210 -0.0919
14332TIP3    H164487   2.299   2.758   7.776 -3.2467  0.7684 -1.2516
14332TIP3    H264488   2.327   2.835   7.904 -0.7852  0.9574 -1.8426
14333TIP3   OH264489   0.034   3.376   7.584 -0.2020 -0.0160  0.3255
14333TIP3    H164490   0.116   3.351   7.626  0.0966  0.9429  0.3443
14333TIP3    H264491  -0.023   3.402   7.656  0.1950  1.2989  0.2069
14334TIP3   OH264492   0.466   1.340  51.826  0.8109 -0.5562 -0.6189
14334TIP3    H164493   0.518   1.327  51.905  1.4009  0.4677 -0.8165
14334TIP3    H264494   0.485   1.264  51.771  1.6800 -0.4497 -0.4641
14335TIP3   OH264495   2.050   2.949  20.254  0.0765  0.2163  0.1984
14335TIP3    H164496   2.142   2.974  20.249  0.1771 -0.1253  0.3255
14335TIP3    H264497   2.004   3.032  20.268  0.3009  0.4713 -0.5392
14336TIP3   OH264498   2.781   2.897  13.203 -0.2938  0.1693 -0.4397
14336TIP3    H164499   2.834   2.841  13.146  1.2894  0.9137  0.2123
14336TIP3    H264500   2.696   2.854  13.206  0.9301 -2.4560  0.3496
14337TIP3   OH264501   1.075   0.749  58.865  0.2151 -0.1781 -0.1434
14337TIP3    H164502   1.122   0.769  58.784  0.7534  0.5123  0.3198
14337TIP3    H264503   1.072   0.833  58.912 -2.0201 -0.0427 -0.4158
14338TIP3   OH264504   2.418   0.288  59.457  0.8397  0.4364 -0.2215
14338TIP3    H164505   2.355   0.307  59.388 -0.1525  0.2486  0.6158
14338TIP3    H264506   2.367   0.247  59.526  1.9517 -0.0956  0.3204
14339TIP3   OH264507   0.564   2.712  57.549  0.3436 -0.1618 -0.5582
14339TIP3    H164508   0.511   2.724  57.628  0.8809 -1.3531 -0.0002
14339TIP3    H264509   0.503   2.729  57.477 -0.7297 -1.2221  0.0712
14340TIP3   OH264510   1.043   2.834  62.336 -0.3980 -0.1068 -0.0736
14340TIP3    H164511   1.028   2.917  62.290  0.8646 -0.5530 -1.3828
14340TIP3    H264512   1.073   2.860  62.423  1.0841  0.8650 -0.8324
14341TIP3   OH264513   0.147   0.825  14.853 -0.2153 -0.1017 -0.3236
14341TIP3    H164514   0.198   0.756  14.810  0.7725  0.9440 -0.8653
14341TIP3    H264515   0.168   0.815  14.946  1.3966  0.6236 -0.5841
14342TIP3   OH264516   0.715   1.969  46.794 -0.3500  0.4684 -0.0206
14342TIP3    H164517   0.649   1.998  46.731 -0.2330  1.3389  0.2554
14342TIP3    H264518   0.667   1.963  46.877 -0.2326  0.4704  0.0494
14343TIP3   OH264519   0.997   0.985   6.777  0.8459  0.3363 -0.4158
14343TIP3    H164520   0.986   1.065   6.828 -0.0652 -0.4777  0.7324
14343TIP3    H264521   1.042   0.925   6.837  0.5289 -0.3697 -0.8724
14344TIP3   OH264522   2.734   2.536   1.823 -0.3230  0.3870  0.3844
14344TIP3    H164523   2.784   2.467   1.866 -0.7871 -0.4149 -0.3256
14344TIP3    H264524   2.792   2.569   1.754 -0.2621  0.4157  0.4487
14345TIP3   OH264525   0.445   1.134  43.957 -0.4028  0.2553 -0.0969
14345TIP3    H164526   0.501   1.074  44.005 -0.1878 -0.1931 -0.8780
14345TIP3    H264527   0.395   1.180  44.024 -0.0317 -0.2687  0.5488
14346TIP3   OH264528   0.300   3.016  13.150  0.3081 -0.1878 -0.3012
14346TIP3    H164529   0.362   3.012  13.223  0.9786  0.7695 -0.8142
14346TIP3    H264530   0.322   2.940  13.096 -0.0404 -0.7706  0.3369
14347TIP3   OH264531   1.888   3.426  16.489 -0.3862  0.3616 -0.1792
14347TIP3    H164532   1.923   3.486  16.423  1.1647  0.5340  0.7344
14347TIP3    H264533   1.922   3.340  16.464 -1.3298  0.1128 -0.6276
14348TIP3   OH264534   0.880   0.663  53.721 -0.3046  0.3447 -0.2412
14348TIP3    H164535   0.958   0.713  53.696 -0.5652  0.7160 -0.3232
14348TIP3    H264536   0.871   0.678  53.815  0.2481 -0.4504 -0.0460
14349TIP3   OH264537   0.760   0.701  42.614  0.3515 -0.1807 -0.0829
14349TIP3    H164538   0.690   0.726  42.553  0.2235  0.5355  0.3439
14349TIP3    H264539   0.838   0.692  42.560  0.2757  0.6215 -0.3423
14350TIP3   OH264540   1.891   0.515  49.625 -0.0565  0.3569 -0.0738
14350TIP3    H164541   1.961   0.534  49.688  0.8499  0.6984 -1.1441
14350TIP3    H264542   1.908   0.425  49.597 -1.6155 -0.5179  1.5568
14351TIP3   OH264543   2.486   3.002  50.589  0.1922 -0.1900  0.7046
14351TIP3    H164544   2.451   3.087  50.618  0.2277 -0.2726  0.9952
14351TIP3    H264545   2.539   3.023  50.512  0.9477  0.1886  1.3097
14352TIP3   OH264546   2.972   0.709  11.060  0.0330 -0.1919 -0.1091
14352TIP3    H164547   2.935   0.745  10.979 -1.2529  0.4840  0.7307
14352TIP3    H264548   3.061   0.741  11.063  0.2678 -0.6526 -1.5008
14353TIP3   OH264549   0.823   2.005  21.673  0.0140 -0.3823  0.2467
14353TIP3    H164550   0.742   1.967  21.707  0.7746 -0.9475  1.4563
14353TIP3    H264551   0.892   1.969  21.727  1.1596 -0.3377 -1.1251
14354TIP3   OH264552   1.590   3.396  36.502  0.3439  0.1141  0.0632
14354TIP3    H164553   1.526   3.327  36.485 -0.0236  0.3979  0.2680
14354TIP3    H264554   1.592   3.448  36.422  0.3803  0.0530  0.0249
14355TIP3   OH264555   1.880   0.621  66.776  0.0965 -0.6871  0.4018
14355TIP3    H164556   1.839   0.598  66.860 -0.0978 -1.5914  0.0712
14355TIP3    H264557   1.807   0.628  66.715  0.3504 -1.2815  0.0282
14356TIP3   OH264558   2.103   1.130  49.811  0.5136  0.6565 -0.0981
14356TIP3    H164559   2.034   1.148  49.875  0.6408  1.3621 -0.1522
14356TIP3    H264560   2.066   1.060  49.755  0.6246 -0.3713  1.0754
14357TIP3   OH264561   1.477   1.084  50.054 -0.0223  0.5171 -0.0016
14357TIP3    H164562   1.465   0.998  50.013  0.6880  0.7240 -0.6688
14357TIP3    H264563   1.529   1.133  49.990  2.3326  0.4031  1.7027
14358TIP3   OH264564   2.281   2.375  58.519  0.3957  0.3969  0.2045
14358TIP3    H164565   2.231   2.451  58.486  0.4590 -0.1012 -1.1172
14358TIP3    H264566   2.223   2.301  58.505  0.3174  0.1792  1.5405
14359TIP3   OH264567   1.615   1.323  19.010  0.4646 -0.2982  0.0094
14359TIP3    H164568   1.634   1.230  18.998  1.2620 -0.6496  3.2783
14359TIP3    H264569   1.532   1.324  19.058  1.0225  0.6013  0.9837
14360TIP3   OH264570   3.357   3.338  67.296  0.2605 -0.0241  0.1164
14360TIP3    H164571   3.309   3.271  67.246  0.2981 -1.4734  1.9131
14360TIP3    H264572   3.403   3.288  67.364  0.2506  1.8336  1.5594
14361TIP3   OH264573   0.425   3.028  63.327 -0.4308  0.2909  0.3566
14361TIP3    H164574   0.427   3.122  63.313 -1.2764  0.6334  2.1894
14361TIP3    H264575   0.514   2.999  63.308  0.8779  2.0570  3.0468
14362TIP3   OH264576   1.228   0.920  64.887  0.6315  0.1963  0.0037
14362TIP3    H164577   1.243   0.932  64.981 -0.1124  0.4205  0.1052
14362TIP3    H264578   1.135   0.896  64.881  1.2179 -2.2034 -0.4628
14363TIP3   OH264579   1.827   1.605  21.382 -0.1099 -0.0404  0.1866
14363TIP3    H164580   1.822   1.661  21.305  0.9916 -0.8088 -0.4833
14363TIP3    H264581   1.750   1.627  21.433 -0.4808  1.0046 -0.7849
14364TIP3   OH264582   2.252   1.692  21.845  0.2416  0.0975  0.1008
14364TIP3    H164583   2.317   1.666  21.910  1.8608 -1.3966 -1.9837
14364TIP3    H264584   2.303   1.731  21.774 -1.1888 -0.5082 -1.3259
14365TIP3   OH264585   1.211   1.238  11.283  0.2271 -0.2701  0.1006
14365TIP3    H164586   1.143   1.304  11.276 -0.6166 -0.9290  1.6599
14365TIP3    H264587   1.210   1.212  11.375  0.6067 -2.3579 -0.4336
14366TIP3   OH264588   1.250   3.029   0.987  0.1060  0.1072  0.0866
14366TIP3    H164589   1.254   2.940   1.023 -1.0246 -0.2837 -0.6784
14366TIP3    H264590   1.341   3.053   0.972  0.4828 -0.4614  1.3904
14367TIP3   OH264591   1.361   1.289  34.848  0.7560  0.0865  0.2610
14367TIP3    H164592   1.404   1.301  34.932  0.5063  1.4102  0.2154
14367TIP3    H264593   1.416   1.225  34.802  1.3185 -0.0643  1.1276
14368TIP3   OH264594   0.199   0.040   3.334 -0.3313  0.2995  0.1348
14368TIP3    H164595   0.146   0.120   3.332  2.2239  2.2079  2.2293
14368TIP3    H264596   0.200   0.016   3.427 -1.2001 -2.3962 -0.4647
14369TIP3   OH264597   0.073   1.738  46.351 -0.4328  0.0316  0.0011
14369TIP3    H164598   0.016   1.737  46.274  1.1310  0.7513 -1.2344
14369TIP3    H264599   0.076   1.831  46.376  1.0515  0.1907 -0.6651
14370TIP3   OH264600   0.162   1.879  59.890  0.5097 -0.0319 -0.1496
14370TIP3    H164601   0.113   1.807  59.851 -0.2176 -0.5290  1.6258
14370TIP3    H264602   0.129   1.957  59.846 -0.5849 -0.5354 -0.2407
14371TIP3   OH264603   2.861   3.019  62.975 -0.0648 -0.0936 -0.0244
14371TIP3    H164604   2.796   3.078  62.937 -0.3941 -0.8397 -0.6389
14371TIP3    H264605   2.838   2.933  62.941  0.9692 -0.4380  0.1333
14372TIP3   OH264606   0.594   2.467   9.158 -0.1133 -0.1932 -0.5295
14372TIP3    H164607   0.627   2.508   9.238  0.1593 -0.2490 -0.6112
14372TIP3    H264608   0.644   2.385   9.150  2.2584  1.2671 -2.4436
14373TIP3   OH264609   2.597   0.898   8.210 -0.0392 -0.4915  0.0021
14373TIP3    H164610   2.521   0.916   8.265 -0.6434 -0.8391 -0.7137
14373TIP3    H264611   2.669   0.942   8.255 -0.8440  0.7460  0.1364
14374TIP3   OH264612   1.620   0.274  17.622 -0.1636  0.1615  0.7936
14374TIP3    H164613   1.663   0.345  17.671  1.0255 -0.6424  0.9614
14374TIP3    H264614   1.658   0.194  17.657  0.1995 -0.4690 -0.9239
14375TIP3   OH264615   2.855   0.289  18.585 -0.3929 -0.1407 -0.6800
14375TIP3    H164616   2.844   0.348  18.660 -0.7246 -0.2590 -0.6287
14375TIP3    H264617   2.941   0.250  18.597 -0.5478 -0.3506 -0.2155
14376TIP3   OH264618   1.568   0.332  14.482  0.3328 -0.3019 -0.4423
14376TIP3    H164619   1.595   0.345  14.391 -0.2842 -0.5976 -0.6739
14376TIP3    H264620   1.489   0.278  14.476  1.1932 -1.7007  0.3417
14377TIP3   OH264621   1.459   0.714  61.213  0.0953 -0.3160 -0.3295
14377TIP3    H164622   1.370   0.751  61.214  0.6120  1.0521 -1.7822
14377TIP3    H264623   1.454   0.642  61.149 -0.0119 -0.4168 -0.2108
14378TIP3   OH264624   2.104   1.819  10.539  0.0879 -0.1034  0.5684
14378TIP3    H164625   2.150   1.797  10.620  1.6302 -0.2502 -0.2874
14378TIP3    H264626   2.158   1.888  10.500 -0.7622  0.1367 -0.2047
14379TIP3   OH264627   2.134   0.036   3.013 -0.3369 -1.3151 -0.5164
14379TIP3    H164628   2.199   0.079   2.957  0.6534 -0.1911  1.4064
14379TIP3    H264629   2.071   0.106   3.033  0.0288 -1.3455  0.7870
14380TIP3   OH264630   3.180   3.375   2.429 -0.2092  0.4331 -0.3529
14380TIP3    H164631   3.266   3.402   2.463  0.1257 -0.7280 -0.2273
14380TIP3    H264632   3.125   3.453   2.439  0.1345  0.4709  1.9466
14381TIP3   OH264633   3.332   1.017  45.916  0.1714  0.5538 -0.4523
14381TIP3    H164634   3.416   0.974  45.900  0.7033  1.2860  0.3110
14381TIP3    H264635   3.283   1.002  45.835  1.2987  0.7277 -1.2037
14382TIP3   OH264636   3.046   1.436  45.533  0.1208 -0.4578  0.7607
14382TIP3    H164637   3.044   1.423  45.438  0.8515  0.7235  0.5734
14382TIP3    H264638   2.982   1.505  45.549  1.2680  0.5964  0.9003
14383TIP3   OH264639   1.983   1.540  18.736 -0.2674 -0.4013 -0.4867
14383TIP3    H164640   2.079   1.541  18.730 -0.3438  0.1555 -2.2810
14383TIP3    H264641   1.957   1.457  18.697 -0.4909 -1.3251  1.5168
14384TIP3   OH264642   2.798   0.008  64.922 -0.4974 -0.7727 -0.0679
14384TIP3    H164643   2.753   0.051  64.994 -0.7673  1.5699 -1.5406
14384TIP3    H264644   2.882   0.052  64.915  0.0658 -1.8550 -0.3946
14385TIP3   OH264645   0.616   1.928  10.143 -0.1763 -0.0832 -0.0559
14385TIP3    H164646   0.569   1.865  10.089 -2.0668 -0.5723  1.9920
14385TIP3    H264647   0.579   2.013  10.119  1.2072  0.1127 -1.6524
14386TIP3   OH264648   0.839   0.036  34.821 -0.0535 -0.0406 -0.1150
14386TIP3    H164649   0.929   0.009  34.841  0.3075  0.7679 -0.6040
14386TIP3    H264650   0.816   0.095  34.892 -0.3853 -0.6326  0.2771
14387TIP3   OH264651   1.975   1.591  13.405  0.2019  0.5012  0.0922
14387TIP3    H164652   1.951   1.603  13.497  0.0444  1.2933 -0.0449
14387TIP3    H264653   1.939   1.667  13.361 -1.8065 -0.9916 -1.0372
14388TIP3   OH264654   1.816   3.252  52.548 -0.2056  0.4776  0.0111
14388TIP3    H164655   1.895   3.305  52.547 -0.6801  1.2100 -1.1973
14388TIP3    H264656   1.805   3.223  52.457 -1.5983  0.8198  0.0360
14389TIP3   OH264657   2.461   0.748   7.071 -0.3059  0.2286  0.1918
14389TIP3    H164658   2.470   0.767   6.978 -0.7096 -0.4743  0.0042
14389TIP3    H264659   2.367   0.752   7.088 -0.3916 -1.3072  0.1915
14390TIP3   OH264660   0.083   1.155  15.991 -0.0095  0.3503 -0.1688
14390TIP3    H164661   0.120   1.082  16.040 -0.6836 -0.3688 -0.6935
14390TIP3    H264662   0.044   1.114  15.914  0.3672  1.3639 -0.9283
14391TIP3   OH264663   3.437   2.315  17.321 -0.2634 -0.2290 -0.1285
14391TIP3    H164664   3.452   2.405  17.350  0.0412  0.0445 -1.0734
14391TIP3    H264665   3.449   2.261  17.399  2.3305  0.3002 -0.0928
14392TIP3   OH264666   3.307   0.170   3.089 -0.4415  0.3277 -0.0588
14392TIP3    H164667   3.329   0.221   3.167 -0.8136  1.3828 -0.6262
14392TIP3    H264668   3.387   0.122   3.068  0.4940  1.9984 -0.4984
14393TIP3   OH264669   2.954   3.289   2.894 -0.4074 -0.2094  0.0851
14393TIP3    H164670   2.946   3.250   2.807  1.3074 -1.4220  0.4017
14393TIP3    H264671   3.007   3.367   2.881  0.3038 -0.6817  0.0912
14394TIP3   OH264672   0.608   2.998  16.540  0.7006  0.0670  0.3309
14394TIP3    H164673   0.627   3.063  16.608  0.9616  0.0868  0.2386
14394TIP3    H264674   0.515   3.011  16.521  0.8701  0.7828 -0.0620
14395TIP3   OH264675   2.284   0.191  53.906  0.7072  0.1978 -0.2226
14395TIP3    H164676   2.203   0.197  53.957  0.4074  0.1328 -0.6781
14395TIP3    H264677   2.353   0.223  53.964  0.6343 -1.4289  0.8259
14396TIP3   OH264678   1.613   2.130  66.104  0.1896 -0.1845 -0.5287
14396TIP3    H164679   1.588   2.058  66.162 -1.9946  0.9893  0.0829
14396TIP3    H264680   1.530   2.166  66.073  1.2200  1.9515 -0.9770
14397TIP3   OH264681   3.017   1.356   2.837 -0.1968 -0.2835 -0.4241
14397TIP3    H164682   2.983   1.276   2.877 -0.7815  0.0648 -0.2056
14397TIP3    H264683   3.104   1.332   2.804  0.0792 -0.7248  0.5791
14398TIP3   OH264684   1.366   2.994  63.537 -0.7079 -0.5091 -0.2665
14398TIP3    H164685   1.275   3.022  63.553  0.0352  1.9046  0.2005
14398TIP3    H264686   1.394   2.956  63.620 -0.3553  1.7272  0.7251
14399TIP3   OH264687   3.051   2.068  13.689 -0.5075  0.3522  0.1374
14399TIP3    H164688   3.044   2.034  13.600 -0.3099 -1.2730  0.7093
14399TIP3    H264689   2.975   2.032  13.734 -0.7303  1.3519  0.5831
14400TIP3   OH264690   2.948   1.815  54.286 -0.0537 -0.0538 -0.6762
14400TIP3    H164691   2.931   1.908  54.303  2.2943  0.3422 -0.2287
14400TIP3    H264692   2.862   1.779  54.264 -1.4460  1.6977  1.4936
14401TIP3   OH264693   1.302   2.657  20.185  0.3393 -0.2111  0.3568
14401TIP3    H164694   1.228   2.626  20.133  0.7017 -1.2088  0.4221
14401TIP3    H264695   1.343   2.578  20.218  0.6878  0.3761  1.3825
14402TIP3   OH264696   2.698   1.568  20.253  0.9087  0.2073 -1.0743
14402TIP3    H164697   2.774   1.534  20.302 -0.2677  0.8886  1.3630
14402TIP3    H264698   2.665   1.492  20.205 -0.5107 -1.8892  2.7282
14403TIP3   OH264699   1.458   0.808  55.220  0.1739  0.4320 -0.3066
14403TIP3    H164700   1.486   0.886  55.172  0.4331 -0.5897 -1.8937
14403TIP3    H264701   1.523   0.799  55.291  0.8008  1.0176 -0.7884
14404TIP3   OH264702   1.849   0.691  19.241 -0.2964  0.6465  0.0585
14404TIP3    H164703   1.920   0.695  19.177  0.8312  0.6591  1.2665
14404TIP3    H264704   1.892   0.667  19.323 -1.7448  0.3161  0.7579
14405TIP3   OH264705   1.529   0.749  12.838 -1.4278  0.2625 -0.0132
14405TIP3    H164706   1.613   0.734  12.880 -1.4322  0.2200 -0.0190
14405TIP3    H264707   1.493   0.826  12.881  0.1759  2.4900 -2.3466
14406TIP3   OH264708   1.399   1.965  50.834  0.3151  0.0329 -0.5625
14406TIP3    H164709   1.308   1.951  50.808  0.6853 -0.2096 -1.7509
14406TIP3    H264710   1.427   1.881  50.870  0.2756 -0.0925 -0.8230
14407TIP3   OH264711   1.760   0.014  21.149  0.0765 -0.0967 -0.4303
14407TIP3    H164712   1.796   0.092  21.107 -0.7684  0.6800  0.2369
14407TIP3    H264713   1.734  -0.043  21.077  1.6200 -0.2292 -0.9273
14408TIP3   OH264714   2.692   1.784  66.528 -0.3100  0.2238  0.0083
14408TIP3    H164715   2.629   1.727  66.485  0.7903 -1.3865  0.4140
14408TIP3    H264716   2.640   1.854  66.566 -1.6120  0.0532 -1.3808
14409TIP3   OH264717   2.038   3.084   6.183 -0.5435 -0.5248 -0.3960
14409TIP3    H164718   1.981   3.027   6.133  0.4562  0.6675 -3.1124
14409TIP3    H264719   2.124   3.074   6.142  0.3782  0.4510  1.1864
14410TIP3   OH264720   0.899   1.027  14.548  0.0622 -0.7352 -0.1476
14410TIP3    H164721   0.980   1.071  14.520  0.1107 -0.5602  0.2664
14410TIP3    H264722   0.915   0.935  14.530  0.8514 -0.8594  1.1022
14411TIP3   OH264723   1.476   2.658  38.733 -0.2283  0.1629 -0.2523
14411TIP3    H164724   1.479   2.615  38.819  1.3379  0.6034 -0.0388
14411TIP3    H264725   1.499   2.589  38.671 -1.2628 -0.1323 -0.3272
14412TIP3   OH264726   0.572   2.104  50.954 -0.1871 -0.1445  0.6165
14412TIP3    H164727   0.618   2.124  50.872 -1.7205 -1.4399 -0.6334
14412TIP3    H264728   0.631   2.136  51.023  1.2440  0.8115 -0.9644
14413TIP3   OH264729   2.504   2.934  43.628  0.0418 -0.0977 -0.0718
14413TIP3    H164730   2.525   2.945  43.535  0.4057 -0.9587 -0.0959
14413TIP3    H264731   2.419   2.890  43.629  1.8801 -4.1249 -0.1310
14414TIP3   OH264732   2.326   1.923  60.250  0.0375  0.0128 -0.5659
14414TIP3    H164733   2.265   1.874  60.306 -0.6776  0.3349 -1.0412
14414TIP3    H264734   2.312   1.885  60.162 -0.2556  0.8052 -0.8678
14415TIP3   OH264735   1.789   0.530   3.934  0.2779 -0.1169  0.0978
14415TIP3    H164736   1.757   0.546   3.845  0.1545 -0.9014 -0.0118
14415TIP3    H264737   1.746   0.448   3.960  0.3363  0.0928  0.8695
14416TIP3   OH264738   2.559   1.090  27.712  0.0378 -0.0303 -0.1734
14416TIP3    H164739   2.548   0.995  27.700  2.2333 -0.3097 -0.3092
14416TIP3    H264740   2.614   1.117  27.638  1.3896  0.8977  1.1188
14417TIP3   OH264741   2.645   2.774  51.033  0.1431  0.2629  0.1584
14417TIP3    H164742   2.727   2.737  50.999  0.4517  0.4316  0.7019
14417TIP3    H264743   2.642   2.862  50.997 -0.3144 -0.0883 -0.6860
14418TIP3   OH264744   2.639   0.956  42.384  0.0151 -0.2370 -0.1760
14418TIP3    H164745   2.731   0.943  42.406  0.1120  0.7426  0.0796
14418TIP3    H264746   2.593   0.884  42.426  0.5012  0.1425  1.0359
14419TIP3   OH264747   3.071   2.622  51.330 -0.0838  0.2897  0.2228
14419TIP3    H164748   3.107   2.698  51.283 -0.9755  1.1332  0.8518
14419TIP3    H264749   2.985   2.609  51.291 -0.1465 -0.0645  0.4851
14420TIP3   OH264750   1.000   0.581  36.415  0.1438  0.5305  0.1357
14420TIP3    H164751   0.915   0.624  36.420 -0.7221 -0.7012 -2.1860
14420TIP3    H264752   1.017   0.549  36.503 -1.2344  1.7949  0.9031
14421TIP3   OH264753   1.755   3.370  55.827 -0.4907 -0.1330 -0.0471
14421TIP3    H164754   1.755   3.415  55.911 -1.0718  0.9796 -0.6132
14421TIP3    H264755   1.841   3.388  55.789  0.2684 -1.7094  0.8241
14422TIP3   OH264756   2.572   0.763  46.264 -0.4509  0.0195 -0.1404
14422TIP3    H164757   2.618   0.730  46.186  0.2547  0.7857 -0.0666
14422TIP3    H264758   2.638   0.761  46.333 -0.6657  0.6515  0.0908
14423TIP3   OH264759   1.156   1.557  13.328 -0.0586  0.0404  0.0784
14423TIP3    H164760   1.196   1.500  13.394 -0.3695 -0.3414 -0.0586
14423TIP3    H264761   1.078   1.593  13.371 -0.2718 -0.2237 -0.0872
14424TIP3   OH264762   3.386   0.964  16.430 -0.3255  0.0477  0.5102
14424TIP3    H164763   3.455   0.949  16.494 -1.9363  0.4710  2.4557
14424TIP3    H264764   3.312   0.910  16.460 -0.5750 -1.2141 -2.0835
14425TIP3   OH264765   2.169   2.502   3.051  0.1914 -0.4988  0.7886
14425TIP3    H164766   2.091   2.545   3.015  0.5118 -0.9009 -0.4122
14425TIP3    H264767   2.225   2.575   3.079 -0.3067 -0.1974  1.0358
14426TIP3   OH264768   2.448   2.127   4.670  0.1027 -0.3031 -0.2819
14426TIP3    H164769   2.440   2.057   4.604 -0.5716 -0.5802  0.0814
14426TIP3    H264770   2.393   2.197   4.636 -0.5834 -0.6078  0.1849
14427TIP3   OH264771   2.588   3.340  29.393 -0.1414 -0.1150 -0.0148
14427TIP3    H164772   2.612   3.353  29.485 -1.9751  1.3752  0.3239
14427TIP3    H264773   2.620   3.418  29.348  0.9903 -0.9577 -0.7485
14428TIP3   OH264774   0.216   1.402   5.419 -0.3449  0.8055 -0.0552
14428TIP3    H164775   0.201   1.480   5.365 -0.3832  0.6341 -0.2928
14428TIP3    H264776   0.308   1.410   5.446  0.1946  0.0489 -1.5228
14429TIP3   OH264777   0.622   3.252   1.222 -0.1906 -0.1820  0.1618
14429TIP3    H164778   0.614   3.301   1.140 -0.2194  0.0158  0.2813
14429TIP3    H264779   0.549   3.190   1.219 -0.9125  0.6301  0.5756
14430TIP3   OH264780   2.489   2.503  63.318 -0.5317 -0.0979  0.2296
14430TIP3    H164781   2.412   2.553  63.346  0.5192  2.0521 -0.4803
14430TIP3    H264782   2.492   2.514  63.223 -0.7493 -2.3360 -0.0798
14431TIP3   OH264783   3.279   0.573  61.750  0.1307  0.1315 -0.3085
14431TIP3    H164784   3.315   0.494  61.709 -2.9806 -1.3332 -0.5652
14431TIP3    H264785   3.297   0.563  61.843  0.0595 -0.7530 -0.3834
14432TIP3   OH264786   0.882   1.753  56.281 -0.2755  0.3510 -0.3265
14432TIP3    H164787   0.812   1.742  56.345 -0.0056  1.8970  0.2814
14432TIP3    H264788   0.948   1.689  56.305 -0.7123  0.0969  0.1991
14433TIP3   OH264789   2.579   2.211   6.177 -0.0924 -0.5526  0.0377
14433TIP3    H164790   2.645   2.193   6.110  0.3818 -1.0287  0.6155
14433TIP3    H264791   2.616   2.282   6.229 -0.5428 -0.0556 -0.3101
14434TIP3   OH264792   1.150   2.644   8.994 -0.8246  0.2210  0.0549
14434TIP3    H164793   1.238   2.653   8.957 -1.1564 -0.3864 -0.9117
14434TIP3    H264794   1.123   2.734   9.011 -0.7104  0.5589 -1.3595
14435TIP3   OH264795   1.031   2.488  11.967 -0.3855 -0.1866  0.3172
14435TIP3    H164796   1.053   2.402  12.005 -0.5581  0.4164  1.8799
14435TIP3    H264797   1.104   2.508  11.909 -1.0726 -2.0618 -1.3145
14436TIP3   OH264798   0.918   2.178   9.309 -0.0289  0.0380  0.2347
14436TIP3    H164799   0.999   2.184   9.259  1.0055  0.0779  1.8667
14436TIP3    H264800   0.922   2.093   9.352  0.1516  0.8716  1.9443
14437TIP3   OH264801   2.326   2.884  61.062 -0.1958 -0.7827  0.2231
14437TIP3    H164802   2.388   2.913  60.994 -0.2948  1.2929  0.9519
14437TIP3    H264803   2.381   2.867  61.139 -0.3076 -1.1774  0.2215
14438TIP3   OH264804   2.428   0.897  46.678 -0.2414  0.2019  0.0578
14438TIP3    H164805   2.520   0.871  46.682 -0.3305 -0.3709 -1.2346
14438TIP3    H264806   2.399   0.868  46.592 -1.6148  0.4536  0.4204
14439TIP3   OH264807   1.356   1.397  47.305 -0.1490 -0.1975  0.0539
14439TIP3    H164808   1.393   1.411  47.218  0.0179 -0.0883  0.1412
14439TIP3    H264809   1.412   1.447  47.364 -1.1208  0.9270  0.0556
14440TIP3   OH264810   0.366   2.710  42.303 -0.2909 -0.2195 -0.2248
14440TIP3    H164811   0.346   2.780  42.242  3.4050  0.0472 -1.4218
14440TIP3    H264812   0.431   2.748  42.362 -2.1587 -1.1290  2.6213
14441TIP3   OH264813   1.762   1.400  16.841  0.3701  0.2487 -0.0294
14441TIP3    H164814   1.691   1.417  16.779  0.2371 -1.4042 -0.3768
14441TIP3    H264815   1.733   1.441  16.923  0.0811  1.5654 -0.7593
14442TIP3   OH264816   2.679   1.983  65.793 -0.2796  0.5580 -0.5455
14442TIP3    H164817   2.761   1.938  65.770 -0.0198  1.0259 -0.5399
14442TIP3    H264818   2.660   2.039  65.719  0.1212  1.4467  0.0052
14443TIP3   OH264819   2.224   0.328  48.428 -0.1975 -0.0427  0.1677
14443TIP3    H164820   2.136   0.351  48.457  0.6431  1.1868  1.8855
14443TIP3    H264821   2.227   0.233  48.434 -0.7255  0.0266  2.3033
14444TIP3   OH264822   0.989   2.819  13.048  0.8431  0.3627  0.0236
14444TIP3    H164823   1.005   2.840  12.956  0.5542  1.3803  0.1914
14444TIP3    H264824   0.894   2.811  13.054  0.7532  1.4926  0.4525
14445TIP3   OH264825   1.998   1.433  12.412 -0.1406 -0.0911  0.0215
14445TIP3    H164826   2.001   1.489  12.334  2.0188  0.5970  0.5342
14445TIP3    H264827   2.070   1.371  12.400  0.7302  0.5215  1.7872
14446TIP3   OH264828   1.240   0.480  55.940 -0.7324 -0.2561  0.0749
14446TIP3    H164829   1.318   0.512  55.985 -0.7458  1.3921 -0.9833
14446TIP3    H264830   1.265   0.475  55.848 -1.4158 -1.2224 -0.0796
14447TIP3   OH264831   0.695   3.180  66.982  0.2890 -0.5314  0.2621
14447TIP3    H164832   0.677   3.273  66.998 -0.0346 -0.4101 -0.7662
14447TIP3    H264833   0.710   3.175  66.888 -0.3646 -1.6412  0.2104
14448TIP3   OH264834   0.258   1.271  21.115 -0.1753 -0.7087  0.2509
14448TIP3    H164835   0.319   1.251  21.186  0.7186  0.4715 -0.1475
14448TIP3    H264836   0.242   1.187  21.072  0.3410 -1.2040  1.0091
14449TIP3   OH264837   0.686   2.816  52.588  0.9467  0.8779  0.2426
14449TIP3    H164838   0.724   2.845  52.505  1.5990 -0.5975  0.0073
14449TIP3    H264839   0.617   2.881  52.606 -1.3903 -0.4053 -3.0191
14450TIP3   OH264840   1.431   0.160  49.767 -1.0348  0.2536 -0.1051
14450TIP3    H164841   1.450   0.222  49.697 -0.3384 -1.9005 -1.9633
14450TIP3    H264842   1.410   0.078  49.722  1.8336 -1.9625  2.1056
14451TIP3   OH264843   1.447   0.274  59.145  0.0174 -0.3299  0.1046
14451TIP3    H164844   1.376   0.215  59.170  0.5973 -1.1752 -0.2210
14451TIP3    H264845   1.499   0.224  59.082  1.0223  0.1970  0.5001
14452TIP3   OH264846   2.085   0.182  21.547  0.0465  0.5063  0.0673
14452TIP3    H164847   2.084   0.093  21.583  2.8593 -0.2874 -1.5171
14452TIP3    H264848   2.137   0.233  21.610  0.2863  0.4696 -0.0975
14453TIP3   OH264849   2.212   3.289   8.303  0.0674  0.2092  0.0537
14453TIP3    H164850   2.256   3.261   8.383  0.4400 -0.9754 -0.5379
14453TIP3    H264851   2.251   3.375   8.283  0.0077  0.4914  1.0948
14454TIP3   OH264852   0.945   1.481  62.635  0.2399 -0.0284 -0.4790
14454TIP3    H164853   0.895   1.560  62.618 -0.2260 -0.0670  0.6611
14454TIP3    H264854   0.983   1.458  62.550 -1.5661  0.0611 -1.3420
14455TIP3   OH264855   1.607   2.133  22.081  0.2286 -0.2610  0.2393
14455TIP3    H164856   1.674   2.083  22.035  0.2748 -0.2764  0.3251
14455TIP3    H264857   1.568   2.070  22.142  0.1559 -0.2450  0.2101
14456TIP3   OH264858   3.055   1.249   8.914  0.1132  0.0070  0.0169
14456TIP3    H164859   3.003   1.281   8.988  0.2621 -0.1966  0.2112
14456TIP3    H264860   3.047   1.318   8.848  1.8130  1.2773  1.0363
14457TIP3   OH264861   0.852   0.510  51.318  0.1830  0.0339 -0.2114
14457TIP3    H164862   0.943   0.492  51.343  1.1406  1.9137 -2.0471
14457TIP3    H264863   0.845   0.478  51.228 -1.4620 -1.4057  0.3740
14458TIP3   OH264864   1.694   2.868  49.400  0.4534  0.7148  0.2317
14458TIP3    H164865   1.727   2.839  49.315 -1.5199  2.4559 -1.2215
14458TIP3    H264866   1.743   2.948  49.418  0.6609  0.5049  0.6164
14459TIP3   OH264867   3.413   0.369  21.327  0.0371  0.1317 -0.0796
14459TIP3    H164868   3.480   0.426  21.289  0.7972 -0.2410  0.6654
14459TIP3    H264869   3.371   0.421  21.395 -2.3658  1.3365 -2.3157
14460TIP3   OH264870   2.233   2.047  10.469 -0.1107  0.0128  0.2506
14460TIP3    H164871   2.176   2.097  10.410  1.7986 -0.2256 -1.9301
14460TIP3    H264872   2.292   2.112  10.506 -0.4106 -0.0304  0.8001
14461TIP3   OH264873   2.098   3.272   1.405 -0.1519 -0.2247  0.0457
14461TIP3    H164874   2.064   3.359   1.383 -3.5689 -1.2619  0.7256
14461TIP3    H264875   2.118   3.278   1.499  2.3786  0.5430 -0.4577
14462TIP3   OH264876   1.067   0.058  54.059  0.0204  0.5807 -0.0462
14462TIP3    H164877   1.087   0.002  54.134  0.7660  0.3527 -0.4063
14462TIP3    H264878   0.974   0.079  54.069 -0.2550 -0.6752  0.1186
14463TIP3   OH264879   0.404   0.139   8.604  0.0405  0.2808  0.0483
14463TIP3    H164880   0.312   0.120   8.624 -0.4511  0.8168 -1.5562
14463TIP3    H264881   0.444   0.053   8.593 -0.1909  0.0340  1.0437
14464TIP3   OH264882   3.229   1.551  60.548 -0.2915 -0.0028 -0.1384
14464TIP3    H164883   3.300   1.584  60.602  0.7730 -2.5552  0.1760
14464TIP3    H264884   3.246   1.585  60.461  0.1823  1.0209  0.3426
14465TIP3   OH264885   3.365   0.711   9.514  0.0338 -0.4461 -0.1176
14465TIP3    H164886   3.401   0.627   9.486 -1.6912 -2.0038  2.0159
14465TIP3    H264887   3.304   0.735   9.444 -0.9632 -2.0318  0.1637
14466TIP3   OH264888   3.351   1.710   4.363  0.0286 -0.5357 -0.2322
14466TIP3    H164889   3.363   1.785   4.304  0.0041 -0.1065  0.3032
14466TIP3    H264890   3.380   1.742   4.448 -3.0852 -0.0446  0.7594
14467TIP3   OH264891   1.959   2.657   4.836 -0.2747  0.9426 -0.3548
14467TIP3    H164892   2.022   2.659   4.765 -0.1946 -0.2403 -0.3269
14467TIP3    H264893   2.012   2.660   4.916 -0.1418 -1.2338 -0.3081
14468TIP3   OH264894   1.827   0.214  16.616  0.2924 -0.3137 -0.0509
14468TIP3    H164895   1.808   0.190  16.706  0.8297 -0.1067  0.1256
14468TIP3    H264896   1.864   0.135  16.577  0.3646 -0.3111  0.0109
14469TIP3   OH264897   2.414   1.877  45.542  0.0268 -0.1665 -0.3083
14469TIP3    H164898   2.332   1.886  45.495  0.2783  0.2044 -0.6786
14469TIP3    H264899   2.481   1.870  45.474  0.1403 -2.3698 -0.0657
14470TIP3   OH264900   1.359   1.966  49.091 -0.0148 -0.2725  0.0285
14470TIP3    H164901   1.371   1.875  49.066  3.7248  0.2435 -0.6093
14470TIP3    H264902   1.303   2.003  49.022  0.6774 -1.4918 -1.2295
14471TIP3   OH264903   0.572   2.957  48.858 -0.0270  0.4502  0.1480
14471TIP3    H164904   0.589   2.924  48.946 -0.1620 -0.8127 -0.2745
14471TIP3    H264905   0.638   3.026  48.845  0.8541 -0.2480  0.7600
14472TIP3   OH264906   3.028   1.025  18.144 -0.3725  0.8014 -0.1358
14472TIP3    H164907   3.035   1.031  18.049 -2.3862 -1.2756 -0.5087
14472TIP3    H264908   3.060   0.937  18.165 -0.9825  0.8110  0.9487
14473TIP3   OH264909   1.257   3.432  56.896 -0.3886 -0.3778 -0.0975
14473TIP3    H164910   1.213   3.386  56.824  0.2167 -0.8632 -0.1665
14473TIP3    H264911   1.202   3.509  56.913 -1.4830 -1.1905  0.1075
14474TIP3   OH264912   1.064   2.455  21.576  0.2630  0.3453 -0.1318
14474TIP3    H164913   1.012   2.429  21.500 -1.3063 -0.5317  1.1892
14474TIP3    H264914   1.088   2.373  21.619 -0.6458  0.8671  1.4468
14475TIP3   OH264915   3.182   0.776  32.026 -0.0689 -0.2937 -0.2635
14475TIP3    H164916   3.239   0.831  32.080  0.9546  2.2008 -3.5374
14475TIP3    H264917   3.239   0.707  31.994 -0.2279 -0.7396  0.3942
14476TIP3   OH264918   0.943   0.359  36.251  0.1740 -0.0884 -0.1732
14476TIP3    H164919   0.849   0.361  36.268  0.2296 -0.5487  0.2052
14476TIP3    H264920   0.978   0.430  36.305  0.2420 -0.9974  1.0363
14477TIP3   OH264921   2.054   0.606   3.892  0.0322  0.0298  0.2185
14477TIP3    H164922   1.967   0.599   3.932  0.1717  1.2816  0.7957
14477TIP3    H264923   2.043   0.568   3.805 -1.1141  0.2044  0.2663
14478TIP3   OH264924   2.090   0.085  44.923  0.0121 -0.3255  0.1180
14478TIP3    H164925   2.171   0.043  44.951  0.0111  1.2919  2.9624
14478TIP3    H264926   2.045   0.107  45.005 -1.7914  1.6300 -1.2771
14479TIP3   OH264927   2.543   3.044   3.333 -0.2809 -0.0545 -0.0998
14479TIP3    H164928   2.602   3.119   3.342 -0.1995 -0.1035 -0.2288
14479TIP3    H264929   2.498   3.058   3.250  0.2114 -0.4844 -0.4473
14480TIP3   OH264930   0.323   1.989  17.673 -0.3351  0.1047  0.3055
14480TIP3    H164931   0.286   1.901  17.670 -0.9840  0.3138  1.4737
14480TIP3    H264932   0.252   2.043  17.709  0.9976  0.5653  2.3990
14481TIP3   OH264933   2.631   3.170  16.462 -0.1850  0.5511  0.5281
14481TIP3    H164934   2.564   3.234  16.485 -0.5006  0.2390  0.4729
14481TIP3    H264935   2.710   3.202  16.505 -0.3324  1.0037  0.4652
14482TIP3   OH264936   1.669   0.806  58.272 -0.1664  0.5943 -0.0642
14482TIP3    H164937   1.696   0.892  58.241  1.9896 -0.2386 -0.6942
14482TIP3    H264938   1.586   0.790  58.227  0.5513  1.3972 -1.7961
14483TIP3   OH264939   0.273   0.581  19.692 -0.2091 -0.8199  0.0711
14483TIP3    H164940   0.220   0.507  19.721  0.3130 -1.0842  0.3455
14483TIP3    H264941   0.216   0.627  19.630 -1.3205 -0.2904  1.4233
14484TIP3   OH264942   0.940   1.375  50.178 -0.0768 -0.3894 -0.1336
14484TIP3    H164943   1.019   1.321  50.179  0.5540  0.4764 -1.1089
14484TIP3    H264944   0.966   1.454  50.130 -2.1109 -0.9543 -2.3353
14485TIP3   OH264945   0.174   2.286   3.318 -0.0502  0.2077 -0.3186
14485TIP3    H164946   0.221   2.334   3.250 -1.0968 -0.3046 -1.4337
14485TIP3    H264947   0.082   2.295   3.295 -0.3749 -0.7072  0.5407
14486TIP3   OH264948   2.741   3.174  43.458 -0.3106 -0.4549  0.4815
14486TIP3    H164949   2.685   3.123  43.399 -0.6074  0.3353  0.0762
14486TIP3    H264950   2.680   3.230  43.506  0.0665 -0.1192  0.5691
14487TIP3   OH264951   1.338   2.048   7.509 -0.2829 -0.0677 -0.2011
14487TIP3    H164952   1.266   2.058   7.447  1.3174  1.0296 -2.0106
14487TIP3    H264953   1.389   2.129   7.499  0.3711 -0.1171  2.1602
14488TIP3   OH264954   0.482   2.700   9.925  0.1150  0.4533 -0.2680
14488TIP3    H164955   0.523   2.700  10.012 -1.6776 -0.8824  0.6470
14488TIP3    H264956   0.442   2.787   9.918  2.2362  1.4621 -0.8270
14489TIP3   OH264957   2.122   1.336  52.551  0.0098 -0.1858 -0.0449
14489TIP3    H164958   2.124   1.320  52.457 -0.6688 -1.7323  0.1852
14489TIP3    H264959   2.134   1.431  52.559 -0.3273  0.0243 -1.6971
14490TIP3   OH264960   2.039   2.347  15.031 -0.7388  0.0586  0.3158
14490TIP3    H164961   1.988   2.425  15.056  1.2479  1.5611 -0.0934
14490TIP3    H264962   1.983   2.302  14.968 -1.8843  1.2276  0.4416
14491TIP3   OH264963   1.049   3.025   3.532  0.2482 -0.3277 -0.0695
14491TIP3    H164964   1.050   3.073   3.448  0.6598 -0.3827 -0.0986
14491TIP3    H264965   1.016   2.939   3.509 -0.4064 -0.0898 -0.0344
14492TIP3   OH264966   2.241   2.661   7.340  0.1681  0.2414 -0.1612
14492TIP3    H164967   2.171   2.620   7.289 -2.4807  1.8876  1.8961
14492TIP3    H264968   2.247   2.750   7.304  0.1358  0.5777  0.6521
14493TIP3   OH264969   2.737   1.565   1.017  0.7394 -0.0461 -0.2016
14493TIP3    H164970   2.743   1.648   0.969 -0.4311 -1.1391 -2.3759
14493TIP3    H264971   2.644   1.556   1.037  0.4224 -1.9212 -2.1813
14494TIP3   OH264972   2.186   2.382  18.995 -0.1066 -0.4795 -0.1640
14494TIP3    H164973   2.102   2.349  19.028 -0.3738  1.0048  0.7513
14494TIP3    H264974   2.187   2.357  18.903 -1.3273 -0.9659 -0.0644
14495TIP3   OH264975   1.126   1.337  47.546  0.1189 -0.3491  0.3845
14495TIP3    H164976   1.116   1.432  47.547  0.1594 -0.3457  0.6846
14495TIP3    H264977   1.204   1.320  47.599  1.6194 -0.3899 -1.7385
14496TIP3   OH264978   2.116   1.880  13.202  0.2603  0.5723  0.3177
14496TIP3    H164979   2.102   1.972  13.221  0.1103  0.3722  1.2024
14496TIP3    H264980   2.199   1.859  13.243 -0.9387 -0.3167  2.4453
14497TIP3   OH264981   1.617   0.115  14.972  0.0598 -0.4003 -0.2964
14497TIP3    H164982   1.635   0.132  15.065 -0.5293 -0.0195 -0.2466
14497TIP3    H264983   1.664   0.185  14.926  1.4858 -1.3774 -0.3831
14498TIP3   OH264984   3.328   2.258  17.920  0.1346 -0.7104 -0.6435
14498TIP3    H164985   3.339   2.314  17.843  0.6308  0.1999  0.0781
14498TIP3    H264986   3.259   2.301  17.971  1.8220  0.3526  0.8593
14499TIP3   OH264987   3.208   0.558  43.274  0.1568 -0.2771  0.4718
14499TIP3    H164988   3.114   0.568  43.286  0.2869  1.0475  0.5103
14499TIP3    H264989   3.218   0.468  43.243 -1.0116 -0.7756  1.4502
14500TIP3   OH264990   0.318   0.517  49.727 -0.4981 -0.2792 -0.5916
14500TIP3    H164991   0.302   0.518  49.821 -0.8908 -1.7948 -0.6020
14500TIP3    H264992   0.231   0.506  49.688 -0.2118 -1.0362 -1.0487
14501TIP3   OH264993   2.732   0.877  16.657  0.3920  0.0520  0.2576
14501TIP3    H164994   2.802   0.812  16.654  1.4638  1.1664  0.3044
14501TIP3    H264995   2.679   0.858  16.579  0.0648 -1.5160  0.8315
14502TIP3   OH264996   0.665   0.360  42.308  0.0683 -0.8012  0.9719
14502TIP3    H164997   0.685   0.301  42.381 -0.2298 -1.7082  0.3352
14502TIP3    H264998   0.606   0.310  42.252 -1.1396  0.5267  0.9960
14503TIP3   OH264999   0.887   0.912  19.039 -0.1366  0.3387  0.0865
14503TIP3    H165000   0.968   0.879  18.999 -0.1729 -0.7051  0.8325
14503TIP3    H265001   0.908   1.000  19.069  0.0135  1.0017 -1.8347
14504TIP3   OH265002   1.731   0.907  53.991  0.3827 -0.1946  0.1698
14504TIP3    H165003   1.777   0.986  54.020  1.3756  0.6802 -3.3407
14504TIP3    H265004   1.656   0.940  53.941 -0.2650 -1.5378  0.2187
14505TIP3   OH265005   2.423   1.963   4.479  0.1411 -0.1722  0.1830
14505TIP3    H165006   2.466   1.958   4.393  0.6579  2.4425  0.2131
14505TIP3    H265007   2.329   1.960   4.459  0.2624  0.1595 -0.4441
14506TIP3   OH265008   2.765   1.697  15.731 -0.1772 -0.3866  0.0448
14506TIP3    H165009   2.794   1.633  15.796 -1.5814 -0.9231  0.1982
14506TIP3    H265010   2.710   1.758  15.780  1.3770  1.1556 -0.0433
14507TIP3   OH265011   0.382   1.526  13.635  0.0527 -0.0469  0.3903
14507TIP3    H165012   0.470   1.564  13.630  0.6467 -1.3743  0.2210
14507TIP3    H265013   0.350   1.550  13.722  0.9054 -0.1880  0.7565
14508TIP3   OH265014   0.703   1.841  64.194  0.0587 -0.0246  0.3564
14508TIP3    H165015   0.794   1.870  64.201  0.4082 -0.9590 -0.1472
14508TIP3    H265016   0.654   1.901  64.251  1.1584 -0.2520  1.5879
14509TIP3   OH265017   3.341   0.023  15.884  0.2596 -0.1828  0.3728
14509TIP3    H165018   3.261   0.064  15.851  0.6679  1.0379  0.8425
14509TIP3    H265019   3.320  -0.003  15.974  0.1764 -0.5235  0.2577
14510TIP3   OH265020   2.258   0.801  60.243  0.4182  0.7914  0.0955
14510TIP3    H165021   2.202   0.844  60.308 -0.3674  0.2061 -0.1638
14510TIP3    H265022   2.347   0.828  60.264  0.0926  1.2113  0.9426
14511TIP3   OH265023   2.502   2.374   8.378 -0.2739  0.3901  0.7451
14511TIP3    H165024   2.417   2.356   8.340 -0.7577  1.6877  1.1582
14511TIP3    H265025   2.562   2.316   8.332 -1.0320  1.0134 -1.1165
14512TIP3   OH265026   2.597   0.324  16.850 -0.1790  0.0957 -0.5007
14512TIP3    H165027   2.601   0.313  16.755 -0.0206  0.8158 -0.5797
14512TIP3    H265028   2.682   0.360  16.874 -0.1068 -0.3664 -0.0447
14513TIP3   OH265029   3.252   2.667   1.983 -0.4333  0.4020 -0.5102
14513TIP3    H165030   3.301   2.625   2.054 -2.1535 -0.7863  0.0472
14513TIP3    H265031   3.300   2.748   1.965  2.2684 -1.1343 -0.7168
14514TIP3   OH265032   2.322   0.313   7.900  0.7984 -0.2750  0.5251
14514TIP3    H165033   2.364   0.230   7.879  0.2951 -0.0894 -1.3500
14514TIP3    H265034   2.267   0.293   7.976  2.5609 -1.0147  1.6838
14515TIP3   OH265035   0.987   2.166  17.052 -0.1639  0.5247 -0.2615
14515TIP3    H165036   0.987   2.247  17.001 -1.1521  1.2478  0.8147
14515TIP3    H265037   0.920   2.111  17.010 -0.3654  0.7755 -0.2744
14516TIP3   OH265038   0.095   1.979  57.414 -0.5716 -0.9512 -0.1452
14516TIP3    H165039   0.084   2.042  57.344  2.7065  1.1624  0.9952
14516TIP3    H265040   0.052   2.018  57.490 -0.2581 -1.0559  0.0895
14517TIP3   OH265041   1.544   1.413  52.673 -0.6446 -0.2099 -0.2483
14517TIP3    H165042   1.593   1.348  52.723 -0.6373 -0.9424 -1.1722
14517TIP3    H265043   1.507   1.363  52.600 -0.9027  0.7707 -0.7984
14518TIP3   OH265044   2.357   0.402  28.398 -0.2620 -0.2637 -0.3272
14518TIP3    H165045   2.330   0.469  28.335  1.2271  0.6589 -0.0514
14518TIP3    H265046   2.334   0.319  28.357 -1.1437  0.3795 -1.1735
14519TIP3   OH265047   1.175   0.418  13.403 -0.0196  0.1414 -0.2730
14519TIP3    H165048   1.263   0.429  13.366 -0.1155  0.2857 -0.4595
14519TIP3    H265049   1.129   0.499  13.379  0.0358  0.4075  0.4994
14520TIP3   OH265050   3.431   0.711   0.917  0.1378  0.1069 -0.0713
14520TIP3    H165051   3.526   0.699   0.927 -0.1958 -1.2666  1.9090
14520TIP3    H265052   3.396   0.622   0.913 -1.1617  0.5984  0.0136
14521TIP3   OH265053   1.971   2.998  10.494 -0.0905 -0.2761 -0.0855
14521TIP3    H165054   1.961   3.083  10.535 -1.9120 -0.9743  1.0579
14521TIP3    H265055   2.063   2.994  10.469  0.4984  1.2310  1.6123
14522TIP3   OH265056   2.362   1.585  61.384  0.0604  0.1833 -0.0193
14522TIP3    H165057   2.423   1.635  61.330 -1.7569  0.8645 -1.5301
14522TIP3    H265058   2.312   1.651  61.431  0.8474 -0.3841  1.7342
14523TIP3   OH265059   0.480   1.692  54.602 -0.1605  0.4545  0.2908
14523TIP3    H165060   0.477   1.597  54.613  1.3159  0.4583  0.8277
14523TIP3    H265061   0.447   1.727  54.684 -2.1768  0.4417 -0.4484
14524TIP3   OH265062   1.070   1.080   6.527 -1.0635  0.0385 -0.1862
14524TIP3    H165063   1.040   1.035   6.606 -0.7804 -0.9580 -0.6255
14524TIP3    H265064   1.008   1.152   6.515 -1.2979  0.0087  0.7534
14525TIP3   OH265065   2.991   2.845  55.245  0.3484 -0.2490  0.0735
14525TIP3    H165066   3.063   2.820  55.186 -0.2902 -2.1132  0.0219
14525TIP3    H265067   2.923   2.780  55.229 -0.4905  0.1651  1.7219
14526TIP3   OH265068   0.056   2.661  60.695 -0.2581  1.2296  0.0623
14526TIP3    H165069   0.123   2.659  60.627 -0.8804  0.2785 -0.5453
14526TIP3    H265070   0.099   2.623  60.772 -0.7506 -1.7062 -0.9904
14527TIP3   OH265071   0.321   2.001   3.303  0.0138  0.3598  0.5153
14527TIP3    H165072   0.402   2.035   3.343  1.1890  1.3765 -2.4473
14527TIP3    H265073   0.260   2.075   3.305 -0.0449  0.3048  0.7378
14528TIP3   OH265074   3.044   3.054  44.525  0.0028 -0.2405 -0.3007
14528TIP3    H165075   3.100   3.130  44.511 -1.5223  0.9591 -0.1221
14528TIP3    H265076   3.090   2.982  44.481  1.1647  0.9067 -1.0268
14529TIP3   OH265077   1.081   2.001  33.593  0.1564  0.2747 -0.2701
14529TIP3    H165078   1.052   2.022  33.504 -0.7400  0.8371  0.1357
14529TIP3    H265079   1.016   1.937  33.625 -0.2690  1.0117  0.4013
14530TIP3   OH265080   0.394   2.754  57.348  0.2743  0.3292 -0.1761
14530TIP3    H165081   0.407   2.707  57.266 -0.1851  1.0003 -0.6466
14530TIP3    H265082   0.299   2.765  57.354  0.3278  0.5807  0.2716
14531TIP3   OH265083   1.655   0.113   9.654 -0.7361  0.3300  0.0796
14531TIP3    H165084   1.733   0.114   9.599 -1.5414 -1.8748 -1.2479
14531TIP3    H265085   1.589   0.068   9.601 -3.1456  2.6249  0.8967
14532TIP3   OH265086   0.482   2.692  65.026  0.2000  0.1620 -0.4241
14532TIP3    H165087   0.518   2.645  64.951 -0.3050 -1.6872  0.4391
14532TIP3    H265088   0.537   2.667  65.100 -1.3673 -0.8747  0.4586
14533TIP3   OH265089   2.928   1.965   3.795 -0.6549  0.5376  0.0652
14533TIP3    H165090   2.834   1.952   3.779 -0.0387 -1.6454 -2.4382
14533TIP3    H265091   2.955   2.028   3.729 -0.0086 -0.4073 -0.5965
14534TIP3   OH265092   0.218   0.980   0.931  0.0695  0.2146 -0.4597
14534TIP3    H165093   0.129   0.995   0.899 -0.5404  0.2569  1.1469
14534TIP3    H265094   0.219   0.888   0.957  0.2888  0.3705  0.1006
14535TIP3   OH265095   1.990   0.142  65.638  0.1820  0.4944 -0.0373
14535TIP3    H165096   2.085   0.147  65.645  0.0239  1.5969  2.2209
14535TIP3    H265097   1.971   0.168  65.548  2.0084  0.0175 -0.6056
14536TIP3   OH265098   0.174   1.363  63.937  0.3493  0.0710  0.5872
14536TIP3    H165099   0.083   1.337  63.921  0.7559 -0.9435 -0.2555
14536TIP3    H265100   0.203   1.403  63.854  1.0177 -0.7334  0.4119
14537TIP3   OH265101   2.213   0.713  22.222 -0.2514  0.2031  0.1854
14537TIP3    H165102   2.265   0.792  22.235 -0.6893  0.4847  0.2366
14537TIP3    H265103   2.197   0.680  22.311 -1.5852  1.0491  0.2802
14538TIP3   OH265104   1.890   2.003   0.624  0.1264 -1.2848 -0.1293
14538TIP3    H165105   1.845   1.992   0.540 -1.7916  1.5660  0.3805
14538TIP3    H265106   1.820   1.995   0.689  0.1120  3.3373  0.7142
14539TIP3   OH265107   2.042   2.733  66.028 -0.3771 -0.3561 -0.0214
14539TIP3    H165108   2.077   2.644  66.016 -1.0499 -0.7822  0.9877
14539TIP3    H265109   2.035   2.742  66.123 -0.6519  0.6501 -0.1351
14540TIP3   OH265110   0.347   0.637  29.278 -0.5166  0.0374  0.1991
14540TIP3    H165111   0.403   0.595  29.343  1.0585  0.1305 -1.0373
14540TIP3    H265112   0.293   0.567  29.244 -0.7500 -0.1766  0.9838
14541TIP3   OH265113   1.831   2.201  12.988  0.0180  0.1830  0.1920
14541TIP3    H165114   1.890   2.126  12.991  0.5569  0.5863 -0.1869
14541TIP3    H265115   1.832   2.229  12.896 -1.8720 -0.6721 -0.1343
14542TIP3   OH265116   1.592   2.747  54.622 -0.3054  0.1610  0.1302
14542TIP3    H165117   1.497   2.738  54.625 -0.4494  1.4164 -0.0910
14542TIP3    H265118   1.606   2.839  54.599  0.9517 -0.2548 -0.8918
14543TIP3   OH265119   1.986   1.726  19.542  0.2398  0.1876 -0.3705
14543TIP3    H165120   1.997   1.652  19.602 -1.6808 -0.9993 -1.3824
14543TIP3    H265121   2.040   1.703  19.466  0.4893  0.3533 -0.2439
14544TIP3   OH265122   3.324   0.720  27.612 -0.0879  0.4030  0.0747
14544TIP3    H165123   3.369   0.637  27.598  0.1182  0.7201 -1.2903
14544TIP3    H265124   3.244   0.713  27.560  0.0343  1.1306 -0.2299
14545TIP3   OH265125   0.898   1.894  35.154 -0.0348 -0.4907 -0.3214
14545TIP3    H165126   0.821   1.895  35.211 -0.7696 -0.6674 -1.2888
14545TIP3    H265127   0.905   1.804  35.125  1.2032 -0.7195  0.6064
14546TIP3   OH265128   0.041   1.463  49.510  0.3161 -0.3497  0.1275
14546TIP3    H165129   0.120   1.515  49.525  0.2719  0.6860 -2.6566
14546TIP3    H265130  -0.008   1.512  49.444 -1.2511 -2.3961 -0.3294
14547TIP3   OH265131   0.715   1.580  16.179 -0.1162  0.3764 -0.2460
14547TIP3    H165132   0.704   1.663  16.225 -1.3632  0.5347 -0.7899
14547TIP3    H265133   0.634   1.532  16.195  0.9615 -1.1745  0.8617
14548TIP3   OH265134   0.207   0.019  60.307 -0.1235 -0.7465  0.2082
14548TIP3    H165135   0.256  -0.036  60.246 -0.5055 -1.2392  0.3395
14548TIP3    H265136   0.204  -0.033  60.388  0.1383 -0.2185  0.5614
14549TIP3   OH265137   1.893   2.986  19.940  1.0727 -0.4973  0.4031
14549TIP3    H165138   1.848   2.909  19.975  0.1165  0.9480  2.5709
14549TIP3    H265139   1.823   3.038  19.899  1.4284 -0.0191  0.3918
14550TIP3   OH265140   0.345   1.811   0.329  0.1691 -0.1444  0.9364
14550TIP3    H165141   0.360   1.735   0.272  1.0499  0.7150 -0.0176
14550TIP3    H265142   0.412   1.802   0.398  0.3515 -0.1788  0.7573
14551TIP3   OH265143   2.323   0.066  60.898 -0.5838  0.4781  0.2953
14551TIP3    H165144   2.270   0.009  60.842  2.2842  0.4547 -2.7028
14551TIP3    H265145   2.306   0.154  60.865 -1.5158  0.9459  1.8827
14552TIP3   OH265146   3.295   1.839  52.071 -0.7401 -0.1248  0.0640
14552TIP3    H165147   3.380   1.856  52.031 -1.2346  2.7193  0.0147
14552TIP3    H265148   3.233   1.843  51.998 -1.1629  0.4538  0.4388
14553TIP3   OH265149   3.298   2.574   6.732 -0.0606 -0.2843 -0.2894
14553TIP3    H165150   3.368   2.511   6.748  0.6205  0.8473  1.5318
14553TIP3    H265151   3.275   2.607   6.820 -0.0317  2.3196 -1.1629
14554TIP3   OH265152   0.218   2.145  53.256 -0.1065 -0.1848 -0.2583
14554TIP3    H165153   0.136   2.193  53.266 -0.2696 -0.6389  0.7428
14554TIP3    H265154   0.192   2.059  53.222  0.1261  0.2188 -1.4891
14555TIP3   OH265155   2.707   1.144  18.243  0.2512 -0.3301  0.3222
14555TIP3    H165156   2.734   1.067  18.193  1.0798 -1.0609  1.8142
14555TIP3    H265157   2.635   1.114  18.298  0.7139 -0.1167  1.0649
14556TIP3   OH265158   1.998   1.194  61.311 -0.4718 -0.5999 -0.5792
14556TIP3    H165159   2.007   1.250  61.387  1.3319 -2.0652  0.3674
14556TIP3    H265160   1.935   1.127  61.337  0.1664 -1.1176 -0.3379
14557TIP3   OH265161   0.504   3.283  57.907 -0.3306  0.5148  0.3558
14557TIP3    H165162   0.461   3.339  57.971 -2.3535 -1.3208  0.7060
14557TIP3    H265163   0.471   3.314  57.822  1.6777  2.3731  0.1554
14558TIP3   OH265164   2.977   0.984  14.886 -0.6280  0.4975  0.2839
14558TIP3    H165165   2.978   0.892  14.860 -1.1567  0.7175 -0.5932
14558TIP3    H265166   2.884   1.006  14.891 -0.5123  1.2279 -0.4903
14559TIP3   OH265167   1.629   0.996  13.759  0.4979 -0.7004 -0.6969
14559TIP3    H165168   1.705   0.942  13.737  0.4457 -0.7491 -0.7582
14559TIP3    H265169   1.614   0.979  13.852  0.2454 -1.0913 -0.8049
14560TIP3   OH265170   2.692   0.474  62.783 -0.2528 -0.1324  0.2569
14560TIP3    H165171   2.632   0.401  62.772  0.5921 -0.9167  0.7526
14560TIP3    H265172   2.779   0.435  62.783  0.2424  0.9185  0.1241
14561TIP3   OH265173   1.084   2.612  36.080  0.2571  0.7569  0.1347
14561TIP3    H165174   1.131   2.679  36.031 -0.2258  0.8452 -0.2144
14561TIP3    H265175   1.126   2.611  36.166  3.0372 -1.3763 -1.0868
14562TIP3   OH265176   1.606   3.147  55.723 -0.0211  0.6828  0.0088
14562TIP3    H165177   1.520   3.159  55.684 -0.6417  0.2572  1.1934
14562TIP3    H265178   1.626   3.230  55.766 -0.6875  0.1962  1.3047
14563TIP3   OH265179   0.443   0.861  36.364  0.4535 -0.2457 -0.3196
14563TIP3    H165180   0.504   0.934  36.373 -1.0378  0.8437  1.4964
14563TIP3    H265181   0.456   0.808  36.443 -0.4171 -0.4132 -0.2802
14564TIP3   OH265182   2.850   0.981  66.355 -0.0542  0.3054 -0.1825
14564TIP3    H165183   2.896   1.065  66.341 -0.7421  0.9627  1.3140
14564TIP3    H265184   2.854   0.938  66.270  1.1778  1.4316 -0.7367
14565TIP3   OH265185   1.172   3.310  14.336  0.3328 -0.2222 -0.0589
14565TIP3    H165186   1.263   3.303  14.309  0.4696  2.8364 -0.7651
14565TIP3    H265187   1.175   3.310  14.432  1.0073 -0.7387 -0.0786
14566TIP3   OH265188   0.201   1.625  14.440 -0.1691 -0.6338 -0.3878
14566TIP3    H165189   0.277   1.622  14.499  0.0926 -3.3497 -0.7357
14566TIP3    H265190   0.127   1.640  14.498  0.4227  0.0701  0.2055
14567TIP3   OH265191   2.620   1.106  56.134  0.1765  0.4685 -0.7140
14567TIP3    H165192   2.658   1.129  56.219 -1.4125  0.2390  0.0874
14567TIP3    H265193   2.682   1.141  56.070  1.6678  0.2059  0.5240
14568TIP3   OH265194   2.383   1.261  60.256  0.4367  0.0211 -0.2419
14568TIP3    H165195   2.450   1.323  60.230  1.0334 -0.4482  0.1460
14568TIP3    H265196   2.361   1.213  60.176  0.0220  0.6789 -0.5268
14569TIP3   OH265197   1.556   0.745  46.197  0.3517 -0.3328 -0.1413
14569TIP3    H165198   1.532   0.679  46.132 -1.7506 -1.3827  1.5537
14569TIP3    H265199   1.472   0.770  46.237  1.3568  1.6907  0.8412
14570TIP3   OH265200   1.899   0.821   0.382 -0.0896 -0.1989 -0.3041
14570TIP3    H165201   1.960   0.791   0.449  2.8311 -0.7164 -3.0218
14570TIP3    H265202   1.904   0.917   0.387 -1.5911 -0.1402  1.5283
14571TIP3   OH265203   0.727   0.207  52.370 -0.1510 -0.2436 -0.1110
14571TIP3    H165204   0.810   0.249  52.348 -0.5487  0.5941 -0.0288
14571TIP3    H265205   0.733   0.189  52.464 -0.8629  1.6728  0.3291
14572TIP3   OH265206   0.210   0.832   8.089  0.0065  0.0346  0.1036
14572TIP3    H165207   0.192   0.860   8.178  1.5547  0.3977  0.3393
14572TIP3    H265208   0.162   0.894   8.034  0.5782  1.0231  0.6796
14573TIP3   OH265209   2.201   3.045  54.728 -0.4233  0.2723  0.6302
14573TIP3    H165210   2.233   2.958  54.703  0.2728  0.1911  1.7201
14573TIP3    H265211   2.165   3.032  54.816 -0.8921  0.9560  0.5398
14574TIP3   OH265212   3.255   0.686  60.134 -0.1182  0.2190 -0.3256
14574TIP3    H165213   3.291   0.597  60.140 -0.3566  0.0610 -1.2124
14574TIP3    H265214   3.187   0.689  60.202 -0.6628 -0.5361 -0.8354
14575TIP3   OH265215   0.982   1.486   9.824 -0.3272  0.0497  0.3701
14575TIP3    H165216   0.938   1.544   9.887  0.9276  0.8467  0.5565
14575TIP3    H265217   0.957   1.398   9.851  0.4389  0.3536  2.2216
14576TIP3   OH265218   0.059   2.538  51.613 -0.5632  0.0744 -0.3558
14576TIP3    H165219   0.079   2.581  51.696 -0.0202  1.2201 -1.0441
14576TIP3    H265220  -0.026   2.573  51.588 -1.6568 -1.7456  0.6227
14577TIP3   OH265221   0.296   0.083  50.639 -0.0370  0.5757 -0.2332
14577TIP3    H165222   0.282   0.164  50.590  1.1374 -0.0708 -1.7190
14577TIP3    H265223   0.354   0.031  50.584  0.1772 -0.8114  1.2161
14578TIP3   OH265224   0.944   2.424  46.940 -0.0766 -0.2607  0.5532
14578TIP3    H165225   1.019   2.377  46.903 -0.6576 -1.8742  1.3303
14578TIP3    H265226   0.875   2.358  46.946 -1.0307  0.7753  1.4489
14579TIP3   OH265227   0.899   1.967  59.514  0.2339  0.7321 -0.1961
14579TIP3    H165228   0.813   1.961  59.554 -0.4586  3.5504 -1.0179
14579TIP3    H265229   0.904   1.892  59.455 -1.5851  0.4467 -0.0266
14580TIP3   OH265230   1.042   0.285  58.945 -0.4373 -0.5538 -0.8286
14580TIP3    H165231   1.015   0.335  58.869  0.5220 -0.8706 -1.3937
14580TIP3    H265232   1.132   0.259  58.926 -0.5501 -1.5639 -0.0779
14581TIP3   OH265233   1.835   0.214  43.181 -0.4871  0.1292 -0.0132
14581TIP3    H165234   1.860   0.247  43.095  0.8874  0.2273  0.3974
14581TIP3    H265235   1.790   0.131  43.163 -1.8110  0.9979 -0.9105
14582TIP3   OH265236   3.333   1.453  60.946  0.3814 -0.1062 -0.2809
14582TIP3    H165237   3.399   1.511  60.984  0.9706 -1.0398  0.1745
14582TIP3    H265238   3.276   1.431  61.019  0.5702 -0.6381 -0.2883
14583TIP3   OH265239   3.137   0.388  31.424  0.2943  0.5467 -0.1480
14583TIP3    H165240   3.104   0.452  31.362 -0.6191  1.6406  1.3983
14583TIP3    H265241   3.232   0.390  31.414  0.4033  3.1380  0.7522
14584TIP3   OH265242   2.967   3.123  18.841 -0.6811  0.1015 -0.6623
14584TIP3    H165243   2.917   3.045  18.818 -0.3106 -0.5208  0.5714
14584TIP3    H265244   2.902   3.192  18.849 -0.9416  0.1111 -2.4393
14585TIP3   OH265245   0.776   3.106  64.292 -0.1617 -0.2939  0.2611
14585TIP3    H165246   0.844   3.058  64.245  0.4826 -0.3534  1.2095
14585TIP3    H265247   0.823   3.176  64.337 -0.2957 -1.6653  2.7657
14586TIP3   OH265248   2.099   2.996  63.380  0.4689  0.1610 -0.1264
14586TIP3    H165249   2.100   3.034  63.293  0.2689 -1.6352 -0.9566
14586TIP3    H265250   2.007   2.996  63.406  0.5914  1.2728  0.3917
14587TIP3   OH265251   2.655   0.687  48.249  0.1503 -0.6744 -0.7001
14587TIP3    H165252   2.647   0.780  48.228 -2.0589 -0.7635 -0.5393
14587TIP3    H265253   2.748   0.674  48.268  0.6257  1.3330 -1.4071
14588TIP3   OH265254   0.091   2.040  47.710  0.0214 -0.4400 -0.1461
14588TIP3    H165255   0.020   2.082  47.663 -0.0031 -0.2971  0.0183
14588TIP3    H265256   0.140   2.112  47.750  1.0775 -0.4394 -1.3934
14589TIP3   OH265257   0.371   1.711  66.444 -0.4662  0.1444 -0.1313
14589TIP3    H165258   0.318   1.635  66.418 -0.4281 -0.4905  1.5571
14589TIP3    H265259   0.424   1.730  66.366 -0.4688 -1.5607 -0.6105
14590TIP3   OH265260   1.849   2.761  17.286  0.5625 -0.4101 -0.4504
14590TIP3    H165261   1.780   2.813  17.328  0.8126 -0.3003 -0.1768
14590TIP3    H265262   1.801   2.696  17.234  0.1872  1.2321 -2.3106
14591TIP3   OH265263   0.657   0.848  61.717 -0.1287 -0.1550  0.7019
14591TIP3    H165264   0.566   0.837  61.747  0.0513 -0.7132  1.0614
14591TIP3    H265265   0.708   0.792  61.775  0.3609 -0.4169  0.0289
14592TIP3   OH265266   0.896   0.849   3.700  0.6428  0.7799  0.1771
14592TIP3    H165267   0.909   0.785   3.631 -0.5020  1.1499 -0.4025
14592TIP3    H265268   0.862   0.927   3.656 -0.0979  1.0288  1.1279
14593TIP3   OH265269   2.277   0.986   5.766  0.1509  0.3550  0.1876
14593TIP3    H165270   2.339   1.039   5.815  0.2024 -2.2042  3.2736
14593TIP3    H265271   2.327   0.910   5.737 -0.4925  0.5969 -1.6905
14594TIP3   OH265272   3.119   1.780  16.593  0.2289 -0.7925  0.4139
14594TIP3    H165273   3.128   1.808  16.502  1.7760 -0.7528  0.5513
14594TIP3    H265274   3.091   1.859  16.639  1.6108 -0.2004  0.3025
14595TIP3   OH265275   0.124   0.708  47.316 -0.3610  0.0808  0.1916
14595TIP3    H165276   0.087   0.648  47.381 -1.4186 -0.1348 -0.5929
14595TIP3    H265277   0.114   0.795  47.356  0.4252 -0.1686  0.9708
14596TIP3   OH265278   3.025   1.504  10.295 -0.1980 -0.2633 -0.3021
14596TIP3    H165279   3.090   1.547  10.350 -0.2751 -0.1693 -0.2848
14596TIP3    H265280   2.984   1.574  10.245 -2.1306  0.0712  1.5846
14597TIP3   OH265281   0.465   2.284  53.235  0.8253  0.4335 -0.0006
14597TIP3    H165282   0.473   2.354  53.170  0.4612  1.0359  0.5951
14597TIP3    H265283   0.382   2.242  53.214  0.8671  0.4161 -0.1335
14598TIP3   OH265284   0.421   2.139  39.234 -0.0062  0.7280 -0.4877
14598TIP3    H165285   0.421   2.211  39.172 -1.5389  2.7237  1.6636
14598TIP3    H265286   0.508   2.143  39.275  0.1254  0.9822 -0.7922
14599TIP3   OH265287   0.410   1.567  16.205 -0.5989  0.7940  0.4106
14599TIP3    H165288   0.437   1.654  16.175  1.5578 -0.3239 -1.1533
14599TIP3    H265289   0.435   1.565  16.297  1.4254  1.1233 -0.0753
14600TIP3   OH265290   0.090   3.077  43.769 -0.0316 -0.3918  0.3147
14600TIP3    H165291   0.069   3.008  43.706 -0.8198  0.4930 -0.4312
14600TIP3    H265292   0.185   3.077  43.775 -0.0479 -2.1149  1.0057
14601TIP3   OH265293   0.293   2.920  64.218  0.2306 -0.2419  0.1366
14601TIP3    H165294   0.219   2.965  64.177  0.9701  1.1252  0.2473
14601TIP3    H265295   0.368   2.941  64.163  0.6917 -0.8744  0.5149
14602TIP3   OH265296   0.033   0.340  43.426 -0.8911  0.4420 -0.4012
14602TIP3    H165297  -0.036   0.290  43.381  0.2188 -1.3770 -0.2182
14602TIP3    H265298   0.021   0.320  43.519  0.6798 -1.1297 -0.4584
14603TIP3   OH265299   3.033   1.090  57.924  0.0478  0.2684  0.3578
14603TIP3    H165300   3.054   1.176  57.888 -0.3837  0.0644 -0.4092
14603TIP3    H265301   3.116   1.042  57.922 -0.1442 -0.0668 -1.3313
14604TIP3   OH265302   0.502   1.305  47.557 -0.2210 -1.1561 -0.5461
14604TIP3    H165303   0.597   1.295  47.556 -0.1827 -0.8048 -1.6958
14604TIP3    H265304   0.468   1.215  47.552  0.0181 -1.3556  0.8660
14605TIP3   OH265305   2.869   2.313   4.625  0.5072  0.4826  0.6150
14605TIP3    H165306   2.823   2.253   4.683  0.0672  0.2624  0.0498
14605TIP3    H265307   2.889   2.261   4.547  1.2257  0.7282  0.6221
14606TIP3   OH265308   1.891   2.301  59.661 -1.0799  0.2564 -0.2477
14606TIP3    H165309   1.938   2.299  59.744 -1.1076  0.6437 -0.2202
14606TIP3    H265310   1.903   2.214  59.624  0.6996  0.6989 -0.8166
14607TIP3   OH265311   0.069   0.730  55.922  0.0001  0.1173 -0.0478
14607TIP3    H165312   0.098   0.810  55.879  0.6155  0.7831  1.5383
14607TIP3    H265313   0.150   0.692  55.957 -0.4874 -0.3780  0.5508
14608TIP3   OH265314   2.292   1.967  65.916  0.3146  0.1234 -0.2682
14608TIP3    H165315   2.345   1.986  65.994 -0.0439 -0.2464  0.0731
14608TIP3    H265316   2.313   1.876  65.895 -0.3587 -0.1114  0.0215
14609TIP3   OH265317   0.218   2.728  64.931  0.3489 -0.3716  0.0929
14609TIP3    H165318   0.145   2.722  64.993 -0.6887  0.9358 -0.9308
14609TIP3    H265319   0.296   2.712  64.984 -0.6583 -1.9509  1.1887
14610TIP3   OH265320   2.971   0.451  25.809 -0.3226  0.2625  0.1232
14610TIP3    H165321   3.031   0.390  25.851 -0.6635  1.0465  1.8543
14610TIP3    H265322   2.926   0.399  25.743  2.3758 -0.3016 -1.4414
14611TIP3   OH265323   3.354   2.027  56.933  0.1579  0.5059  0.9535
14611TIP3    H165324   3.351   2.121  56.916  3.2916  0.1543 -3.4332
14611TIP3    H265325   3.280   1.991  56.885  0.7182  0.5807  0.0065
14612TIP3   OH265326   2.066   0.058  46.477 -0.5772  0.1967 -0.3488
14612TIP3    H165327   1.984   0.010  46.472 -0.4045 -0.1591  0.1631
14612TIP3    H265328   2.121   0.020  46.408 -0.0936 -1.0283  0.6796
14613TIP3   OH265329   1.793   3.045   0.303  0.0024  0.2493  0.0536
14613TIP3    H165330   1.764   2.972   0.357  0.3410 -0.5397 -0.8119
14613TIP3    H265331   1.726   3.051   0.234  1.3975 -1.0544 -1.4845
14614TIP3   OH265332   0.009   0.209  18.639  0.0209  0.3557 -0.6001
14614TIP3    H165333   0.013   0.125  18.687 -0.5123 -0.0535 -1.2586
14614TIP3    H265334  -0.052   0.192  18.567  1.3996  0.7175 -1.9016
14615TIP3   OH265335   3.151   1.626  46.946  0.2388 -0.5923  0.2358
14615TIP3    H165336   3.206   1.645  47.021  1.2842  0.0576 -0.6590
14615TIP3    H265337   3.156   1.530  46.935 -0.2316 -0.7329  1.1981
14616TIP3   OH265338   2.285   1.682  53.262  0.5920 -0.0436 -0.2867
14616TIP3    H165339   2.226   1.626  53.212 -2.1564  1.5424  0.9266
14616TIP3    H265340   2.317   1.747  53.200 -0.8762  0.4767 -0.5337
14617TIP3   OH265341   0.021   1.637   6.795 -0.4831  0.0327  0.4587
14617TIP3    H165342   0.006   1.563   6.736 -1.4871  0.2658  0.4086
14617TIP3    H265343   0.081   1.695   6.746  0.7497 -0.9817  0.7172
14618TIP3   OH265344   0.872   3.061  36.709  0.1412  0.1584  0.3720
14618TIP3    H165345   0.892   3.023  36.795  1.1767  0.8084  0.4415
14618TIP3    H265346   0.789   3.022  36.684  0.0596 -0.4064  1.4591
14619TIP3   OH265347   2.976   3.264  64.542 -0.3425  0.1348 -0.2043
14619TIP3    H165348   2.987   3.322  64.467 -0.0060  2.0618  1.2746
14619TIP3    H265349   3.043   3.292  64.604 -1.7559 -0.1881  1.5510
14620TIP3   OH265350   0.586   3.441  42.905 -0.7656 -0.1562 -0.1354
14620TIP3    H165351   0.665   3.402  42.943 -2.9387 -4.4638  0.6074
14620TIP3    H265352   0.603   3.443  42.811  0.1432 -1.3668 -0.0237
14621TIP3   OH265353   2.763   0.257  66.880 -0.0126  0.3808  0.2389
14621TIP3    H165354   2.833   0.321  66.866 -0.2704  0.7291  0.5122
14621TIP3    H265355   2.808   0.178  66.910  0.1035  1.3730  2.9167
14622TIP3   OH265356   2.219   3.227  11.001  0.6238 -0.5118  0.2634
14622TIP3    H165357   2.210   3.137  11.033 -0.9369 -0.4278  0.1502
14622TIP3    H265358   2.186   3.280  11.073  2.0016  0.0247  0.5243
14623TIP3   OH265359   1.799   0.813   5.331 -0.3721  0.3218  0.0202
14623TIP3    H165360   1.841   0.840   5.249  1.2633  1.4601  1.1988
14623TIP3    H265361   1.713   0.780   5.303 -0.2096  1.4871 -2.0596
14624TIP3   OH265362   2.241   1.751   3.263  0.1066  0.3475 -0.4352
14624TIP3    H165363   2.214   1.747   3.355 -0.5972 -0.1987 -0.6550
14624TIP3    H265364   2.180   1.693   3.217  1.1383 -0.2650 -1.0832
14625TIP3   OH265365   1.209   1.725  20.962  0.1155 -0.6757 -0.1725
14625TIP3    H165366   1.199   1.780  21.039 -2.1605 -0.3984 -0.6131
14625TIP3    H265367   1.304   1.715  20.952  0.7450  3.8941 -0.6058
14626TIP3   OH265368   1.587   2.725  18.107  0.3050 -0.0203  0.2625
14626TIP3    H165369   1.666   2.776  18.123 -0.2280  0.6256  0.8873
14626TIP3    H265370   1.595   2.695  18.016  2.4448 -2.0701  1.0189
14627TIP3   OH265371   0.093   0.890  45.802 -0.1997 -0.3657 -0.1472
14627TIP3    H165372   0.140   0.972  45.784 -0.4349 -0.1842  0.0633
14627TIP3    H265373   0.163   0.827  45.822 -0.0722  0.0951  0.9391
14628TIP3   OH265374   1.512   0.513  21.963 -0.6836 -0.1992 -0.5435
14628TIP3    H165375   1.486   0.477  21.878  1.0967  0.1295 -1.2890
14628TIP3    H265376   1.499   0.441  22.025 -0.3467 -1.0486 -1.4273
14629TIP3   OH265377   3.201   0.242  65.068 -0.3670  0.2180  0.5762
14629TIP3    H165378   3.180   0.292  65.147 -0.7904 -0.7606  1.1074
14629TIP3    H265379   3.121   0.246  65.015 -0.2503  0.4717  0.4212
14630TIP3   OH265380   2.853   0.249  19.141 -0.0634 -0.4664 -0.2226
14630TIP3    H165381   2.933   0.299  19.157 -1.2388  1.8881 -1.2750
14630TIP3    H265382   2.808   0.246  19.225 -1.2342  2.7089 -0.5984
14631TIP3   OH265383   0.382   2.147  14.697  0.5636  0.0284  0.7411
14631TIP3    H165384   0.412   2.125  14.786 -0.0838 -0.5348  0.8279
14631TIP3    H265385   0.299   2.101  14.688 -0.1857  1.3981  0.4283
14632TIP3   OH265386   2.889   3.209   1.760 -0.1212  0.1908  0.3185
14632TIP3    H165387   2.836   3.278   1.719  0.0686  0.5347  0.6412
14632TIP3    H265388   2.972   3.252   1.780 -0.0398 -0.1052  0.6204
14633TIP3   OH265389   2.161   1.686  20.635  0.0140 -0.1332 -0.0106
14633TIP3    H165390   2.206   1.682  20.551  0.9416 -0.1523  0.4757
14633TIP3    H265391   2.216   1.636  20.695 -1.0015 -0.7266  0.4540
14634TIP3   OH265392   1.448   3.278  10.962  0.1084 -0.4246 -0.3513
14634TIP3    H165393   1.383   3.347  10.978 -0.0724 -0.1721 -2.0074
14634TIP3    H265394   1.523   3.324  10.923  0.7658 -0.9042  0.3276
14635TIP3   OH265395   0.451   2.702  14.956 -0.1320 -0.1007 -0.2338
14635TIP3    H165396   0.383   2.764  14.928 -1.2672 -0.2343  1.9784
14635TIP3    H265397   0.500   2.748  15.024  0.0302 -1.0461  0.3215
14636TIP3   OH265398   2.430   0.761  64.744  0.8815  0.5856  0.3676
14636TIP3    H165399   2.449   0.795  64.657  2.0050  2.4886  1.2611
14636TIP3    H265400   2.343   0.795  64.764 -0.5855 -2.1365 -0.9942
14637TIP3   OH265401   3.077   3.390  13.937 -0.7690  0.2045 -0.1094
14637TIP3    H165402   3.112   3.417  14.022 -1.3851 -1.7999  0.8617
14637TIP3    H265403   3.005   3.451  13.921 -0.9269  0.3545  1.0434
14638TIP3   OH265404   2.223   2.864  50.387  0.5083  0.0329 -0.2156
14638TIP3    H165405   2.261   2.776  50.399  1.4115  0.6643  1.9828
14638TIP3    H265406   2.213   2.898  50.476 -1.8955  1.3486 -0.8999
14639TIP3   OH265407   1.754   0.211  64.247  0.6061 -0.9087 -0.2667
14639TIP3    H165408   1.821   0.214  64.315 -0.5520  0.7069  0.8556
14639TIP3    H265409   1.718   0.299  64.243 -0.1157 -1.2224 -2.2462
14640TIP3   OH265410   1.248   0.358   8.814 -0.1152 -0.3863 -0.2638
14640TIP3    H165411   1.248   0.400   8.728  0.9657 -1.2147 -0.6956
14640TIP3    H265412   1.155   0.347   8.836 -0.4002  0.3098 -1.0769
14641TIP3   OH265413   2.613   1.531   5.024 -0.2479 -0.5943 -0.5536
14641TIP3    H165414   2.671   1.571   5.088 -0.7068  0.3822 -0.7201
14641TIP3    H265415   2.656   1.546   4.940 -0.9681  0.6098 -0.7317
14642TIP3   OH265416   1.441   2.344  66.998  0.2637  0.3523 -0.4587
14642TIP3    H165417   1.437   2.392  67.081  0.5067  0.5151 -0.5415
14642TIP3    H265418   1.368   2.283  67.002 -0.7769  1.5243 -0.8449
14643TIP3   OH265419   2.936   2.784  47.158  0.5526  0.0205  0.1375
14643TIP3    H165420   3.016   2.809  47.204  0.1133 -1.1466  1.6085
14643TIP3    H265421   2.871   2.848  47.187  1.3245  2.2857 -2.6521
14644TIP3   OH265422   2.005   3.224  20.075 -0.4890  0.5686  0.2577
14644TIP3    H165423   2.030   3.279  20.002 -2.4344 -0.8494 -1.6188
14644TIP3    H265424   2.007   3.135  20.040  0.1428 -0.3608  2.4495
14645TIP3   OH265425   0.500   0.708  11.649  0.3430  0.4776  0.1111
14645TIP3    H165426   0.582   0.755  11.667 -0.1999  1.1297  1.0038
14645TIP3    H265427   0.432   0.766  11.684 -0.5169  0.0468 -0.8220
14646TIP3   OH265428   1.469   3.153   2.352 -0.2618 -0.1473  0.0128
14646TIP3    H165429   1.393   3.097   2.367  0.2422 -1.0432 -0.7171
14646TIP3    H265430   1.533   3.125   2.418  0.5432 -1.4857 -1.2835
14647TIP3   OH265431   0.540   3.110  61.461 -0.1363 -0.3564 -0.1657
14647TIP3    H165432   0.586   3.059  61.527 -0.7013  0.1483  0.6325
14647TIP3    H265433   0.494   3.046  61.407  2.9611 -1.0642 -2.2011
14648TIP3   OH265434   2.213   0.767   7.144  0.7729 -0.3679  0.2341
14648TIP3    H165435   2.151   0.838   7.160  0.3746 -0.7687  0.4955
14648TIP3    H265436   2.167   0.708   7.085  0.8980 -0.6790  0.4437
14649TIP3   OH265437   0.379   0.274  58.460  0.6792 -0.1169 -0.2977
14649TIP3    H165438   0.336   0.330  58.524  1.3067 -0.3296  0.3225
14649TIP3    H265439   0.468   0.263  58.493  0.4192 -1.9611 -0.0566
14650TIP3   OH265440   2.999   3.436   7.692  0.0876 -0.5919  0.0702
14650TIP3    H165441   2.997   3.497   7.619 -3.8686 -0.2304  0.2892
14650TIP3    H265442   2.985   3.491   7.769 -1.8470 -1.5332  0.4375
14651TIP3   OH265443   2.558   2.020   6.859 -0.0237 -0.0989  1.0931
14651TIP3    H165444   2.602   2.104   6.845  0.3392 -0.3491  0.7054
14651TIP3    H265445   2.534   2.021   6.952  1.9768 -0.4915  1.6590
14652TIP3   OH265446   1.431   1.439  63.512  0.4153 -0.2076 -0.0829
14652TIP3    H165447   1.338   1.455  63.529  0.4494  0.6657 -0.6985
14652TIP3    H265448   1.477   1.487  63.581  0.4324  0.1035 -0.3082
14653TIP3   OH265449   1.326   0.561  39.213  1.1647  0.5727 -0.0867
14653TIP3    H165450   1.245   0.526  39.176  0.9179  0.6302  0.3861
14653TIP3    H265451   1.396   0.520  39.162  0.8266  1.1764 -1.0848
14654TIP3   OH265452   1.282   1.020  15.132 -0.1542 -0.2609 -0.2350
14654TIP3    H165453   1.224   1.096  15.126 -1.1743 -0.8539  1.3769
14654TIP3    H265454   1.224   0.948  15.157  0.8477 -1.5067 -1.3418
14655TIP3   OH265455   0.732   3.301  50.870 -0.7569 -0.2853 -0.1930
14655TIP3    H165456   0.641   3.279  50.850 -0.6454 -0.0655 -0.9902
14655TIP3    H265457   0.757   3.363  50.801 -0.6985  1.4311  1.2767
14656TIP3   OH265458   3.119   2.839   8.966  0.4717 -0.0389  0.6705
14656TIP3    H165459   3.111   2.753   9.006  2.5924  0.3264  2.0705
14656TIP3    H265460   3.212   2.862   8.977  0.3124  1.7413 -1.0979
14657TIP3   OH265461   3.048   0.381  60.009  0.2655 -0.0042 -0.0500
14657TIP3    H165462   2.975   0.430  59.971  0.0332  0.2223  0.6852
14657TIP3    H265463   3.022   0.364  60.099  0.2143 -1.7178 -0.3492
14658TIP3   OH265464   3.450   2.772  64.792 -0.3767 -0.1088 -0.1898
14658TIP3    H165465   3.527   2.718  64.809  0.5188  0.7578 -1.3389
14658TIP3    H265466   3.444   2.830  64.869  0.5656  0.3023 -0.4067
14659TIP3   OH265467   2.189   3.218  49.599  0.1005 -0.1054 -0.1208
14659TIP3    H165468   2.155   3.236  49.511 -0.1439 -0.5948 -0.1297
14659TIP3    H265469   2.111   3.191  49.648 -0.0470  1.6438  0.6681
14660TIP3   OH265470   2.634   0.525   3.946 -0.4967 -0.4007  0.0402
14660TIP3    H165471   2.629   0.539   3.851  1.1643  0.9487  0.1164
14660TIP3    H265472   2.552   0.562   3.979 -0.3149  0.7353 -0.7106
14661TIP3   OH265473   0.090   0.406   8.693  0.1712  0.5567  0.0508
14661TIP3    H165474   0.025   0.400   8.623 -0.2663  1.1889  0.3876
14661TIP3    H265475   0.109   0.315   8.717 -1.3507  0.3659  0.6369
14662TIP3   OH265476   1.182   2.629   8.210  0.1277 -0.2572  0.5274
14662TIP3    H165477   1.190   2.547   8.258 -1.4419 -0.2806  0.7908
14662TIP3    H265478   1.112   2.614   8.147 -0.2435  0.9053  0.6382
14663TIP3   OH265479   1.696   3.450  63.554 -0.0944 -0.3648  0.0887
14663TIP3    H165480   1.780   3.495  63.554 -0.3393  0.1408 -0.9815
14663TIP3    H265481   1.701   3.389  63.481 -0.2641 -1.1255  0.7004
14664TIP3   OH265482   0.720   0.784  39.035  0.0453  0.1215  0.3592
14664TIP3    H165483   0.768   0.722  39.090 -0.3797  0.6238  1.3166
14664TIP3    H265484   0.739   0.870  39.074 -1.2987  0.3707  0.5175
14665TIP3   OH265485   2.068   1.601  53.791  0.0435 -0.1313 -0.0792
14665TIP3    H165486   2.025   1.573  53.710  1.0791 -1.2783 -0.2562
14665TIP3    H265487   2.159   1.574  53.781  0.6683  1.5534  0.6140
14666TIP3   OH265488   1.653   0.144  16.191 -0.0598 -0.2294  0.2916
14666TIP3    H165489   1.743   0.132  16.221  0.6747 -0.6801 -1.9092
14666TIP3    H265490   1.620   0.055  16.179 -1.6822 -0.1532  3.2864
14667TIP3   OH265491   2.055   3.378   2.727  0.0847  0.2647  0.1412
14667TIP3    H165492   2.004   3.360   2.806 -0.3328  1.6636  0.2159
14667TIP3    H265493   2.016   3.457   2.691  0.1475 -0.4572 -1.5932
14668TIP3   OH265494   1.945   2.950  67.067  0.1274  0.3328  0.4604
14668TIP3    H165495   1.907   2.901  66.994  1.1448  0.4551 -0.1758
14668TIP3    H265496   1.957   3.038  67.032 -0.1284  0.6022  1.0472
14669TIP3   OH265497   0.169   1.333  19.964  0.3185  0.0023  0.1131
14669TIP3    H165498   0.090   1.375  19.997 -0.2603 -1.5405  0.7856
14669TIP3    H265499   0.239   1.367  20.019  0.0653  0.9481 -0.1217
14670TIP3   OH265500   3.143   2.361  65.195  0.3044 -0.3790  0.2809
14670TIP3    H165501   3.170   2.269  65.192  0.8760 -0.1927 -1.0788
14670TIP3    H265502   3.084   2.372  65.121 -0.0631  0.2552  0.6574
14671TIP3   OH265503   0.509   2.954  66.870 -0.2497 -0.1625  0.7484
14671TIP3    H165504   0.480   2.876  66.823  0.9891 -0.2505  0.1045
14671TIP3    H265505   0.439   3.017  66.857  0.1874 -0.0803 -1.4917
14672TIP3   OH265506   0.784   0.196  17.667  0.0944 -0.5570  0.2725
14672TIP3    H165507   0.829   0.262  17.720  1.7606  0.3393 -2.1081
14672TIP3    H265508   0.839   0.118  17.674  1.1169 -0.0085 -1.1813
14673TIP3   OH265509   0.392   0.158  64.259  0.1770  0.0038  0.4148
14673TIP3    H165510   0.428   0.105  64.188 -2.3627 -1.8580  0.3653
14673TIP3    H265511   0.429   0.245  64.245  1.0228 -0.6754 -2.2398
14674TIP3   OH265512   0.015   2.523  20.315  0.0356 -0.3936 -0.2886
14674TIP3    H165513   0.093   2.468  20.323 -1.4721 -2.5024  1.0458
14674TIP3    H265514   0.005   2.563  20.402 -0.5445 -0.3767 -0.3603
14675TIP3   OH265515   0.410   0.419  42.793  0.5662  0.9484  0.0139
14675TIP3    H165516   0.379   0.356  42.857 -1.3499  0.8664 -0.9111
14675TIP3    H265517   0.460   0.367  42.730 -1.2899  0.2273 -0.9342
14676TIP3   OH265518   1.598   1.160  53.680 -0.0742  0.5524  0.3948
14676TIP3    H165519   1.546   1.228  53.637 -0.3988 -0.9882 -1.8372
14676TIP3    H265520   1.672   1.207  53.718 -0.9869  2.2940  0.1532
14677TIP3   OH265521   0.107   0.927  13.567  0.3817 -0.0904  0.3756
14677TIP3    H165522   0.035   0.977  13.606  0.3355  0.3517 -0.2671
14677TIP3    H265523   0.069   0.840  13.552  0.0818  0.0418  0.3532
14678TIP3   OH265524   0.614   1.505  56.323  0.2189  1.1046 -0.0252
14678TIP3    H165525   0.697   1.529  56.364 -0.1265  1.2526  0.6100
14678TIP3    H265526   0.550   1.565  56.362 -0.0612  1.5224 -1.0851
14679TIP3   OH265527   2.765   0.395   5.687 -0.2620 -0.3956  0.2898
14679TIP3    H165528   2.845   0.344   5.689 -0.4100 -0.6964 -0.6648
14679TIP3    H265529   2.793   0.484   5.665 -0.0322 -0.0971  1.6873
14680TIP3   OH265530   0.673   0.130  66.589 -0.4545  0.6741 -0.5290
14680TIP3    H165531   0.731   0.088  66.652 -0.9735 -0.4033 -0.7387
14680TIP3    H265532   0.702   0.097  66.504 -2.1138 -0.9130 -0.5623
14681TIP3   OH265533   3.126   2.862  28.070  0.0999 -0.1894 -0.2657
14681TIP3    H165534   3.203   2.876  28.014 -0.0471  0.9559 -0.1948
14681TIP3    H265535   3.068   2.935  28.050 -1.1452 -1.2138 -0.5692
14682TIP3   OH265536   0.979   1.585   4.098  0.1397  0.3457 -0.6344
14682TIP3    H165537   0.910   1.604   4.162  0.4714 -0.2690 -0.0807
14682TIP3    H265538   0.933   1.547   4.024 -0.2863  1.3304 -0.8941
14683TIP3   OH265539   1.309   2.743  15.501  0.1306 -0.5619 -0.1651
14683TIP3    H165540   1.282   2.655  15.527 -2.2243 -0.1628 -1.0530
14683TIP3    H265541   1.268   2.801  15.565 -0.2000  0.0260 -0.9000
14684TIP3   OH265542   1.538   2.755  44.212  0.3387 -0.5520 -0.3421
14684TIP3    H165543   1.539   2.666  44.246  1.7633 -0.0929  0.9366
14684TIP3    H265544   1.564   2.810  44.286 -0.1026  0.8879 -1.2019
14685TIP3   OH265545   2.266   0.668  21.654  0.3033 -0.0322  0.4958
14685TIP3    H165546   2.205   0.603  21.690  0.8235 -1.1184 -0.5108
14685TIP3    H265547   2.226   0.694  21.571  1.5996 -1.4203 -0.6114
14686TIP3   OH265548   2.272   1.363   1.508 -0.1478  0.3003 -0.0085
14686TIP3    H165549   2.264   1.348   1.414  0.3430  2.8400 -0.5309
14686TIP3    H265550   2.212   1.437   1.525  1.8012  1.7192  1.0923
14687TIP3   OH265551   2.958   3.381  11.503 -0.1172 -0.0274 -0.1495
14687TIP3    H165552   2.923   3.344  11.584 -0.6185  0.6494 -0.0428
14687TIP3    H265553   2.891   3.360  11.437 -0.0177 -0.0145 -0.2549
14688TIP3   OH265554   3.219   3.290   3.181 -0.0525 -0.0559  0.3809
14688TIP3    H165555   3.147   3.353   3.178 -1.0999 -1.2426 -0.4384
14688TIP3    H265556   3.176   3.205   3.194  1.1379 -0.8674 -0.7503
14689TIP3   OH265557   0.435   2.105  53.744  0.0673  0.5132  0.3253
14689TIP3    H165558   0.379   2.117  53.668  0.5469 -3.0579 -0.7908
14689TIP3    H265559   0.385   2.045  53.800  1.4243 -0.1687  0.8319
14690TIP3   OH265560   3.265   0.895   3.418 -0.0955  0.3876 -0.0283
14690TIP3    H165561   3.230   0.816   3.458 -1.1605  0.8140 -0.1027
14690TIP3    H265562   3.320   0.863   3.346  0.3232 -0.3078  0.5855
14691TIP3   OH265563   0.602   3.362  62.649  0.4744  0.4973  0.7565
14691TIP3    H165564   0.562   3.292  62.700  0.6373 -0.5885 -0.5450
14691TIP3    H265565   0.654   3.412  62.712  0.6039 -0.7417  1.6553
14692TIP3   OH265566   2.756   0.618  56.924  0.6531  0.0837  0.0978
14692TIP3    H165567   2.763   0.660  56.838 -1.2506 -0.9256 -0.6009
14692TIP3    H265568   2.671   0.647  56.958  1.2757  0.2684  1.5671
14693TIP3   OH265569   1.696   0.945  49.046 -0.4868  0.0153  0.2599
14693TIP3    H165570   1.728   0.856  49.062 -1.2589 -0.2207  0.5922
14693TIP3    H265571   1.739   0.973  48.966  0.2115 -0.4397  0.4722
14694TIP3   OH265572   1.799   2.585  54.137  0.2445 -0.0344  0.0822
14694TIP3    H165573   1.720   2.619  54.094  1.4257  4.1503  0.7239
14694TIP3    H265574   1.776   2.584  54.230  0.5518 -0.0727  0.1582
14695TIP3   OH265575   3.231   0.599  49.342 -0.6324 -0.0409 -0.1437
14695TIP3    H165576   3.204   0.644  49.422  1.1323  0.7806  0.0350
14695TIP3    H265577   3.222   0.665  49.273 -1.9171 -0.6737 -0.6059
14696TIP3   OH265578   1.427   1.135  10.926  0.4821  0.3265  0.3816
14696TIP3    H165579   1.355   1.187  10.961  0.4738  0.2549  0.4703
14696TIP3    H265580   1.450   1.179  10.844 -1.4148 -1.1488 -1.0513
14697TIP3   OH265581   3.324   1.327  45.926 -0.5498 -0.2525  0.1972
14697TIP3    H165582   3.313   1.335  45.832  1.2051  1.6117  0.0611
14697TIP3    H265583   3.335   1.234  45.942 -0.4355 -0.5545 -1.5029
14698TIP3   OH265584   3.351   1.868   4.967 -0.3119  0.5207 -0.2009
14698TIP3    H165585   3.309   1.868   4.881  1.3253  1.5382 -1.0595
14698TIP3    H265586   3.312   1.942   5.013 -1.8586 -0.5776  0.3189
14699TIP3   OH265587   2.825   0.604  20.282  0.1722 -0.0977  0.1256
14699TIP3    H165588   2.744   0.622  20.329 -0.1955 -0.7482 -0.2424
14699TIP3    H265589   2.800   0.605  20.189  0.8139  0.8102 -0.0587
14700TIP3   OH265590   2.245   3.146  52.762 -0.1280  0.0228 -0.6480
14700TIP3    H165591   2.314   3.105  52.814  1.0107  0.7794 -1.5224
14700TIP3    H265592   2.246   3.238  52.788 -0.9993 -0.0012 -0.4800
14701TIP3   OH265593   2.992   2.904  67.184 -0.2427  0.2758  0.4670
14701TIP3    H165594   3.072   2.906  67.132 -0.9710  2.0178 -0.6621
14701TIP3    H265595   2.976   2.996  67.207 -4.8030  1.0869 -4.0830
14702TIP3   OH265596   1.946   1.256  53.308  0.0276 -0.1451 -0.1437
14702TIP3    H165597   1.967   1.306  53.229 -0.2419 -1.1152 -0.8464
14702TIP3    H265598   1.933   1.166  53.277  0.5317 -0.6671  1.0895
14703TIP3   OH265599   1.399   1.007  21.373  0.2774  0.1406 -0.1676
14703TIP3    H165600   1.328   1.008  21.438  0.3632 -0.9349 -0.0485
14703TIP3    H265601   1.356   1.026  21.290 -0.0968 -0.1536 -0.0432
14704TIP3   OH265602   1.147   1.625  66.545  0.5788  0.2550 -0.5918
14704TIP3    H165603   1.143   1.713  66.509  1.6205  0.1629 -0.9680
14704TIP3    H265604   1.236   1.595  66.525  1.0280 -0.0155  1.5314
14705TIP3   OH265605   1.943   2.331   5.069  0.6360  0.0651  0.0350
14705TIP3    H165606   2.010   2.313   5.004  0.2578  0.3816 -0.4526
14705TIP3    H265607   1.975   2.290   5.149  1.5483  0.4623 -0.1133
14706TIP3   OH265608   2.174   1.793  44.300 -0.1251  0.1379 -0.1835
14706TIP3    H165609   2.176   1.883  44.331  1.1782  0.4687 -1.1316
14706TIP3    H265610   2.266   1.769  44.289 -0.4548 -0.4617 -2.2358
14707TIP3   OH265611   1.969   1.644  62.921  0.0945  0.1465  0.1550
14707TIP3    H165612   1.920   1.692  62.988  0.3844  0.6416  0.0113
14707TIP3    H265613   1.913   1.569  62.901 -0.8966  1.0266 -0.4452
14708TIP3   OH265614   2.932   1.915  64.252  0.5234  0.0751 -0.2757
14708TIP3    H165615   2.953   1.872  64.168 -1.1649 -0.0985 -0.6500
14708TIP3    H265616   2.842   1.946  64.241  0.1106 -0.3254  1.6274
14709TIP3   OH265617   3.165   1.029  22.235 -0.4230  0.0890 -0.0840
14709TIP3    H165618   3.109   0.959  22.269 -1.2107  0.8751  0.2702
14709TIP3    H265619   3.255   1.000  22.253 -0.6827 -1.3445 -0.9689
14710TIP3   OH265620   3.168   0.947  43.698 -0.2074 -0.5012 -0.2857
14710TIP3    H165621   3.250   0.937  43.649 -0.0201  0.7342 -0.2457
14710TIP3    H265622   3.192   0.998  43.775 -0.5204 -2.3134  1.0815
14711TIP3   OH265623   1.896   3.413  14.267  0.3652 -0.3972 -0.2647
14711TIP3    H165624   1.892   3.360  14.188 -0.6453  0.4860 -0.8379
14711TIP3    H265625   1.806   3.416  14.298  0.7653 -0.8057  0.9824
14712TIP3   OH265626   0.600   2.568  64.830 -0.0428 -0.0021 -0.1684
14712TIP3    H165627   0.677   2.535  64.783 -0.1347 -0.2500 -0.1431
14712TIP3    H265628   0.531   2.568  64.764  0.3317  1.6822 -0.6196
14713TIP3   OH265629   1.513   3.194  22.243  0.7243  0.1523  0.0789
14713TIP3    H165630   1.459   3.171  22.318 -0.1933 -1.0669 -0.9081
14713TIP3    H265631   1.488   3.285  22.223 -0.3415 -0.1095  0.1699
14714TIP3   OH265632   1.950   1.939  12.689 -0.7618  0.4529 -0.7944
14714TIP3    H165633   2.004   1.884  12.632 -0.5572  0.3850 -0.5330
14714TIP3    H265634   1.871   1.956  12.637 -0.0797  1.3707 -1.5613
14715TIP3   OH265635   0.096   0.459  51.610  0.5222  0.0750  0.3861
14715TIP3    H165636   0.074   0.536  51.558 -0.0691 -0.2392  0.1543
14715TIP3    H265637   0.086   0.488  51.701 -0.9320 -0.0468  0.2998
14716TIP3   OH265638   1.200   3.338   4.844 -0.3855 -0.1202  0.1509
14716TIP3    H165639   1.285   3.379   4.827 -0.5788 -0.1040 -0.8829
14716TIP3    H265640   1.161   3.390   4.913  1.0342 -0.9884  1.6679
14717TIP3   OH265641   1.279   1.997  34.229 -0.6778  0.4117 -0.1782
14717TIP3    H165642   1.285   2.001  34.134 -0.8340  1.9282 -0.1353
14717TIP3    H265643   1.341   2.063  34.260 -0.1568 -0.5039  0.7994
14718TIP3   OH265644   0.668   2.613  33.749 -0.2514  0.1309 -0.4439
14718TIP3    H165645   0.752   2.651  33.722  0.8546  0.1970  2.6660
14718TIP3    H265646   0.620   2.685  33.788 -1.3070 -0.1670 -1.1410
14719TIP3   OH265647   3.228   0.015   7.300 -0.1482 -0.1852  0.2785
14719TIP3    H165648   3.237  -0.020   7.211 -0.8886  2.3386 -0.8866
14719TIP3    H265649   3.318   0.029   7.329  0.0978 -0.0876 -0.5068
14720TIP3   OH265650   1.118   0.588  59.612  0.1459 -0.3499  0.2189
14720TIP3    H165651   1.120   0.537  59.532  0.6134 -0.6956  0.4461
14720TIP3    H265652   1.062   0.538  59.672 -1.9139  0.9202 -0.5443
14721TIP3   OH265653   2.232   1.442  55.488 -0.2989 -0.1991  0.1870
14721TIP3    H165654   2.233   1.366  55.430  0.1741 -0.9678  1.1713
14721TIP3    H265655   2.324   1.459  55.508 -0.3786  0.8407 -0.2706
14722TIP3   OH265656   0.554   2.505  46.511  0.2111  0.3377 -0.0488
14722TIP3    H165657   0.623   2.452  46.471 -0.7900 -1.0394 -0.0243
14722TIP3    H265658   0.599   2.584  46.542  1.6225 -0.1703 -0.7200
14723TIP3   OH265659   2.706   0.913  10.278  0.0136  0.1671 -0.1024
14723TIP3    H165660   2.745   0.984  10.329 -0.6985  1.3890 -1.1809
14723TIP3    H265661   2.634   0.881  10.333 -1.5982  2.3550 -0.7661
14724TIP3   OH265662   0.770   0.969   2.662 -0.3704 -0.0845  0.0563
14724TIP3    H165663   0.771   0.875   2.645  0.5277  0.1571 -1.4218
14724TIP3    H265664   0.854   1.001   2.629 -0.1387  1.0720  1.6418
14725TIP3   OH265665   3.415   0.259   0.007  0.2150  0.0179  0.4448
14725TIP3    H165666   3.435   0.245  -0.086 -0.9785  1.2926 -0.0365
14725TIP3    H265667   3.500   0.257   0.050  0.8215 -0.2392 -0.7228
14726TIP3   OH265668   3.332   2.458  67.409  0.0029 -0.0485  0.2453
14726TIP3    H165669   3.335   2.372  67.368  2.5061 -0.1780  0.5000
14726TIP3    H265670   3.389   2.512  67.354 -2.4074  1.8208 -0.5766
14727TIP3   OH265671   0.357   2.645  57.085 -0.2473  0.0431 -0.4924
14727TIP3    H165672   0.312   2.708  57.028 -0.0315  0.3979 -0.2761
14727TIP3    H265673   0.360   2.564  57.034 -0.0662  0.3534 -0.9756
14728TIP3   OH265674   1.131   1.518   6.626 -0.1610 -0.7847  0.4180
14728TIP3    H165675   1.149   1.611   6.638  0.4141 -0.7224 -0.7724
14728TIP3    H265676   1.043   1.515   6.588 -1.6386 -0.9425  3.5561
14729TIP3   OH265677   2.945   1.578  12.377  0.2191 -0.4160  0.0161
14729TIP3    H165678   2.864   1.623  12.353 -0.3130 -0.8911  0.8626
14729TIP3    H265679   2.964   1.521  12.302 -0.4227 -0.5526 -0.0497
14730TIP3   OH265680   2.012   1.335  52.309 -0.0032  0.0453  0.3283
14730TIP3    H165681   1.983   1.316  52.219  1.8680 -0.8884 -0.1365
14730TIP3    H265682   1.943   1.300  52.365 -0.4269 -0.8736 -0.7265
14731TIP3   OH265683   3.220   3.271  66.776 -0.3517  0.0021  0.2405
14731TIP3    H165684   3.157   3.220  66.827  0.9533 -0.7555  1.1464
14731TIP3    H265685   3.271   3.206  66.728  0.5823  0.5084  0.5278
14732TIP3   OH265686   3.260   2.627  62.602  0.0546  0.0547 -0.0463
14732TIP3    H165687   3.267   2.662  62.691  1.0600  1.3255 -0.5874
14732TIP3    H265688   3.277   2.534  62.612  1.9775  0.4553  0.8861
14733TIP3   OH265689   1.661   1.985   0.801  0.3787  0.2228  0.2891
14733TIP3    H165690   1.620   2.072   0.792 -0.5257  0.0299  2.0928
14733TIP3    H265691   1.588   1.924   0.798  0.9474 -0.4441 -0.2639
14734TIP3   OH265692   2.764   3.283  12.217  0.0215 -0.0146 -0.4613
14734TIP3    H165693   2.776   3.256  12.308 -0.5534 -1.6484 -0.8340
14734TIP3    H265694   2.843   3.253  12.173 -0.5581 -1.0123 -0.8532
14735TIP3   OH265695   0.597   0.640   5.463  0.1924  0.2680  0.2247
14735TIP3    H165696   0.636   0.614   5.379  0.1754 -2.1247  0.8879
14735TIP3    H265697   0.516   0.685   5.439  0.6010  0.3572 -1.0618
14736TIP3   OH265698   0.943   3.180  61.402 -0.0312  0.7044 -0.1359
14736TIP3    H165699   0.959   3.180  61.308  0.2053  0.9291 -0.0970
14736TIP3    H265700   1.004   3.115  61.436  0.4073  1.1551 -0.0504
14737TIP3   OH265701   2.367   0.019  53.362 -0.7282  0.0960 -0.3092
14737TIP3    H165702   2.396  -0.057  53.313 -0.7250  0.6339 -1.1724
14737TIP3    H265703   2.375  -0.006  53.454 -0.4747 -0.8366 -0.5830
14738TIP3   OH265704   2.115   2.149  12.758  0.0705 -0.0586  0.1688
14738TIP3    H165705   2.031   2.107  12.744 -0.7496  1.4536  0.3588
14738TIP3    H265706   2.097   2.243  12.747  1.1229  0.5568  3.0098
14739TIP3   OH265707   2.342   2.575  12.295 -0.2502 -0.0787 -0.0357
14739TIP3    H165708   2.399   2.603  12.367 -0.3888 -0.9904  0.4404
14739TIP3    H265709   2.332   2.481  12.308 -1.9141  0.0642 -0.0690
14740TIP3   OH265710   1.771   1.066  21.219  0.5347 -0.3234 -0.0796
14740TIP3    H165711   1.712   1.136  21.246  0.6154 -0.5760  0.7696
14740TIP3    H265712   1.858   1.095  21.245  0.5178 -0.9318  0.6923
14741TIP3   OH265713   1.554   2.099  66.783 -0.1053 -0.3717 -0.2366
14741TIP3    H165714   1.633   2.055  66.751  0.7124  1.8739 -1.4949
14741TIP3    H265715   1.482   2.055  66.738  0.4831 -1.7066  0.0705
14742TIP3   OH265716   1.556   0.628  63.901  0.1716  0.0686 -0.0042
14742TIP3    H165717   1.646   0.655  63.885  0.3135 -1.4131 -2.1058
14742TIP3    H265718   1.518   0.617  63.814 -1.8246 -0.0876  0.8266
14743TIP3   OH265719   2.959   3.384   1.997 -0.0024  0.1206  0.0614
14743TIP3    H165720   2.925   3.295   1.987 -0.1279  0.1737  0.0144
14743TIP3    H265721   2.970   3.396   2.091 -0.2226  0.1453  0.0830
14744TIP3   OH265722   2.575   2.820  57.674  0.3303  0.0560 -0.3529
14744TIP3    H165723   2.480   2.826  57.677  0.3347  0.0326 -0.1408
14744TIP3    H265724   2.599   2.775  57.755  0.5557  0.5065 -0.1665
14745TIP3   OH265725   3.183   1.247  62.891  0.0250 -0.0250  0.8811
14745TIP3    H165726   3.185   1.293  62.975  0.9482  0.9100  0.3700
14745TIP3    H265727   3.275   1.228  62.871 -0.0021  1.3469 -0.7443
14746TIP3   OH265728   0.581   2.803  51.581 -0.6309 -0.3582 -0.1299
14746TIP3    H165729   0.655   2.862  51.597 -0.8621  0.2107 -1.0679
14746TIP3    H265730   0.504   2.858  51.595 -0.8501 -0.0321 -2.3105
14747TIP3   OH265731   0.804   1.811  63.427 -0.7732  0.2380  0.2942
14747TIP3    H165732   0.812   1.892  63.377 -0.1198  0.6504  1.0568
14747TIP3    H265733   0.750   1.833  63.503 -1.2730 -0.2475  0.0962
14748TIP3   OH265734   1.593   2.585  60.256 -0.1396 -0.7101  0.1981
14748TIP3    H165735   1.635   2.639  60.189 -1.1561 -0.7030 -0.4389
14748TIP3    H265736   1.629   2.618  60.339 -0.2124  0.4781 -0.2255
14749TIP3   OH265737   1.831   1.962  59.298 -0.0283  0.2916 -0.2652
14749TIP3    H165738   1.853   1.871  59.279 -0.8113 -0.2835  1.3316
14749TIP3    H265739   1.771   1.988  59.228 -0.0224 -0.5170 -0.5793
14750TIP3   OH265740   3.405   0.741  10.056  0.2747  0.4027  0.4338
14750TIP3    H165741   3.392   0.784  10.141 -0.6218  0.6041  0.2014
14750TIP3    H265742   3.406   0.648  10.077 -3.3292  0.2102  0.3323
14751TIP3   OH265743   2.189   1.257  15.519 -0.6475 -0.2343 -0.0035
14751TIP3    H165744   2.212   1.348  15.500 -1.3248  0.5180  2.3937
14751TIP3    H265745   2.263   1.224  15.570  0.3088 -1.5922 -2.1407
14752TIP3   OH265746   3.074   2.219   5.180 -0.3491 -0.0835 -0.2068
14752TIP3    H165747   3.113   2.306   5.175  0.2978 -0.4301 -2.4905
14752TIP3    H265748   3.013   2.215   5.107  1.5458 -2.3641 -1.8325
14753TIP3   OH265749   1.996   1.567   7.616  0.3267 -0.1441  0.1063
14753TIP3    H165750   1.978   1.547   7.524 -0.3265  0.8135  0.0169
14753TIP3    H265751   1.948   1.648   7.633  0.7336 -0.1184  1.1954
14754TIP3   OH265752   1.548   0.053  67.484  0.0909 -0.1526  0.3683
14754TIP3    H165753   1.627   0.073  67.434  1.4059 -0.0207  2.3775
14754TIP3    H265754   1.565  -0.032  67.523 -0.4041  0.2172  1.4362
14755TIP3   OH265755   2.395   1.219   7.595 -0.1056 -0.3221 -0.2465
14755TIP3    H165756   2.467   1.184   7.646 -0.0740  0.7672  0.4837
14755TIP3    H265757   2.425   1.212   7.504  0.1875 -1.4764 -0.0741
14756TIP3   OH265758   0.089   0.872  10.792 -0.1776  0.2199 -0.1693
14756TIP3    H165759   0.034   0.826  10.855 -1.0184  0.7982 -0.4495
14756TIP3    H265760   0.173   0.828  10.795 -0.7279 -0.8311  0.1182
14757TIP3   OH265761   1.880   0.305  51.659  0.6289  0.3386  0.3123
14757TIP3    H165762   1.969   0.273  51.674  0.2177 -0.8750  0.2861
14757TIP3    H265763   1.860   0.358  51.736  0.6616 -1.0380  1.3090
14758TIP3   OH265764   2.455   2.970  48.944  0.1356  0.4557 -0.3800
14758TIP3    H165765   2.532   3.021  48.970 -0.7230  1.0279  1.1978
14758TIP3    H265766   2.485   2.879  48.946  1.1323  0.7524 -1.1816
14759TIP3   OH265767   0.006   2.133   6.504 -0.1313  0.3941  0.0724
14759TIP3    H165768   0.096   2.110   6.526 -0.1121  1.0570  0.7624
14759TIP3    H265769   0.013   2.188   6.426 -0.1350 -1.3540 -1.2161
14760TIP3   OH265770   1.982   0.691   3.353  0.2598  0.2728  1.1452
14760TIP3    H165771   1.896   0.656   3.328  1.2212 -0.5769 -1.2721
14760TIP3    H265772   1.970   0.786   3.352 -0.0876  0.2975 -1.8471
14761TIP3   OH265773   2.036   0.064  49.303 -0.1831  0.0271  0.4021
14761TIP3    H165774   1.942   0.069  49.318 -0.1184  1.5004  0.5227
14761TIP3    H265775   2.046  -0.000  49.232 -1.1574 -1.0335  1.2019
14762TIP3   OH265776   1.622   2.705  53.967  0.1987  0.2989 -0.0639
14762TIP3    H165777   1.696   2.739  53.916 -0.4025  0.6490 -0.7287
14762TIP3    H265778   1.588   2.780  54.014 -0.5271  0.4250 -0.7723
14763TIP3   OH265779   1.872   1.796  58.933 -0.2833 -0.3432  0.3544
14763TIP3    H165780   1.847   1.762  59.019  0.1102 -1.3780  0.0826
14763TIP3    H265781   1.944   1.856  58.951 -1.6141  1.1413  0.9450
14764TIP3   OH265782   1.174   2.566   7.671 -0.8181  0.6313  0.4708
14764TIP3    H165783   1.225   2.489   7.694 -0.2936  0.7336 -0.3260
14764TIP3    H265784   1.083   2.539   7.686 -0.5354  0.8441  3.0718
14765TIP3   OH265785   3.060   3.350  42.567  0.3689 -0.2077  0.3567
14765TIP3    H165786   3.044   3.439  42.535  2.4388  0.4845  1.0986
14765TIP3    H265787   3.050   3.294  42.490  1.1081  0.9256 -0.5915
14766TIP3   OH265788   2.443   3.295   5.322 -0.1956  0.2632 -0.0406
14766TIP3    H165789   2.434   3.353   5.246 -0.3129  0.6963  0.3013
14766TIP3    H265790   2.534   3.303   5.349 -0.0709 -0.1384 -0.3268
14767TIP3   OH265791   2.718   2.680  11.313 -0.3860  0.1029 -0.4064
14767TIP3    H165792   2.654   2.706  11.380 -0.3137  0.5016 -0.4855
14767TIP3    H265793   2.751   2.763  11.279  1.1457 -0.0716  0.5550
14768TIP3   OH265794   1.997   0.925  58.696  0.1193  0.7560  0.1839
14768TIP3    H165795   1.973   1.000  58.643 -1.2535 -0.2703 -0.7204
14768TIP3    H265796   2.050   0.870  58.638 -1.7506 -0.5784 -0.3590
14769TIP3   OH265797   1.427   2.277  38.184 -0.1299  0.2423  0.0514
14769TIP3    H165798   1.494   2.221  38.144 -0.1098  0.0916  0.2936
14769TIP3    H265799   1.438   2.362  38.140  0.1918  0.2072  0.0562
14770TIP3   OH265800   1.878   1.363  48.955 -0.1064 -0.1083 -0.2428
14770TIP3    H165801   1.790   1.328  48.970  0.2777 -0.7003  0.7386
14770TIP3    H265802   1.864   1.458  48.946 -0.6041  0.1935  2.6163
14771TIP3   OH265803   2.039   2.281   2.576  0.2799 -0.0675  0.2697
14771TIP3    H165804   2.075   2.238   2.653 -0.1738 -0.6281  0.1774
14771TIP3    H265805   1.992   2.212   2.529  0.4700  0.2841 -0.4615
14772TIP3   OH265806   0.577   2.066  47.039  0.3590 -0.3760  0.1406
14772TIP3    H165807   0.494   2.085  46.996  0.6412 -0.1178 -0.2892
14772TIP3    H265808   0.630   2.144  47.025  0.5275 -0.3639  0.7875
14773TIP3   OH265809   1.026   0.232  16.314  0.2977  0.1499  0.0484
14773TIP3    H165810   1.009   0.323  16.339 -2.0696  0.0195 -0.8198
14773TIP3    H265811   1.016   0.183  16.396  1.9934  0.6746  0.6027
14774TIP3   OH265812   1.351   0.015  17.548  0.8557  0.4076  0.0750
14774TIP3    H165813   1.406  -0.062  17.564 -0.5188 -0.3810  1.2035
14774TIP3    H265814   1.310   0.033  17.632  0.9537  2.2489 -0.2369
14775TIP3   OH265815   0.034   3.104  48.568 -0.2603  0.1323 -0.2918
14775TIP3    H165816   0.080   3.089  48.650 -1.2432 -1.7021 -0.0250
14775TIP3    H265817  -0.017   3.024  48.553  0.6395 -0.0242 -3.2070
14776TIP3   OH265818   0.502   2.171   8.329  0.9935  0.0917 -0.0303
14776TIP3    H165819   0.421   2.200   8.371  1.6489  0.2634  1.1440
14776TIP3    H265820   0.544   2.251   8.298  1.2207  0.0925  0.2848
14777TIP3   OH265821   0.851   3.447  50.657 -0.2446  0.1594 -0.7546
14777TIP3    H165822   0.853   3.543  50.666  2.4117  0.1460 -0.4113
14777TIP3    H265823   0.849   3.432  50.563 -2.4706  0.4574 -0.8324
14778TIP3   OH265824   2.940   0.240  65.549  0.0963 -0.4855  0.3644
14778TIP3    H165825   2.954   0.161  65.496 -0.1147  0.2090 -0.7598
14778TIP3    H265826   2.901   0.302  65.489  0.9951  0.7554  1.0239
14779TIP3   OH265827   2.827   1.928  14.672  0.7006  0.1877 -0.2834
14779TIP3    H165828   2.794   1.847  14.709  1.1482  0.4296  0.6999
14779TIP3    H265829   2.914   1.939  14.712  0.3355  1.5278  0.2258
14780TIP3   OH265830   3.210   3.371  11.762  0.7830 -0.0882  0.2338
14780TIP3    H165831   3.268   3.442  11.788  0.4527  0.4402 -0.4442
14780TIP3    H265832   3.260   3.291  11.780  1.9728  0.3657 -0.9136
14781TIP3   OH265833   0.852   1.368  47.603  0.2251 -0.0554  0.2360
14781TIP3    H165834   0.832   1.287  47.649  1.2503  1.1817  3.0747
14781TIP3    H265835   0.947   1.364  47.588  0.3450  0.7663  0.7426
14782TIP3   OH265836   2.456   3.447   7.543  0.0151  0.5779 -0.3796
14782TIP3    H165837   2.456   3.442   7.447 -2.1785  1.9721 -0.5202
14782TIP3    H265838   2.534   3.497   7.565  0.6851  0.0155 -1.3919
14783TIP3   OH265839   1.873   1.793   8.177 -0.3032  0.0817 -0.1254
14783TIP3    H165840   1.848   1.705   8.149 -1.2184 -0.3307  1.7820
14783TIP3    H265841   1.802   1.850   8.147 -0.0204  0.0794 -0.8136
14784TIP3   OH265842   0.155   0.446  58.166 -0.2555  0.4073  0.0238
14784TIP3    H165843   0.063   0.461  58.189 -0.8278 -0.0447 -1.7761
14784TIP3    H265844   0.184   0.528  58.127 -1.4561 -0.7860 -3.8940
14785TIP3   OH265845   2.494   1.301  11.434 -0.3757  0.1974 -0.2234
14785TIP3    H165846   2.461   1.333  11.519  0.6080 -1.3678  0.8028
14785TIP3    H265847   2.421   1.254  11.396 -0.5658  0.1597  0.1806
14786TIP3   OH265848   1.517   0.683  46.703  0.5922  0.1056  0.5811
14786TIP3    H165849   1.561   0.743  46.643 -2.2961  0.6510 -1.1832
14786TIP3    H265850   1.571   0.604  46.703  1.9035  0.9520 -0.8706
14787TIP3   OH265851   1.602   1.676   7.524  0.0028  0.4570  0.5140
14787TIP3    H165852   1.521   1.625   7.534  0.8137 -1.0188 -0.2244
14787TIP3    H265853   1.666   1.613   7.492  1.5295  1.5436  1.3240
14788TIP3   OH265854   1.547   3.207  56.893 -0.8076 -0.5468  0.3693
14788TIP3    H165855   1.620   3.215  56.954 -0.8245  3.0518  0.0944
14788TIP3    H265856   1.576   3.142  56.830  1.7899  0.1008  0.7809
14789TIP3   OH265857   1.623   0.256  21.316  0.0002  0.5844  0.5983
14789TIP3    H165858   1.597   0.251  21.407 -0.1355  2.4293  0.7125
14789TIP3    H265859   1.717   0.275  21.319  0.0844  0.2008  0.3523
14790TIP3   OH265860   3.120   2.574  16.799 -0.2536 -0.0303  0.0089
14790TIP3    H165861   3.113   2.479  16.789  0.4606  0.0801 -2.2769
14790TIP3    H265862   3.032   2.602  16.825 -0.9101 -1.1788 -0.8587
14791TIP3   OH265863   2.212   2.614  10.149  0.5696  0.1610 -0.2629
14791TIP3    H165864   2.118   2.631  10.155  0.5981  0.0045  1.0248
14791TIP3    H265865   2.225   2.533  10.198  1.4727  0.5633  0.1985
14792TIP3   OH265866   1.373   2.679  18.884 -0.3537  0.3949  0.4244
14792TIP3    H165867   1.392   2.637  18.968  0.8467 -0.7709 -0.3932
14792TIP3    H265868   1.443   2.649  18.826 -0.7309  1.7810 -0.8042
14793TIP3   OH265869   1.441   0.469  15.208 -0.0194  0.1775  0.2929
14793TIP3    H165870   1.474   0.421  15.132  2.4836  1.5569  0.4135
14793TIP3    H265871   1.510   0.532  15.229 -3.0323  3.8767  0.1672
14794TIP3   OH265872   1.716   0.832  61.222 -0.0859  0.3927  0.3791
14794TIP3    H165873   1.655   0.764  61.194  0.1965  0.2986 -0.0191
14794TIP3    H265874   1.694   0.908  61.168 -1.7988  1.3217  2.2551
14795TIP3   OH265875   1.929   0.282   6.856  0.9264  0.4278 -0.8437
14795TIP3    H165876   1.894   0.305   6.942  1.0887 -1.0186 -0.3645
14795TIP3    H265877   1.852   0.260   6.804  0.9375 -0.4406 -0.5096
14796TIP3   OH265878   3.032   2.578  56.257 -0.2149  0.4960  0.1975
14796TIP3    H165879   3.066   2.572  56.346 -1.1640 -1.9118  0.4680
14796TIP3    H265880   3.080   2.511  56.208 -0.5020  1.0130 -0.8349
14797TIP3   OH265881   3.021   2.576   8.983 -0.1344 -0.4150 -0.5634
14797TIP3    H165882   3.086   2.518   8.943  0.9547 -0.4062  1.0848
14797TIP3    H265883   2.937   2.547   8.947  0.5756 -1.7380 -1.2337
14798TIP3   OH265884   1.826   2.588  10.934  0.3537  0.3854 -0.2192
14798TIP3    H165885   1.921   2.581  10.923  0.3958 -0.7149  0.6633
14798TIP3    H265886   1.810   2.561  11.024 -0.6238  2.5599  0.3177
14799TIP3   OH265887   3.422   2.717  53.327 -0.1563  0.3994 -0.0528
14799TIP3    H165888   3.380   2.660  53.390 -0.4288  0.3112 -0.3138
14799TIP3    H265889   3.428   2.665  53.247 -1.9588  1.2754 -0.8248
14800TIP3   OH265890   2.369   1.079  44.692 -0.0632 -0.1990 -0.2682
14800TIP3    H165891   2.291   1.038  44.656  0.2567 -0.8125 -0.2738
14800TIP3    H265892   2.341   1.168  44.714 -0.8721 -0.5406  0.1305
14801TIP3   OH265893   0.493   2.361  16.141 -0.2964 -0.3509 -0.6542
14801TIP3    H165894   0.521   2.429  16.080 -1.1659  1.1168  0.5454
14801TIP3    H265895   0.536   2.281  16.108  1.3261  0.8724 -1.6744
14802TIP3   OH265896   0.425   1.308   1.438 -0.3251 -0.1036  0.2781
14802TIP3    H165897   0.491   1.332   1.373 -0.5562 -1.7806 -0.6185
14802TIP3    H265898   0.473   1.255   1.502 -0.6503 -0.7428 -0.0036
14803TIP3   OH265899   2.196   0.514  13.089  0.3228  0.0734 -0.0125
14803TIP3    H165900   2.258   0.572  13.133 -1.7047  1.1257  1.7023
14803TIP3    H265901   2.209   0.429  13.130 -0.4215  0.6691  1.5320
14804TIP3   OH265902   1.008   0.660  55.595 -0.5301  0.0099 -0.2791
14804TIP3    H165903   0.999   0.620  55.682 -0.6433 -0.2175 -0.3957
14804TIP3    H265904   1.102   0.654  55.576 -0.4602  0.3350 -0.0442
14805TIP3   OH265905   1.877   0.000  26.857 -0.1661  0.0048 -0.3840
14805TIP3    H165906   1.829   0.015  26.775  0.3524  0.6102 -0.5892
14805TIP3    H265907   1.835  -0.077  26.895  0.0733 -0.7550 -1.5947
14806TIP3   OH265908   1.721   2.499  64.262 -0.0998 -0.2369 -0.1865
14806TIP3    H165909   1.706   2.484  64.355  2.9883 -3.4809 -0.0085
14806TIP3    H265910   1.816   2.508  64.254 -0.1702 -1.0406 -3.1031
14807TIP3   OH265911   1.927   0.503  45.514 -0.2848 -0.1875  0.1767
14807TIP3    H165912   1.994   0.529  45.451 -1.5952 -0.2666 -1.3180
14807TIP3    H265913   1.976   0.463  45.586  1.2025 -1.6783 -1.5516
14808TIP3   OH265914   3.158   0.277   1.606 -0.2825 -0.3440 -0.0623
14808TIP3    H165915   3.155   0.221   1.683 -1.2562 -1.2835 -0.7607
14808TIP3    H265916   3.080   0.332   1.613  0.4200  0.6387  0.3751
14809TIP3   OH265917   2.119   0.543  64.879 -0.3620 -0.1559 -0.4950
14809TIP3    H165918   2.102   0.629  64.840  1.4730  0.2365 -0.5264
14809TIP3    H265919   2.064   0.542  64.958 -0.5999  0.9452 -0.6192
14810TIP3   OH265920   3.166   1.829  26.859  0.4156 -0.2389  0.3433
14810TIP3    H165921   3.205   1.820  26.772 -2.5299  0.3578 -1.1791
14810TIP3    H265922   3.141   1.740  26.883  1.9632 -0.5243  1.0147
14811TIP3   OH265923   1.315   2.018   6.196 -0.6054 -0.2377 -0.7312
14811TIP3    H165924   1.320   1.967   6.115  0.7184  0.9180 -1.4351
14811TIP3    H265925   1.315   2.109   6.166 -0.2248  0.2018  0.5540
14812TIP3   OH265926   1.560   1.559  53.433 -0.1513 -0.6212 -0.1802
14812TIP3    H165927   1.640   1.577  53.384  0.1144 -0.5817  0.2542
14812TIP3    H265928   1.492   1.611  53.389  0.1528 -0.3206 -0.3004
14813TIP3   OH265929   2.056   0.118  13.521 -0.0879  0.8715 -0.1057
14813TIP3    H165930   2.027   0.051  13.584 -2.8528  0.7808 -1.3323
14813TIP3    H265931   2.138   0.082  13.485 -0.2683 -0.7195  0.9231
14814TIP3   OH265932   1.372   2.451   1.232 -0.0128  0.6994 -0.0655
14814TIP3    H165933   1.279   2.427   1.236 -0.0693  1.0334  1.0565
14814TIP3    H265934   1.406   2.428   1.319  0.7186  1.5159 -0.1229
14815TIP3   OH265935   2.074   3.338  49.088  0.0409  0.0211  0.0054
14815TIP3    H165936   2.030   3.286  49.021  1.7918 -0.4162 -0.8456
14815TIP3    H265937   2.124   3.403  49.039 -1.1136  1.7721  1.0089
14816TIP3   OH265938   0.588   1.360  63.888  0.2571  0.4882  0.2292
14816TIP3    H165939   0.547   1.374  63.973  0.1506  0.4064  0.1913
14816TIP3    H265940   0.668   1.312  63.908 -0.4286 -0.7093  0.1659
14817TIP3   OH265941   0.087   3.167  62.696  0.1636 -0.1047 -0.2899
14817TIP3    H165942   0.010   3.178  62.641 -0.1471 -0.2079  0.1264
14817TIP3    H265943   0.128   3.254  62.698  0.3857 -0.1902 -0.9897
14818TIP3   OH265944   3.266   2.648  65.354  0.1233 -0.2680  0.3846
14818TIP3    H165945   3.314   2.570  65.379  0.0029 -0.0281  1.3886
14818TIP3    H265946   3.233   2.628  65.266 -2.3977 -2.5464  1.6979
14819TIP3   OH265947   2.132   2.047  14.817  0.1058  0.2100  0.2993
14819TIP3    H165948   2.203   2.013  14.763 -0.3000  0.4487 -0.4083
14819TIP3    H265949   2.072   1.974  14.828 -0.1583  0.3534 -0.1751
14820TIP3   OH265950   0.636   1.958   7.244 -0.3711  0.0139 -0.1491
14820TIP3    H165951   0.598   2.041   7.275  0.6328  0.4008  0.0953
14820TIP3    H265952   0.584   1.935   7.167 -1.2608  0.3870  0.3240
14821TIP3   OH265953   0.619   1.403   3.351 -0.5291  0.0720 -0.1841
14821TIP3    H165954   0.641   1.373   3.440  0.3347 -0.2465 -0.4982
14821TIP3    H265955   0.579   1.326   3.310 -2.8604  0.7969  0.5570
14822TIP3   OH265956   1.593   1.410   3.352 -0.0417  0.6318 -0.3663
14822TIP3    H165957   1.681   1.377   3.334  0.9465  2.0371  1.5485
14822TIP3    H265958   1.542   1.333   3.375  0.4497 -0.2942 -2.1706
14823TIP3   OH265959   2.973   0.866  65.836 -0.4798  0.4432  0.0855
14823TIP3    H165960   3.012   0.953  65.848  0.0507  0.1885  0.2568
14823TIP3    H265961   2.920   0.874  65.757 -1.4027  1.2551  0.7550
14824TIP3   OH265962   0.613   3.280   1.994 -0.3586  0.0253 -0.2795
14824TIP3    H165963   0.573   3.195   2.015  0.9779 -0.4119  0.6361
14824TIP3    H265964   0.571   3.342   2.053 -0.2675 -0.2825  0.1142
14825TIP3   OH265965   3.435   3.135  66.047  0.4313  0.0219  0.2435
14825TIP3    H165966   3.525   3.118  66.076  0.1998 -1.4643  0.1435
14825TIP3    H265967   3.396   3.048  66.037 -0.2349  0.5414 -2.2295
14826TIP3   OH265968   2.582   2.133   3.897  0.7691  0.2192  0.1151
14826TIP3    H165969   2.581   2.077   3.975 -0.9987 -0.1578 -0.1251
14826TIP3    H265970   2.595   2.072   3.824  1.6873  0.4837  0.0487
14827TIP3   OH265971   2.558   0.850  62.613 -0.1545 -0.0769  0.5585
14827TIP3    H165972   2.619   0.868  62.541 -1.5694  1.1071 -0.4053
14827TIP3    H265973   2.588   0.906  62.685  0.6079 -0.4300  0.5285
14828TIP3   OH265974   1.909   3.450  42.728 -0.2915 -0.0827  0.2479
14828TIP3    H165975   1.896   3.490  42.642 -1.5389  0.8521  0.8480
14828TIP3    H265976   1.996   3.479  42.755  0.0222 -0.2066 -0.5902
14829TIP3   OH265977   0.679   0.871  57.144 -0.6502  0.4752  0.4339
14829TIP3    H165978   0.667   0.781  57.175 -1.2043  0.4850  0.2622
14829TIP3    H265979   0.611   0.920  57.190 -0.1337  0.8747  0.7844
14830TIP3   OH265980   0.657   2.734  46.643 -0.6183  0.3478 -0.1509
14830TIP3    H165981   0.669   2.827  46.626 -3.5200  0.7680 -0.3624
14830TIP3    H265982   0.661   2.726  46.738  0.3103  0.5283 -0.1600
14831TIP3   OH265983   2.168   2.352  60.866  0.4813 -0.1165 -0.5532
14831TIP3    H165984   2.195   2.413  60.935  0.4102 -1.1544  0.4152
14831TIP3    H265985   2.181   2.266  60.905  0.6719 -0.7265 -1.9410
14832TIP3   OH265986   1.711   1.454   5.570 -0.2746  0.2076 -0.0792
14832TIP3    H165987   1.737   1.516   5.502  0.6079 -1.0056 -0.9001
14832TIP3    H265988   1.650   1.503   5.626  0.8731  1.9796 -0.3158
14833TIP3   OH265989   1.297   1.439  37.300 -0.0496  0.5168  0.2068
14833TIP3    H165990   1.348   1.372  37.254  1.7184 -0.0808  2.8257
14833TIP3    H265991   1.206   1.410  37.293  0.6527 -2.1913  1.2229
14834TIP3   OH265992   2.405   0.061   8.918 -0.2694 -0.0932 -0.7845
14834TIP3    H165993   2.372   0.020   8.838 -0.1798  0.4242 -1.0899
14834TIP3    H265994   2.331   0.061   8.978 -0.5974  0.3226 -1.1809
14835TIP3   OH265995   0.182   0.400  47.672 -0.2142  0.3022  0.4347
14835TIP3    H165996   0.119   0.430  47.737  0.3058  1.8777  0.2626
14835TIP3    H265997   0.187   0.306  47.685 -0.8593  0.4528  2.0233
14836TIP3   OH265998   1.543   0.792  66.660  0.1890 -0.6178  0.1632
14836TIP3    H165999   1.568   0.699  66.661  0.1893 -0.6178  0.1324
14836TIP3    H266000   1.598   0.832  66.728 -0.9464 -0.9453  1.3299
14837TIP3   OH266001   0.127   2.034  53.715 -0.6523  0.1297 -0.5047
14837TIP3    H166002   0.157   1.956  53.669  0.3967  0.0755  0.2133
14837TIP3    H266003   0.155   2.020  53.806  0.4610  1.7674 -0.5512
14838TIP3   OH266004   0.376   0.617   4.819  0.2221 -0.2087  0.2508
14838TIP3    H166005   0.297   0.629   4.767  1.5133 -0.0331 -1.7459
14838TIP3    H266006   0.423   0.699   4.810  1.0646 -0.6393  0.6703
14839TIP3   OH266007   1.977   1.646  49.478  0.1289  0.7123 -0.3979
14839TIP3    H166008   1.998   1.672  49.568  0.0342  2.3287 -0.8219
14839TIP3    H266009   2.040   1.577  49.458 -0.5765 -0.5002  1.2854
14840TIP3   OH266010   1.854   1.695  57.530 -0.2696 -0.1635  0.0837
14840TIP3    H166011   1.798   1.711  57.454 -1.6527 -1.5946  0.7445
14840TIP3    H266012   1.927   1.644  57.496  0.3255  1.1534 -0.6736
14841TIP3   OH266013   2.325   0.923  42.964 -0.5630 -0.1052  0.4845
14841TIP3    H166014   2.382   0.989  43.004 -0.2234  0.3193 -0.6582
14841TIP3    H266015   2.268   0.973  42.905 -1.2339 -0.6806  0.6345
14842TIP3   OH266016   2.348   1.047  22.988  0.0345  0.8962 -0.4141
14842TIP3    H166017   2.342   1.084  23.076  1.2896 -1.7503  0.8977
14842TIP3    H266018   2.261   1.013  22.971  0.0965  0.3489  0.3335
14843TIP3   OH266019   1.332   0.835  52.089 -0.0848 -0.5713 -0.9420
14843TIP3    H166020   1.401   0.885  52.044  0.0081 -0.7722 -1.0260
14843TIP3    H266021   1.346   0.853  52.182  1.5195 -2.3950 -0.7557
14844TIP3   OH266022   2.408   0.745   5.763  0.3528  0.5201  0.3354
14844TIP3    H166023   2.379   0.685   5.832 -1.1765  0.0443 -0.6820
14844TIP3    H266024   2.437   0.689   5.692  1.4756  1.0146  0.3765
14845TIP3   OH266025   3.058   1.788   4.130  0.1492  0.1967 -0.1786
14845TIP3    H166026   2.991   1.763   4.193 -1.2492 -0.0549 -1.6867
14845TIP3    H266027   3.068   1.883   4.143 -0.6716  0.2810 -0.0725
14846TIP3   OH266028   3.363   2.908   1.874 -0.0800  0.3226  0.0308
14846TIP3    H166029   3.458   2.909   1.862 -0.2099  2.2610 -1.4674
14846TIP3    H266030   3.345   2.981   1.933 -0.6671  0.2623 -0.0646
14847TIP3   OH266031   1.274   2.144  51.697  0.0215 -0.0918 -0.3476
14847TIP3    H166032   1.270   2.070  51.758  2.3540  0.6588  0.8547
14847TIP3    H266033   1.188   2.185  51.703 -0.7674 -1.7213  0.1914
14848TIP3   OH266034   1.689   0.625  56.918 -0.2785 -0.4472 -0.5675
14848TIP3    H166035   1.730   0.660  56.997  1.1785  1.7894 -2.1852
14848TIP3    H266036   1.603   0.596  56.946  0.9415 -1.7152  2.2227
14849TIP3   OH266037   2.499   1.485  21.005  0.2868 -0.0081  0.9035
14849TIP3    H166038   2.419   1.470  21.055 -0.6552 -1.0632 -0.8561
14849TIP3    H266039   2.474   1.546  20.936  0.7500 -1.0485 -0.2106
14850TIP3   OH266040   1.891   3.089  21.474  0.2348  0.3616  0.5252
14850TIP3    H166041   1.806   3.076  21.433  0.8103 -0.1381 -0.5554
14850TIP3    H266042   1.942   3.138  21.409  1.4037 -1.0811  0.3036
14851TIP3   OH266043   3.326   1.980  16.742 -0.0171  0.0451  0.3238
14851TIP3    H166044   3.337   1.888  16.766 -0.9995  0.1857  1.3650
14851TIP3    H266045   3.232   1.992  16.737  0.0884  1.1702  0.8678
14852TIP3   OH266046   0.704   0.774  20.473  0.3750 -0.5549  0.0213
14852TIP3    H166047   0.696   0.869  20.477 -0.1692 -0.6280  1.3046
14852TIP3    H266048   0.648   0.747  20.400 -1.6451 -0.0749  1.3097
14853TIP3   OH266049   1.379   1.969  53.316  0.2618 -1.2297 -0.0912
14853TIP3    H166050   1.309   2.029  53.341 -0.4790 -2.3831  0.6929
14853TIP3    H266051   1.458   2.007  53.355  0.1499  0.1956 -1.1630
14854TIP3   OH266052   3.110   0.518  15.668 -0.3748 -0.4154  0.1207
14854TIP3    H166053   3.148   0.434  15.644 -0.0776 -0.3017  0.1809
14854TIP3    H266054   3.068   0.502  15.753  1.2710 -0.0779  1.0507
14855TIP3   OH266055   1.678   0.254  43.391 -0.0724  0.2899  0.1962
14855TIP3    H166056   1.606   0.275  43.331 -0.3326  1.5581  0.9183
14855TIP3    H266057   1.749   0.226  43.334 -1.3836 -1.8526 -0.4908
14856TIP3   OH266058   3.437   2.860  10.093  0.0372  0.2143  0.0949
14856TIP3    H166059   3.467   2.920  10.025 -1.8860 -0.6048 -1.5751
14856TIP3    H266060   3.432   2.775  10.050 -2.7493 -0.0302  0.7364
14857TIP3   OH266061   0.725   1.602  19.205  0.1359 -0.6343 -0.4049
14857TIP3    H166062   0.631   1.587  19.199  0.1483 -0.2556 -3.2433
14857TIP3    H266063   0.756   1.542  19.273 -1.8436 -2.4035 -0.9812
14858TIP3   OH266064   0.598   0.935  51.954  0.2575 -0.1213 -0.0858
14858TIP3    H166065   0.523   0.991  51.935  0.4982  0.0194 -0.6374
14858TIP3    H266066   0.645   0.980  52.024 -0.7667 -0.7591  1.0579
14859TIP3   OH266067   1.892   1.380  50.175  0.1065  0.2658 -0.6035
14859TIP3    H166068   1.874   1.366  50.268 -0.6654 -0.8435 -0.8981
14859TIP3    H266069   1.982   1.414  50.173  0.7938 -1.3743  0.4505
14860TIP3   OH266070   2.694   2.337  61.599 -0.0111 -0.4386  0.0182
14860TIP3    H166071   2.683   2.373  61.511 -1.3588 -0.1384  0.2858
14860TIP3    H266072   2.752   2.399  61.643  0.4797 -0.4636 -0.5871
14861TIP3   OH266073   3.338   1.635   5.682 -0.6165  0.1033  0.8299
14861TIP3    H166074   3.289   1.717   5.690  0.3631  0.9157 -0.8357
14861TIP3    H266075   3.359   1.611   5.772  0.3333  2.5019  1.3388
14862TIP3   OH266076   2.181   2.045  13.847  0.2397 -0.3500  0.1416
14862TIP3    H166077   2.203   1.960  13.808 -2.4937 -0.7222 -0.7884
14862TIP3    H266078   2.184   2.029  13.942 -0.0332 -1.4418 -0.0182
14863TIP3   OH266079   1.420   2.768  22.934  0.3166 -0.1018 -0.4805
14863TIP3    H166080   1.350   2.825  22.965  0.1149 -0.2746 -0.6206
14863TIP3    H266081   1.486   2.828  22.900 -0.4507  0.0223 -1.8257
14864TIP3   OH266082   1.873   2.872  43.546  0.1843 -0.4121  0.4632
14864TIP3    H166083   1.890   2.917  43.629 -2.6700 -0.3583  1.1477
14864TIP3    H266084   1.823   2.794  43.571  0.2240 -0.9857 -1.1263
14865TIP3   OH266085   3.180   1.405  12.524 -0.5360 -0.1419  0.5636
14865TIP3    H166086   3.193   1.428  12.432  2.6463  0.6008  1.0979
14865TIP3    H266087   3.104   1.456  12.550 -2.5590 -1.5772 -1.9597
14866TIP3   OH266088   3.184   1.920  58.463  0.0464 -0.5955  0.3321
14866TIP3    H166089   3.159   1.836  58.500 -0.1860 -0.9355 -0.5845
14866TIP3    H266090   3.190   1.978  58.539 -0.5354 -1.2471  0.8949
14867TIP3   OH266091   0.696   2.385   8.517 -0.2379 -0.3965 -0.8159
14867TIP3    H166092   0.613   2.407   8.475 -1.0427 -1.3239  0.2593
14867TIP3    H266093   0.675   2.378   8.610  1.3214  0.6800 -0.3417
14868TIP3   OH266094   1.105   1.241  11.538  0.3270 -0.1729  0.5144
14868TIP3    H166095   1.099   1.195  11.621 -2.5786 -1.0386 -0.0428
14868TIP3    H266096   1.044   1.195  11.481  1.6028  0.9083 -1.8719
14869TIP3   OH266097   2.918   2.968  56.841  0.4448  0.3985  0.7674
14869TIP3    H166098   2.879   3.035  56.897 -0.1513 -0.6503  1.6511
14869TIP3    H266099   3.006   3.001  56.821  0.2126  1.3726  1.2923
14870TIP3   OH266100   2.322   2.850  57.683 -0.0006 -0.3185 -0.5885
14870TIP3    H166101   2.282   2.768  57.713  1.0369 -0.2629  1.0780
14870TIP3    H266102   2.258   2.918  57.703  0.4417 -0.3589  1.0855
14871TIP3   OH266103   1.021   1.357  55.709 -0.0492  0.5372 -0.4486
14871TIP3    H166104   1.066   1.281  55.672  0.9853  1.1898 -0.5785
14871TIP3    H266105   0.982   1.325  55.791  2.7665  0.5072  0.9777
14872TIP3   OH266106   3.304   3.027   6.278  0.4180  0.6477 -0.3907
14872TIP3    H166107   3.282   3.119   6.264  1.8057  1.1370  0.3879
14872TIP3    H266108   3.271   3.008   6.366  1.1404  0.7547 -0.0882
14873TIP3   OH266109   0.837   2.467   1.191  0.3511  0.1685 -0.0388
14873TIP3    H166110   0.887   2.530   1.140 -0.1416 -0.8694 -1.8782
14873TIP3    H266111   0.880   2.383   1.175 -0.2599 -0.2935  0.6742
14874TIP3   OH266112   2.544   0.818  12.644 -0.1317 -0.3971 -0.1502
14874TIP3    H166113   2.541   0.772  12.560 -0.7091 -1.0635  0.2252
14874TIP3    H266114   2.585   0.902  12.623 -1.4147 -0.0231 -1.3544
14875TIP3   OH266115   0.442   2.508  17.577 -0.0510  0.0290  0.5308
14875TIP3    H166116   0.408   2.576  17.636 -1.8360 -0.7543  0.4683
14875TIP3    H266117   0.440   2.428  17.629  0.5162 -0.2619  0.1095
14876TIP3   OH266118   0.466   0.983   3.682  0.2413 -0.1382  0.2117
14876TIP3    H166119   0.554   1.020   3.685  0.2635 -0.2393  2.5031
14876TIP3    H266120   0.409   1.057   3.705 -0.1578 -0.4032  0.0845
14877TIP3   OH266121   1.194   1.177  21.941 -0.8433  0.2467  0.4310
14877TIP3    H166122   1.263   1.143  21.883  0.1083  2.4377  0.1896
14877TIP3    H266123   1.230   1.168  22.029 -0.7574  0.2571  0.3975
14878TIP3   OH266124   2.559   2.208  10.264 -0.1182  0.3348 -0.2176
14878TIP3    H166125   2.587   2.297  10.286 -0.0805  0.7969 -1.9177
14878TIP3    H266126   2.577   2.156  10.342 -0.2167  1.8331  0.8447
14879TIP3   OH266127   2.749   0.949  19.849 -0.4269  0.3448 -0.1077
14879TIP3    H166128   2.718   0.868  19.809 -1.1038  0.9357 -0.8171
14879TIP3    H266129   2.844   0.945  19.841 -0.5440  0.7513 -2.4722
14880TIP3   OH266130   2.458   2.221  11.524  0.5076 -0.0016  0.2095
14880TIP3    H166131   2.393   2.287  11.548  1.2804  0.6578  0.5055
14880TIP3    H266132   2.539   2.250  11.565  0.8703 -1.1253  0.3289
14881TIP3   OH266133   2.822   1.939  58.727 -0.2522 -0.2490 -0.2321
14881TIP3    H166134   2.787   1.993  58.798 -1.4611 -0.9459 -0.2530
14881TIP3    H266135   2.858   2.002  58.665 -1.1435  0.5194 -0.0108
14882TIP3   OH266136   2.651   0.675   7.318 -0.4229  0.5693  0.1466
14882TIP3    H166137   2.581   0.650   7.258 -0.7617  0.9929  0.3590
14882TIP3    H266138   2.711   0.600   7.318 -0.2408  0.7010 -0.9772
14883TIP3   OH266139   1.441   2.559   7.513 -0.2714  0.7174  0.3752
14883TIP3    H166140   1.504   2.619   7.473 -1.1701  2.5532  1.5450
14883TIP3    H266141   1.444   2.582   7.606 -1.1576 -0.6064  0.7466
14884TIP3   OH266142   0.673   3.014  51.769  0.2221 -0.5178  0.6624
14884TIP3    H166143   0.587   3.021  51.729  0.4384 -0.1513  0.2574
14884TIP3    H266144   0.678   3.090  51.827  1.6483  1.5889 -1.9798
14885TIP3   OH266145   0.780   1.975  56.509 -0.1231 -0.2785 -0.5661
14885TIP3    H166146   0.759   1.990  56.602 -0.1847  0.1493 -0.6450
14885TIP3    H266147   0.870   2.005  56.500 -0.1547 -0.2112 -0.6651
14886TIP3   OH266148   0.142   3.098  15.533 -0.8649 -0.4800 -0.0594
14886TIP3    H166149   0.077   3.139  15.591 -0.8385  0.6706 -0.8187
14886TIP3    H266150   0.215   3.076  15.591 -0.8396  0.6448  0.3537
14887TIP3   OH266151   2.445   1.086  61.217  0.4021  0.1448  0.0530
14887TIP3    H166152   2.460   0.995  61.241  1.5402  0.5182  0.8756
14887TIP3    H266153   2.416   1.128  61.298 -1.1139  0.3223 -0.5535
14888TIP3   OH266154   0.912   0.995  48.110 -0.1418 -0.0519 -0.5402
14888TIP3    H166155   0.928   0.988  48.204  0.4862  0.7930 -0.5780
14888TIP3    H266156   0.858   1.074  48.100 -0.7846 -0.5114 -0.8359
14889TIP3   OH266157   1.877   0.824  52.015  1.0974 -0.1817 -0.5405
14889TIP3    H166158   1.923   0.844  52.096  1.0176  0.8212 -0.7295
14889TIP3    H266159   1.923   0.875  51.948 -1.5267  2.6700 -0.4122
14890TIP3   OH266160   2.226   2.482  22.006 -0.2857  0.2959  1.0850
14890TIP3    H166161   2.190   2.570  21.994  0.5039  0.5324  0.3472
14890TIP3    H266162   2.191   2.431  21.934  0.6513  0.4716  0.4886
14891TIP3   OH266163   0.785   2.690  60.427 -0.4720 -0.2799  0.0097
14891TIP3    H166164   0.736   2.740  60.493 -0.7762  0.4894 -0.7855
14891TIP3    H266165   0.792   2.749  60.352 -1.3937 -1.6293 -1.2006
14892TIP3   OH266166   1.249   2.039   9.081 -0.5068  0.6479  0.0810
14892TIP3    H166167   1.337   2.037   9.044 -0.2484  1.1357  0.6644
14892TIP3    H266168   1.208   1.957   9.051  0.5106 -0.1132  0.7135
14893TIP3   OH266169   0.987   1.554   3.290  0.5774 -0.1750  0.2964
14893TIP3    H166170   0.989   1.460   3.273  1.4888 -0.2582  0.8226
14893TIP3    H266171   1.037   1.565   3.370  0.4025  0.7576  0.2902
14894TIP3   OH266172   2.775   1.398  57.626  0.5611 -0.2811 -0.7600
14894TIP3    H166173   2.843   1.347  57.582  0.0465 -1.6662  0.0160
14894TIP3    H266174   2.772   1.364  57.715 -0.2856  0.6250 -0.4214
14895TIP3   OH266175   1.398   1.379  18.669 -0.2729 -0.1931  0.2753
14895TIP3    H166176   1.326   1.387  18.607  1.1842  0.2497 -1.4644
14895TIP3    H266177   1.401   1.465  18.713 -1.0055 -0.3384  0.6226
14896TIP3   OH266178   1.024   3.323  47.277 -0.2336 -0.1788 -0.1647
14896TIP3    H166179   0.929   3.321  47.264 -0.2026  0.2078 -0.4585
14896TIP3    H266180   1.057   3.253  47.221 -0.3832 -0.6206  0.2895
14897TIP3   OH266181   3.163   3.197   2.236 -0.3768 -0.6120 -0.2376
14897TIP3    H166182   3.069   3.207   2.223 -0.2423 -0.6346 -1.2473
14897TIP3    H266183   3.186   3.268   2.297 -0.5650  1.2822 -2.2688
14898TIP3   OH266184   0.009   0.587  19.814  0.6299 -0.1241  0.0220
14898TIP3    H166185  -0.077   0.563  19.848  1.3049 -0.9721  1.1963
14898TIP3    H266186  -0.005   0.595  19.719 -0.5875 -0.9156  0.1048
14899TIP3   OH266187   2.251   0.660  11.411 -0.6246 -0.2217 -0.3779
14899TIP3    H166188   2.260   0.746  11.370 -1.1754 -0.9404 -2.0920
14899TIP3    H266189   2.338   0.643  11.448 -0.5875  1.1700  0.2446
14900TIP3   OH266190   2.620   3.418  57.252  0.7598 -0.6543 -0.2839
14900TIP3    H166191   2.593   3.432  57.162 -0.9132 -1.1749  0.0878
14900TIP3    H266192   2.576   3.488  57.301  0.5830 -1.1441  0.2752
14901TIP3   OH266193   0.826   3.390  63.873 -0.3529 -0.3461 -0.3641
14901TIP3    H166194   0.807   3.299  63.851 -1.6447  0.3557 -2.4002
14901TIP3    H266195   0.789   3.401  63.961 -1.8266 -1.3269 -0.8215
14902TIP3   OH266196   2.637   0.782   7.561 -0.6252  0.0799 -0.2333
14902TIP3    H166197   2.688   0.749   7.635 -0.3811 -1.1509 -0.9181
14902TIP3    H266198   2.669   0.732   7.486  0.9273  2.9660 -1.6864
14903TIP3   OH266199   2.977   1.312   4.158 -0.3766 -0.1546  0.0853
14903TIP3    H166200   3.023   1.280   4.080 -2.7887  0.3134 -1.6351
14903TIP3    H266201   3.025   1.390   4.184  0.6071 -0.4427 -0.7869
14904TIP3   OH266202   0.732   2.093  47.591  0.0354  0.0606  0.4085
14904TIP3    H166203   0.816   2.138  47.590  0.2263 -0.2495  1.3603
14904TIP3    H266204   0.692   2.113  47.506  1.2018 -0.0487 -0.1763
14905TIP3   OH266205   0.483   1.885  57.188 -0.1343 -0.3519 -0.7155
14905TIP3    H166206   0.555   1.945  57.206 -0.8030  0.8833 -2.0038
14905TIP3    H266207   0.429   1.887  57.267  1.0842 -1.1041  0.1697
14906TIP3   OH266208   1.491   2.264  18.534  0.2793  0.0799 -0.4354
14906TIP3    H166209   1.396   2.251  18.542  0.3216  0.8201  1.9365
14906TIP3    H266210   1.524   2.180  18.501 -1.4030  0.6205 -4.0089
14907TIP3   OH266211   0.455   0.828  17.347 -0.0230  0.6354  0.2515
14907TIP3    H166212   0.437   0.900  17.407 -0.1313  0.7483  0.0882
14907TIP3    H266213   0.508   0.868  17.278  0.2105  0.4779  0.3406
14908TIP3   OH266214   2.301   1.901  19.524 -0.2833  0.5914  0.0545
14908TIP3    H166215   2.233   1.960  19.493 -1.3656  1.1172  3.1162
14908TIP3    H266216   2.383   1.944  19.500 -1.0518  2.1431  0.0991
14909TIP3   OH266217   0.631   2.929   6.810 -0.7236 -0.2489 -0.0488
14909TIP3    H166218   0.623   2.901   6.719 -1.3016 -0.3772  0.0409
14909TIP3    H266219   0.557   2.888   6.855  0.0801 -0.9411  0.6671
14910TIP3   OH266220   0.289   1.181  66.698  0.2327 -0.3624 -0.3506
14910TIP3    H166221   0.377   1.163  66.731 -0.4803 -1.6820  0.9850
14910TIP3    H266222   0.267   1.103  66.647  0.3679  0.5994 -1.9368
14911TIP3   OH266223   0.427   2.385   4.232  0.6324  0.5027  0.6517
14911TIP3    H166224   0.342   2.345   4.247  0.5688  0.0198 -0.8813
14911TIP3    H266225   0.408   2.477   4.213  0.1828 -0.1061 -2.1669
14912TIP3   OH266226   2.115   0.109  45.416 -0.2197 -0.4301 -0.4317
14912TIP3    H166227   2.202   0.146  45.432 -0.7540  0.6763  0.0675
14912TIP3    H266228   2.057   0.185  45.418 -1.2446 -1.2009 -0.3860
14913TIP3   OH266229   1.561   1.036  52.595  0.0229 -0.3306  0.2043
14913TIP3    H166230   1.599   0.993  52.519  0.1314  1.6944 -0.9446
14913TIP3    H266231   1.501   1.100  52.559  0.6216  1.2050  1.8008
14914TIP3   OH266232   1.365   2.755  51.255 -0.3775 -0.1875 -0.4333
14914TIP3    H166233   1.459   2.772  51.258 -0.4693  0.2619  0.8955
14914TIP3    H266234   1.328   2.816  51.319 -1.2763 -2.0334  0.8936
14915TIP3   OH266235   2.205   1.031   9.209 -0.3928 -0.0623  0.2973
14915TIP3    H166236   2.192   1.087   9.132  0.6590 -0.3809 -0.1313
14915TIP3    H266237   2.248   0.953   9.174 -0.0159 -0.2639  1.1992
14916TIP3   OH266238   3.374   3.043  16.183  0.1097 -0.0215  0.2969
14916TIP3    H166239   3.464   3.076  16.193  0.5408 -0.7844 -0.8479
14916TIP3    H266240   3.378   2.954  16.219  0.1782 -0.5609 -0.9957
14917TIP3   OH266241   0.693   0.383  15.688  0.3381  0.5142 -0.3111
14917TIP3    H166242   0.748   0.370  15.610  1.2098 -3.6424  0.6991
14917TIP3    H266243   0.756   0.402  15.758  0.0753  0.0302  0.0669
14918TIP3   OH266244   1.064   3.261  64.072  0.2575 -0.2123  0.2095
14918TIP3    H166245   1.024   3.345  64.093  0.5367  0.3201 -1.2671
14918TIP3    H266246   1.138   3.284  64.015  1.4043 -1.3279  1.1895
14919TIP3   OH266247   3.350   1.889  28.327  0.4159  0.9065 -0.3967
14919TIP3    H166248   3.392   1.901  28.242  2.0813  0.1776  0.2873
14919TIP3    H266249   3.318   1.799  28.326  0.0114  1.0488 -0.4220
14920TIP3   OH266250   1.157   2.423  59.079  0.1438 -0.2149 -0.8534
14920TIP3    H166251   1.115   2.459  59.158 -0.0897 -1.5975 -0.3236
14920TIP3    H266252   1.119   2.475  59.008  0.2739  0.9891 -0.0893
14921TIP3   OH266253   1.115   2.973  41.939  0.4710  0.2728  0.2496
14921TIP3    H166254   1.089   3.060  41.967  1.3310  0.4866  0.4352
14921TIP3    H266255   1.084   2.915  42.009  0.8411  0.5641  0.6631
14922TIP3   OH266256   3.394   0.747  64.628  0.3019 -0.0610  0.0284
14922TIP3    H166257   3.485   0.732  64.654  0.3502  1.4106  0.8043
14922TIP3    H266258   3.384   0.842  64.627 -0.6911 -0.1303 -2.0433
14923TIP3   OH266259   1.002   2.723  58.428 -0.0360  0.7219  0.0443
14923TIP3    H166260   1.028   2.806  58.388  1.6789  0.3948  0.3959
14923TIP3    H266261   1.082   2.689  58.467 -0.8105 -0.8717  0.3429
14924TIP3   OH266262   2.012   2.824  52.042  0.2558 -0.0308 -0.1757
14924TIP3    H166263   2.099   2.788  52.061 -0.0803 -0.9749 -0.3708
14924TIP3    H266264   1.999   2.806  51.949  0.1458  0.7697 -0.3233
14925TIP3   OH266265   2.098   1.056  60.262 -0.4327 -0.0964  0.0466
14925TIP3    H166266   2.157   1.082  60.332  1.7890  0.6060 -1.9622
14925TIP3    H266267   2.049   0.982  60.298  0.8980 -0.0321  2.1681
14926TIP3   OH266268   2.377   1.206   1.960  0.2346 -0.0350  0.0017
14926TIP3    H166269   2.398   1.198   1.867 -0.0772 -0.8302 -0.0043
14926TIP3    H266270   2.322   1.284   1.965  0.7021  0.3324 -0.3973
14927TIP3   OH266271   1.846   2.452  48.096  0.6179  0.7263 -1.1643
14927TIP3    H166272   1.864   2.425  48.006 -0.3421 -1.5206 -0.7491
14927TIP3    H266273   1.751   2.445  48.105  0.8709 -1.8737  0.7558
14928TIP3   OH266274   3.150   2.385  45.535  0.1042 -1.0016  0.0736
14928TIP3    H166275   3.208   2.311  45.516  0.3248 -1.5112  2.4843
14928TIP3    H266276   3.204   2.462  45.520  1.9140 -1.4656  3.2551
14929TIP3   OH266277   0.291   3.238   3.737  0.2046 -0.0231 -0.3488
14929TIP3    H166278   0.215   3.181   3.736  2.0649 -2.7257  0.7376
14929TIP3    H266279   0.307   3.255   3.830  1.2366  0.0264 -0.5219
14930TIP3   OH266280   1.819   2.121  12.226 -0.1842  0.3142  0.5106
14930TIP3    H166281   1.874   2.117  12.147 -0.5320  1.9802  0.1536
14930TIP3    H266282   1.802   2.214  12.239 -2.3428 -0.0919  1.0234
14931TIP3   OH266283   2.790   0.642  20.743  0.5315  0.1582  0.3160
14931TIP3    H166284   2.874   0.659  20.701  0.8707 -0.7455  0.6178
14931TIP3    H266285   2.808   0.576  20.810 -0.3824  0.0766  0.5076
14932TIP3   OH266286   2.634   0.108  27.208  0.5470  0.1317 -0.2826
14932TIP3    H166287   2.696   0.180  27.214 -0.0220  0.5339  0.9708
14932TIP3    H266288   2.637   0.082  27.116  2.3288  0.3403 -0.3252
14933TIP3   OH266289   2.502   2.740   1.362 -1.0288 -0.6294  0.1598
14933TIP3    H166290   2.505   2.645   1.367 -1.1466 -0.5923  3.4445
14933TIP3    H266291   2.586   2.765   1.324  1.1794 -2.0584  3.5251
14934TIP3   OH266292   1.753   3.226   6.022 -0.1348 -0.1876  0.4430
14934TIP3    H166293   1.761   3.132   6.007 -0.5417 -0.2514  0.6235
14934TIP3    H266294   1.737   3.234   6.116  3.1403  0.2483  1.1000
14935TIP3   OH266295   1.666   1.419  56.395  0.1968  0.4991 -0.2411
14935TIP3    H166296   1.736   1.384  56.340  0.7851  2.2602 -0.6766
14935TIP3    H266297   1.702   1.418  56.483 -0.2345 -1.0206 -0.0442
14936TIP3   OH266298   3.204   1.351  19.905  0.1459 -0.3892 -0.2224
14936TIP3    H166299   3.127   1.405  19.925 -1.0600 -1.5425 -1.4906
14936TIP3    H266300   3.168   1.275  19.859  2.0153 -1.2247 -0.3848
14937TIP3   OH266301   0.205   0.151  53.385  0.1647 -0.4563  0.5621
14937TIP3    H166302   0.135   0.087  53.374  1.8577 -2.1317 -1.6868
14937TIP3    H266303   0.169   0.232  53.351 -1.3163 -0.7555  1.3562
14938TIP3   OH266304   0.161   0.393   4.921 -0.2315 -0.1314 -0.1871
14938TIP3    H166305   0.113   0.454   4.864  0.4006 -1.6322 -2.4057
14938TIP3    H266306   0.234   0.445   4.955 -0.8921  0.9241 -0.3256
14939TIP3   OH266307   1.501   3.432  52.815  0.3090 -0.4392 -0.5961
14939TIP3    H166308   1.442   3.497  52.777  1.4534  0.6436 -0.5505
14939TIP3    H266309   1.477   3.429  52.907 -1.1123 -1.6006 -0.9642
14940TIP3   OH266310   0.003   1.098   6.127 -0.4651 -0.1417 -0.7902
14940TIP3    H166311  -0.079   1.049   6.132 -0.3971 -0.2523 -0.7557
14940TIP3    H266312   0.004   1.133   6.038 -1.0256  0.6986 -0.4784
14941TIP3   OH266313   1.900   0.829   7.581  0.0046  0.4320 -0.8690
14941TIP3    H166314   1.806   0.846   7.591 -0.0413 -0.7868  1.5729
14941TIP3    H266315   1.905   0.746   7.533 -0.1960  0.2459 -0.5716
14942TIP3   OH266316   0.388   3.338  66.758 -0.0121 -0.7724 -0.3976
14942TIP3    H166317   0.333   3.278  66.708  0.4508 -1.4684 -0.0913
14942TIP3    H266318   0.330   3.374  66.825 -0.4344 -0.4311 -0.9339
14943TIP3   OH266319   1.926   1.779  43.564  0.2222  0.8314 -0.5109
14943TIP3    H166320   2.016   1.807  43.581  0.1962  0.8829 -0.4577
14943TIP3    H266321   1.873   1.857  43.577  0.2312  0.9444 -1.1183
14944TIP3   OH266322   0.887   0.131   8.471 -0.1617 -0.1540  0.1936
14944TIP3    H166323   0.797   0.163   8.471 -0.5192 -1.1411 -0.4729
14944TIP3    H266324   0.905   0.111   8.563 -0.6871 -0.1513  0.2998
14945TIP3   OH266325   2.758   2.458   5.111  0.3788 -0.4725  0.5594
14945TIP3    H166326   2.756   2.420   5.199  2.1910 -1.3382  0.2835
14945TIP3    H266327   2.682   2.421   5.067  0.1733 -1.0417  1.3785
14946TIP3   OH266328   0.250   2.409  45.965 -0.4397 -0.7265  0.0742
14946TIP3    H166329   0.243   2.326  46.013 -0.2642 -2.0704 -2.0486
14946TIP3    H266330   0.161   2.428  45.937 -0.6275  0.3311  1.3136
14947TIP3   OH266331   2.711   2.176  57.125  0.2502  0.0836  0.0132
14947TIP3    H166332   2.771   2.153  57.054 -0.8029  0.5853 -1.0859
14947TIP3    H266333   2.756   2.149  57.204  2.2230  1.0710 -0.7040
14948TIP3   OH266334   0.902   2.408  55.672  0.1485 -0.4457 -0.2525
14948TIP3    H166335   0.916   2.321  55.711 -0.4441 -0.5255 -0.2003
14948TIP3    H266336   0.847   2.453  55.736  2.9800  1.1105  1.2666
14949TIP3   OH266337   1.046   3.193  42.112  0.3438  0.1876  0.2759
14949TIP3    H166338   1.054   3.273  42.164 -0.2675  0.5104 -0.1181
14949TIP3    H266339   0.994   3.134  42.167  0.4815  0.1955  0.4163
14950TIP3   OH266340   0.876   0.932   0.566 -0.4064  0.4083 -0.0295
14950TIP3    H166341   0.786   0.900   0.556  0.1235 -0.5154 -2.8245
14950TIP3    H266342   0.926   0.854   0.591  0.0100  0.3256 -1.1038
14951TIP3   OH266343   0.119   2.471  45.019 -0.2186  0.0827  0.2888
14951TIP3    H166344   0.044   2.425  44.982 -0.2170 -0.2471  0.6809
14951TIP3    H266345   0.141   2.421  45.097  0.0055  0.5492  0.5331
14952TIP3   OH266346   3.389   1.592  11.250 -0.9314 -0.1812  0.1664
14952TIP3    H166347   3.336   1.631  11.181 -0.5309  1.3005  0.6605
14952TIP3    H266348   3.355   1.630  11.331 -0.3616 -0.6857  0.6539
14953TIP3   OH266349   0.526   0.265   8.195 -0.0008 -0.8246  0.2081
14953TIP3    H166350   0.477   0.199   8.146  0.4008 -0.8063 -0.2371
14953TIP3    H266351   0.488   0.349   8.168  1.0728 -0.7260 -1.1066
14954TIP3   OH266352   2.203   0.644  14.905 -0.2183 -0.0794  0.1612
14954TIP3    H166353   2.282   0.621  14.954 -0.2144 -3.2625 -1.1559
14954TIP3    H266354   2.236   0.682  14.823 -0.1569  1.1145  0.7166
14955TIP3   OH266355   1.436   1.553  14.160  0.2307  0.1155 -0.0112
14955TIP3    H166356   1.404   1.480  14.213  0.4001 -1.4050 -1.8934
14955TIP3    H266357   1.357   1.591  14.122  0.2660 -0.3871 -0.6076
14956TIP3   OH266358   0.811   2.881   3.187 -0.6151  0.2617  0.0628
14956TIP3    H166359   0.778   2.793   3.171 -1.5861  0.2945  1.6376
14956TIP3    H266360   0.781   2.932   3.112 -2.0334 -0.2732  0.2343
14957TIP3   OH266361   2.249   0.202  53.639  0.4822 -0.2033 -0.0116
14957TIP3    H166362   2.329   0.176  53.595  0.8621  0.5047  0.2385
14957TIP3    H266363   2.264   0.183  53.732  1.3208  2.0807  0.3912
14958TIP3   OH266364   1.194   1.917  12.165 -0.1347  0.6170  0.0265
14958TIP3    H166365   1.145   1.852  12.114  1.5059 -2.6595  2.2854
14958TIP3    H266366   1.171   1.898  12.256  2.4766  1.3510  0.9177
14959TIP3   OH266367   0.663   2.365  59.641 -0.3558  0.2615  0.1584
14959TIP3    H166368   0.747   2.328  59.671 -1.3953 -0.7250  2.0665
14959TIP3    H266369   0.670   2.459  59.659 -0.0142  0.0349  1.3429
14960TIP3   OH266370   2.260   1.361  14.377 -0.1754 -0.0225 -0.2142
14960TIP3    H166371   2.345   1.405  14.384  0.7282 -1.8989  2.2379
14960TIP3    H266372   2.254   1.309  14.458 -3.1223 -0.9137 -0.9072
14961TIP3   OH266373   2.700   0.032   3.209  0.1006 -0.0689  0.3129
14961TIP3    H166374   2.707   0.031   3.113  2.0228  1.1729  0.3856
14961TIP3    H266375   2.702  -0.060   3.234  2.4045 -0.3574 -0.7282
14962TIP3   OH266376   3.193   3.207  16.337 -0.0517  0.0925 -0.0479
14962TIP3    H166377   3.200   3.183  16.429 -1.0814  0.7117  0.2022
14962TIP3    H266378   3.239   3.137  16.290  2.9231  1.1126  1.0824
14963TIP3   OH266379   2.427   1.289  56.622  0.0105  0.0607  0.4400
14963TIP3    H166380   2.400   1.198  56.615 -2.9461  0.8396  0.3394
14963TIP3    H266381   2.458   1.298  56.712 -1.2897 -0.6800  0.9848
14964TIP3   OH266382   2.558   3.242  66.624 -0.1408 -0.0982 -0.3150
14964TIP3    H166383   2.572   3.247  66.530 -0.0295  1.7412 -0.2325
14964TIP3    H266384   2.560   3.333  66.654 -0.3701 -0.6242  1.4431
14965TIP3   OH266385   1.273   3.320   7.974  0.2030  0.9223  0.3026
14965TIP3    H166386   1.197   3.298   8.029 -0.1032 -0.2994 -0.5566
14965TIP3    H266387   1.289   3.412   7.992  0.3204  0.5154  2.6824
14966TIP3   OH266388   1.206   0.633  64.634 -0.2775 -0.7414 -0.3217
14966TIP3    H166389   1.264   0.706  64.614 -1.0084 -0.3733 -1.1432
14966TIP3    H266390   1.160   0.615  64.552 -1.3279 -1.0132  0.3011
14967TIP3   OH266391   2.305   0.033  18.552  0.8530  0.3584 -0.1327
14967TIP3    H166392   2.329  -0.009  18.635 -1.2430  1.1279  0.9499
14967TIP3    H266393   2.329   0.125  18.565 -2.3132  1.1594  0.9986
14968TIP3   OH266394   0.023   1.938  58.941  0.3906  0.2513 -0.0958
14968TIP3    H166395   0.054   2.009  58.997 -2.1404  0.3585  1.3254
14968TIP3    H266396   0.009   1.865  59.001 -1.7809  0.1578 -0.6292
14969TIP3   OH266397   1.396   0.099   6.244  0.1300 -0.1465  0.0401
14969TIP3    H166398   1.364   0.178   6.286 -0.8887 -0.3317 -0.3498
14969TIP3    H266399   1.415   0.039   6.316 -0.0914  0.0855  0.2895
14970TIP3   OH266400   2.976   0.222  11.544  0.3102 -0.0478 -0.1476
14970TIP3    H166401   3.057   0.235  11.592  0.5408  0.4774 -0.6668
14970TIP3    H266402   2.963   0.127  11.543 -0.2427 -0.0375  1.8207
14971TIP3   OH266403   1.412   0.398  58.404  0.1521 -0.3935  0.1662
14971TIP3    H166404   1.337   0.413  58.346 -1.3394 -0.1001  2.0550
14971TIP3    H266405   1.415   0.303  58.414  0.6352 -0.4708 -0.6374
14972TIP3   OH266406   0.855   2.559  46.401 -0.4938  0.2482  0.1397
14972TIP3    H166407   0.845   2.518  46.486 -1.6818  1.4981  0.6443
14972TIP3    H266408   0.945   2.590  46.399 -0.4008  0.0256  0.8528
14973TIP3   OH266409   2.730   2.907   2.685 -0.4296  0.3266  0.6234
14973TIP3    H166410   2.707   2.815   2.698 -0.8882  0.2101 -0.8387
14973TIP3    H266411   2.663   2.941   2.626 -0.1648  1.5600  0.9967
14974TIP3   OH266412   2.996   2.937   4.947 -0.6761 -0.2235 -0.8169
14974TIP3    H166413   3.066   2.896   4.896  1.4067 -0.1160  1.7143
14974TIP3    H266414   2.944   2.863   4.978 -1.1791 -0.3788 -1.9936
14975TIP3   OH266415   0.753   2.051   0.348 -0.4731 -0.4283 -0.0897
14975TIP3    H166416   0.789   2.136   0.371  2.7091 -1.9279  1.0022
14975TIP3    H266417   0.753   2.002   0.431 -0.0220 -2.1989 -1.0908
14976TIP3   OH266418   0.355   2.009  21.635  0.2792 -0.4025 -0.0608
14976TIP3    H166419   0.351   2.058  21.553 -0.2193 -0.4316 -0.0567
14976TIP3    H266420   0.331   1.919  21.611 -1.9827  0.0035  0.4379
14977TIP3   OH266421   2.987   2.823   5.314  0.0697  0.2549 -0.1698
14977TIP3    H166422   2.912   2.873   5.282 -0.3226 -0.7705 -0.8866
14977TIP3    H266423   3.063   2.879   5.296 -0.5751  1.7266  1.4308
14978TIP3   OH266424   1.737   2.468  16.514 -0.4221 -0.2473 -0.1860
14978TIP3    H166425   1.763   2.424  16.433 -0.0774  1.7458 -1.2208
14978TIP3    H266426   1.642   2.471  16.510 -0.8013 -4.1153  1.7387
14979TIP3   OH266427   1.074   3.398  61.819  0.3622  0.0139  0.3512
14979TIP3    H166428   1.012   3.459  61.779 -1.3365 -1.9432 -0.1288
14979TIP3    H266429   1.031   3.313  61.815  2.6605 -1.2635  0.9811
14980TIP3   OH266430   0.351   3.327  63.586 -0.2441 -0.0580 -0.4887
14980TIP3    H166431   0.437   3.363  63.563 -0.4976  0.2851 -0.8983
14980TIP3    H266432   0.288   3.389  63.550 -0.7485 -1.7916 -2.7635
14981TIP3   OH266433   2.401   1.153  63.375  0.6167  0.0893 -0.3656
14981TIP3    H166434   2.462   1.110  63.315  1.0752  0.0975  0.0924
14981TIP3    H266435   2.344   1.204  63.318  1.1543  0.2247 -0.7870
14982TIP3   OH266436   0.102   2.832  62.307  0.1168 -0.4548 -0.2760
14982TIP3    H166437   0.135   2.893  62.241 -0.0913 -0.2970 -0.2387
14982TIP3    H266438   0.134   2.866  62.390 -0.8684  0.2084 -0.1480
14983TIP3   OH266439   3.040   2.085  26.899 -0.0712  0.2337 -0.3744
14983TIP3    H166440   3.092   2.005  26.901 -1.1998 -0.5055  0.9229
14983TIP3    H266441   3.038   2.115  26.990 -0.5590  1.1488 -0.6708
14984TIP3   OH266442   0.643   2.730  39.039  0.4835 -0.6993  0.2462
14984TIP3    H166443   0.575   2.780  39.084  1.2843  0.2933  0.3864
14984TIP3    H266444   0.716   2.728  39.101  0.5998 -1.7244  0.0832
14985TIP3   OH266445   1.473   0.359  60.097  0.1792 -0.2862  0.5050
14985TIP3    H166446   1.403   0.293  60.095 -2.2793  2.1258  0.5589
14985TIP3    H266447   1.500   0.361  60.188  0.7412 -1.5964  0.3980
14986TIP3   OH266448   2.091   1.200  20.535  0.1496  0.3621 -0.0381
14986TIP3    H166449   2.089   1.268  20.467 -2.0681 -1.5105 -2.0098
14986TIP3    H266450   2.028   1.229  20.600 -0.3135  0.5339 -0.5526
14987TIP3   OH266451   1.745   1.782  55.227 -0.6735 -0.1184  0.1143
14987TIP3    H166452   1.707   1.854  55.278 -0.3349 -0.7839  1.3534
14987TIP3    H266453   1.737   1.706  55.284 -0.8590 -1.0368 -1.1108
14988TIP3   OH266454   1.013   2.294   2.571  0.4870 -0.5106 -0.2360
14988TIP3    H166455   0.935   2.239   2.571  1.7750 -2.4334 -0.5382
14988TIP3    H266456   1.025   2.318   2.479  0.6987 -0.8956 -0.3105
14989TIP3   OH266457   1.830   1.080  15.877  0.2203 -0.2394  0.3975
14989TIP3    H166458   1.902   1.142  15.865  0.4652 -0.8474 -1.6121
14989TIP3    H266459   1.841   1.049  15.967  1.9122  0.3703  0.4459
14990TIP3   OH266460   1.935   2.629  59.286  0.0588 -0.2127  0.5551
14990TIP3    H166461   1.951   2.535  59.290 -0.8121 -0.4461 -0.8305
14990TIP3    H266462   1.849   2.640  59.328 -0.0969 -0.1123  0.2119
14991TIP3   OH266463   2.633   0.077  49.682 -0.1035  0.4184  0.0320
14991TIP3    H166464   2.665   0.168  49.681  0.5091  0.2439 -2.2131
14991TIP3    H266465   2.697   0.029  49.734  0.4067  1.0193 -0.0257
14992TIP3   OH266466   2.967   2.020  47.338 -0.2304 -0.3227 -0.3685
14992TIP3    H166467   2.911   2.051  47.409 -2.5021 -1.1016 -1.7318
14992TIP3    H266468   2.981   2.097  47.284 -1.7464 -0.5233 -1.1037
14993TIP3   OH266469   2.883   0.027  47.671  0.3847  0.0832  0.3538
14993TIP3    H166470   2.936   0.100  47.638  0.4628  0.0928  0.5022
14993TIP3    H266471   2.877   0.041  47.765 -0.1691  0.2708  0.2960
14994TIP3   OH266472   0.988   1.662   8.356  0.0446 -0.0824 -0.1065
14994TIP3    H166473   0.937   1.596   8.309  1.1779 -1.8743  1.0658
14994TIP3    H266474   1.074   1.660   8.315  0.5233 -0.3975  0.8948
14995TIP3   OH266475   1.048   2.562  18.120 -0.3434  0.1677 -0.3908
14995TIP3    H166476   1.060   2.482  18.170  0.3385 -0.5133 -1.5862
14995TIP3    H266477   1.137   2.590  18.098 -0.5829  1.1648 -0.1265
14996TIP3   OH266478   1.671   2.827   1.477 -0.0443 -0.3019 -0.7426
14996TIP3    H166479   1.683   2.919   1.499 -0.1087 -1.0838  3.2954
14996TIP3    H266480   1.760   2.790   1.479 -0.2568 -0.7923  0.4629
14997TIP3   OH266481   2.697   0.597   8.151  0.3619  0.3859  0.0143
14997TIP3    H166482   2.692   0.686   8.186 -0.2527 -0.0228  0.9999
14997TIP3    H266483   2.609   0.580   8.118 -0.2348 -0.7062  2.0196
14998TIP3   OH266484   1.492   1.757  66.057  0.2489  0.0040 -0.1735
14998TIP3    H166485   1.478   1.806  66.137 -0.5159 -0.7639  0.1803
14998TIP3    H266486   1.432   1.796  65.993 -0.9192 -0.9356  0.3184
14999TIP3   OH266487   1.173   0.504  66.906 -0.7026  0.0147  0.4497
14999TIP3    H166488   1.266   0.491  66.924 -0.9173  0.3171  1.8516
14999TIP3    H266489   1.132   0.421  66.930 -1.3960  1.3208  4.5832
15000TIP3   OH266490   1.666   2.334  47.278  0.1254  0.1559 -0.3282
15000TIP3    H166491   1.727   2.330  47.352  0.5010 -0.3147 -0.6492
15000TIP3    H266492   1.714   2.383  47.211 -0.4817  1.1866 -0.0226
15001TIP3   OH266493   0.543   2.017  12.223 -0.2940 -0.3289 -0.1610
15001TIP3    H166494   0.544   1.931  12.265 -4.0782  0.1696  1.3999
15001TIP3    H266495   0.471   2.012  12.160 -0.1815  1.5027 -0.4838
15002TIP3   OH266496   2.677   2.238  10.017 -0.1558 -0.2921 -0.0328
15002TIP3    H166497   2.626   2.227  10.097  1.3698 -1.2894  0.8465
15002TIP3    H266498   2.768   2.240  10.046  0.3992  0.0123 -1.6797
15003TIP3   OH266499   2.603   0.680   2.005 -0.7263  0.2540 -0.0969
15003TIP3    H166500   2.539   0.625   1.960 -0.6863 -0.2803  0.4759
15003TIP3    H266501   2.581   0.769   1.979 -0.7284 -0.0368 -1.1262
15004TIP3   OH266502   2.861   1.914  14.996  0.2633 -0.2546 -0.0119
15004TIP3    H166503   2.793   1.943  15.058 -0.1199  3.2516 -1.8483
15004TIP3    H266504   2.820   1.842  14.948 -1.5199  0.6407  0.0907
15005TIP3   OH266505   1.932   1.926   1.999  0.0883  0.2213 -0.0843
15005TIP3    H166506   2.006   1.872   2.023  0.0838  0.6779  1.0104
15005TIP3    H266507   1.855   1.870   2.014  0.2015 -0.2955 -1.3452
15006TIP3   OH266508   1.477   0.715  45.426 -0.2915 -0.5486 -0.3731
15006TIP3    H166509   1.414   0.657  45.468  0.5033 -1.9466 -1.0350
15006TIP3    H266510   1.545   0.729  45.492 -0.8458  0.2565  0.0416
15007TIP3   OH266511   3.104   1.953  55.705  0.5933 -0.8077 -0.5246
15007TIP3    H166512   3.191   1.990  55.710 -0.0956  0.8718 -0.3704
15007TIP3    H266513   3.109   1.872  55.756  1.5615  0.2490  1.1318
15008TIP3   OH266514   0.729   0.867   0.182 -0.1436  0.2767 -0.2078
15008TIP3    H166515   0.668   0.803   0.145 -0.1466  1.0212 -1.5378
15008TIP3    H266516   0.697   0.880   0.272 -1.2417 -0.2163 -0.5025
15009TIP3   OH266517   1.948   3.292  21.297 -0.0035 -0.5542 -0.3164
15009TIP3    H166518   1.901   3.356  21.245 -0.5558 -1.7106 -1.2723
15009TIP3    H266519   2.041   3.311  21.280 -0.1339  0.6592  0.2654
15010TIP3   OH266520   1.914   0.215  18.251  0.8440  0.0890  0.0087
15010TIP3    H166521   1.868   0.294  18.281 -2.5121 -1.5493 -0.3418
15010TIP3    H266522   1.911   0.156  18.326  1.5977 -0.4092 -0.3435
15011TIP3   OH266523   1.622   0.220   5.666 -0.3603 -0.6435  0.2406
15011TIP3    H166524   1.608   0.216   5.761 -0.7386  0.6617  0.2554
15011TIP3    H266525   1.705   0.174   5.653  0.3033  0.1849  1.3584
15012TIP3   OH266526   1.278   1.866  55.675  0.1820 -0.4238  0.4019
15012TIP3    H166527   1.227   1.793  55.709 -1.4813 -0.6035 -2.2061
15012TIP3    H266528   1.353   1.826  55.632  0.1959 -0.4618  0.4614
15013TIP3   OH266529   2.288   1.859  63.544 -0.3039 -0.6389  0.3102
15013TIP3    H166530   2.381   1.837  63.547 -0.0894  0.2925  0.7738
15013TIP3    H266531   2.265   1.853  63.452  0.6936  0.9729 -0.0906
15014TIP3   OH266532   0.875   1.872  67.468 -0.1118 -0.8374 -0.0561
15014TIP3    H166533   0.788   1.838  67.488 -0.7105  0.4621 -0.2982
15014TIP3    H266534   0.900   1.922  67.547  0.0220 -0.4797 -0.3185
15015TIP3   OH266535   1.533   1.280  11.982  0.4463 -0.0749 -0.1030
15015TIP3    H166536   1.557   1.190  11.958 -1.5330 -0.3182 -1.4305
15015TIP3    H266537   1.440   1.275  12.002  0.5163  1.5287  0.7896
15016TIP3   OH266538   0.893   0.885  17.824  0.0554 -0.3939  0.1087
15016TIP3    H166539   0.961   0.949  17.847  1.6477 -1.3830 -1.5495
15016TIP3    H266540   0.830   0.935  17.772  0.4122  0.1898  0.2259
15017TIP3   OH266541   0.458   0.674  53.347  0.2499  0.0372 -0.1090
15017TIP3    H166542   0.549   0.657  53.325  0.4375 -0.2793  0.8698
15017TIP3    H266543   0.448   0.643  53.437 -0.3538  1.7091  0.4484
15018TIP3   OH266544   1.851   2.319   0.657  0.2325 -0.0958 -0.5386
15018TIP3    H166545   1.863   2.228   0.631  0.5935  0.2840 -1.7646
15018TIP3    H266546   1.894   2.325   0.742  2.9202 -0.3938 -1.7507
15019TIP3   OH266547   3.254   0.478  18.408  0.1475  0.1298 -0.1222
15019TIP3    H166548   3.172   0.517  18.437  0.1758  0.0668  0.0514
15019TIP3    H266549   3.242   0.384  18.423  0.2897  0.1310  0.0074
15020TIP3   OH266550   2.685   2.691  21.928 -0.1821 -0.3066  0.1771
15020TIP3    H166551   2.623   2.620  21.909  0.2855 -0.5930 -0.3200
15020TIP3    H266552   2.643   2.769  21.892 -1.0199 -0.1954  1.3481
15021TIP3   OH266553   2.010   1.117  13.633 -0.0986  0.4315  0.8013
15021TIP3    H166554   1.952   1.175  13.585 -0.4069  0.8072  1.6053
15021TIP3    H266555   1.963   1.034  13.639  0.8908 -0.3690 -1.5024
15022TIP3   OH266556   0.047   3.253  18.512  0.5330 -0.0506  0.6042
15022TIP3    H166557   0.128   3.258  18.461  0.5882  3.2063  0.8352
15022TIP3    H266558   0.026   3.159  18.514  2.1050 -0.6267 -2.8452
15023TIP3   OH266559   2.056   1.076   3.559 -0.7219  0.2064  0.3427
15023TIP3    H166560   2.105   1.075   3.477  0.1463  0.6264  0.8408
15023TIP3    H266561   2.122   1.093   3.627 -1.4751  0.2414  1.0913
15024TIP3   OH266562   0.195   0.042  14.480  1.0488  0.5684 -0.2754
15024TIP3    H166563   0.253  -0.020  14.436  1.4431  1.0937 -0.5097
15024TIP3    H266564   0.246   0.074  14.554 -0.1166 -1.3826  1.4805
15025TIP3   OH266565   2.202   0.036   5.738  0.1480 -0.1888 -0.5230
15025TIP3    H166566   2.172  -0.002   5.656  0.8204 -1.9223 -0.0014
15025TIP3    H266567   2.285   0.079   5.716  0.1646 -0.3673 -0.8152
15026TIP3   OH266568   3.106   1.036  62.559  0.6927 -0.0416 -0.0182
15026TIP3    H166569   3.042   1.064  62.624  0.3394 -1.9387  0.5147
15026TIP3    H266570   3.090   1.093  62.484 -1.5086 -0.3175  0.1754
15027TIP3   OH266571   0.699   0.162  44.128  0.2859 -0.1379 -0.4708
15027TIP3    H166572   0.764   0.148  44.059 -0.1647 -0.8750 -0.7512
15027TIP3    H266573   0.640   0.087  44.121 -1.0862  0.9442 -0.7584
15028TIP3   OH266574   0.603   3.269  50.227 -0.1384 -0.1923  0.4661
15028TIP3    H166575   0.521   3.314  50.204 -0.0748 -1.2948 -2.3509
15028TIP3    H266576   0.577   3.178  50.239  0.6845 -0.6249 -0.8590
15029TIP3   OH266577   2.626   1.453   2.095  0.1093 -0.1986 -0.3812
15029TIP3    H166578   2.602   1.363   2.115  1.7221 -0.4527  0.6446
15029TIP3    H266579   2.666   1.485   2.176 -0.1333  1.3353 -0.8414
15030TIP3   OH266580   2.300   3.386  62.734 -0.0060 -0.1566  0.2519
15030TIP3    H166581   2.369   3.399  62.669  1.8172 -1.7983  1.7100
15030TIP3    H266582   2.341   3.408  62.817 -1.1502 -1.3725  1.1885
15031TIP3   OH266583   0.931   0.235  46.316 -0.2687  0.3617 -0.4104
15031TIP3    H166584   1.013   0.269  46.280 -0.2708 -0.7139 -1.5039
15031TIP3    H266585   0.871   0.234  46.241 -0.7791 -0.4107  0.0018
15032TIP3   OH266586   0.894   1.245   3.241  0.6077  0.2216  0.0263
15032TIP3    H166587   0.897   1.221   3.334  1.0102  0.7221  0.1466
15032TIP3    H266588   0.804   1.227   3.214  0.2834  0.7887  0.7094
15033TIP3   OH266589   3.428   2.880  66.785  0.0935 -0.1075  0.0697
15033TIP3    H166590   3.409   2.833  66.704  1.2103  1.1427 -0.9680
15033TIP3    H266591   3.404   2.819  66.855 -1.2208 -1.0808 -1.1869
15034TIP3   OH266592   2.734   2.599  63.478  0.1007  0.2466  0.3199
15034TIP3    H166593   2.656   2.543  63.484 -0.9660  1.7685  1.5108
15034TIP3    H266594   2.704   2.675  63.429  0.9806  0.6487  0.4024
15035TIP3   OH266595   1.013   1.966  13.336 -0.2484 -0.4111  0.0518
15035TIP3    H166596   0.965   1.910  13.274  0.5190 -2.0510  0.8762
15035TIP3    H266597   1.105   1.942  13.323  0.1958  1.3230 -0.1763
15036TIP3   OH266598   3.356   0.195   4.354  0.0349  0.4869  0.9181
15036TIP3    H166599   3.335   0.250   4.278 -0.5861 -1.6806 -0.5835
15036TIP3    H266600   3.286   0.131   4.358  1.7248 -1.4595  1.2947
15037TIP3   OH266601   0.834   2.659  10.928 -0.1855 -0.0080  0.5141
15037TIP3    H166602   0.798   2.589  10.984 -2.7231 -0.1134 -1.0594
15037TIP3    H266603   0.859   2.614  10.847  0.8917  0.5154  0.5446
15038TIP3   OH266604   2.789   2.250  49.031 -0.9085  0.3808 -0.6262
15038TIP3    H166605   2.733   2.181  49.066 -0.6054  0.3729 -0.1479
15038TIP3    H266606   2.732   2.327  49.025 -0.5687  0.9190  1.6684
15039TIP3   OH266607   1.407   2.136  53.031  0.4334 -0.1125  0.0648
15039TIP3    H166608   1.461   2.215  53.035 -0.3653  0.4149  0.7824
15039TIP3    H266609   1.395   2.110  53.122 -0.9720  0.0988 -0.0396
15040TIP3   OH266610   0.544   1.695  13.089 -0.0872  0.0671 -0.4909
15040TIP3    H166611   0.460   1.660  13.120 -0.2463 -0.1217 -1.1070
15040TIP3    H266612   0.521   1.743  13.009  0.6399 -1.7246 -1.8594
15041TIP3   OH266613   1.726   0.209   7.638  0.2571  0.1691  0.5214
15041TIP3    H166614   1.703   0.259   7.716  1.2887 -0.2922  1.1406
15041TIP3    H266615   1.816   0.181   7.653  0.1096 -0.8476 -0.3645
15042TIP3   OH266616   0.205   1.261  55.773 -0.2264 -0.3232 -0.0380
15042TIP3    H166617   0.264   1.275  55.699 -1.4721  3.1074 -0.5263
15042TIP3    H266618   0.201   1.165  55.782  2.7589 -0.7686 -2.0425
15043TIP3   OH266619   3.209   3.255   4.679  0.3035  0.1573 -0.4613
15043TIP3    H166620   3.183   3.169   4.646 -0.0087 -0.1537  0.5440
15043TIP3    H266621   3.128   3.295   4.710  0.8128 -0.4926  1.9566
15044TIP3   OH266622   1.523   1.330  48.153  0.0868  0.4906  0.3168
15044TIP3    H166623   1.461   1.263  48.182 -0.9033  1.1999 -0.1392
15044TIP3    H266624   1.469   1.404  48.128  1.1969  1.6904  1.3251
15045TIP3   OH266625   0.587   1.685  16.888 -0.2510  0.3154  0.7655
15045TIP3    H166626   0.509   1.644  16.926 -0.1472 -0.3677  0.2527
15045TIP3    H266627   0.653   1.680  16.957  0.0384 -1.2200  0.4130
15046TIP3   OH266628   0.079   2.391  56.347  0.5340 -0.1664  0.1956
15046TIP3    H166629   0.143   2.327  56.315  0.6146  0.4859 -0.9998
15046TIP3    H266630   0.128   2.445  56.409  1.0866  0.1623 -0.5114
15047TIP3   OH266631   2.024   1.871   2.828  0.3944 -0.4883 -0.2803
15047TIP3    H166632   2.015   1.831   2.741 -0.6330 -0.8967 -0.0063
15047TIP3    H266633   1.937   1.905   2.847  1.6207  3.7150 -1.3065
15048TIP3   OH266634   0.554   0.309  16.769  0.1538  0.5777  0.7351
15048TIP3    H166635   0.598   0.284  16.850  1.1786 -1.3229 -0.3284
15048TIP3    H266636   0.471   0.260  16.771  1.7885 -2.6101 -0.9492
15049TIP3   OH266637   0.844   0.702   9.817  0.0098  0.3436 -0.1823
15049TIP3    H166638   0.902   0.715   9.743 -0.1919 -0.3289 -0.4620
15049TIP3    H266639   0.852   0.783   9.868  1.8740 -0.1059  0.2786
15050TIP3   OH266640   1.907   2.142  14.267  0.2045 -0.1446  0.1777
15050TIP3    H166641   1.868   2.197  14.200  0.4229 -1.1335 -0.7969
15050TIP3    H266642   2.001   2.154  14.256  0.2619 -0.8941 -0.2281
15051TIP3   OH266643   3.439   2.206   9.653  0.4613  0.2544 -0.3457
15051TIP3    H166644   3.494   2.138   9.690 -0.0396 -0.2573 -0.5294
15051TIP3    H266645   3.415   2.174   9.566 -0.0778  0.4938 -0.2938
15052TIP3   OH266646   2.304   3.002  16.071  0.2095 -0.2082 -0.6724
15052TIP3    H166647   2.308   2.999  15.975 -1.0352 -0.2703 -0.7337
15052TIP3    H266648   2.354   2.926  16.100  0.9032  0.0148 -1.2569
15053TIP3   OH266649   2.980   1.729  54.909  0.1602  0.2959  0.2139
15053TIP3    H166650   2.949   1.785  54.980 -0.1306 -0.3537  0.6165
15053TIP3    H266651   3.049   1.677  54.949 -0.9209 -1.0405  0.4388
15054TIP3   OH266652   2.511   2.242  15.684 -0.3543 -0.2668  0.0644
15054TIP3    H166653   2.595   2.273  15.716  0.6993 -1.8765 -1.0152
15054TIP3    H266654   2.474   2.317  15.638 -0.1429  0.8548  1.6072
15055TIP3   OH266655   1.566   1.570  50.553 -0.2524 -0.1756 -0.0931
15055TIP3    H166656   1.561   1.497  50.615 -3.0910 -0.6940 -0.7845
15055TIP3    H266657   1.559   1.528  50.467  3.0425  0.5774 -0.9020
15056TIP3   OH266658   1.077   1.440  64.673 -0.1305  0.1044  0.5619
15056TIP3    H166659   1.058   1.534  64.680 -0.0833  0.2799 -1.2015
15056TIP3    H266660   0.993   1.400  64.647  0.4222  0.0736 -1.3685
15057TIP3   OH266661   0.858   2.839  54.761  0.2302  0.4206  0.1094
15057TIP3    H166662   0.929   2.903  54.756  0.8018 -0.2863 -3.7397
15057TIP3    H266663   0.834   2.823  54.670 -2.0897 -2.4534  1.0846
15058TIP3   OH266664   2.981   2.586  28.954  0.4916 -0.0356  0.0306
15058TIP3    H166665   2.919   2.657  28.939  2.7523  2.0264 -0.2531
15058TIP3    H266666   2.968   2.526  28.881 -0.5656  0.7977 -0.4830
15059TIP3   OH266667   0.674   3.049  44.165 -0.2969 -0.2715  0.2787
15059TIP3    H166668   0.735   3.032  44.094 -0.3644 -1.8138  0.5458
15059TIP3    H266669   0.729   3.053  44.243 -0.3207  0.4876  0.2596
15060TIP3   OH266670   0.710   2.218   2.983 -0.1574  0.5657  0.7486
15060TIP3    H166671   0.623   2.224   2.943  0.8184 -0.7499 -1.8278
15060TIP3    H266672   0.713   2.131   3.021 -0.0728  0.7353  1.1309
15061TIP3   OH266673   3.412   3.009  57.168  0.2838  0.0789 -0.7218
15061TIP3    H166674   3.460   3.060  57.102 -1.5639  0.2754 -1.9783
15061TIP3    H266675   3.324   3.000  57.132 -0.5461 -0.5722  1.3495
15062TIP3   OH266676   2.724   2.713  60.088  0.2169 -0.0840 -0.3241
15062TIP3    H166677   2.760   2.690  60.173 -0.4259 -0.9342 -0.2592
15062TIP3    H266678   2.725   2.630  60.039 -1.8025 -0.1958 -0.2456
15063TIP3   OH266679   3.084   1.228  58.197  0.0040 -0.3735 -0.0603
15063TIP3    H166680   3.060   1.278  58.119 -4.0251  0.2233  1.3279
15063TIP3    H266681   3.116   1.294  58.259  0.5152 -0.4266 -0.2674
15064TIP3   OH266682   1.880   3.100  59.673 -0.1624  0.4752  0.3117
15064TIP3    H166683   1.789   3.128  59.661 -0.7497 -0.1641  2.6146
15064TIP3    H266684   1.898   3.045  59.597 -1.0885  2.0096 -1.0740
15065TIP3   OH266685   0.104   2.377  18.260  0.2300  0.1010 -0.2632
15065TIP3    H166686   0.171   2.386  18.192  1.4608  0.9644  1.0192
15065TIP3    H266687   0.070   2.466  18.273 -1.1324 -0.3033 -0.8185
15066TIP3   OH266688   1.317   1.304  43.478  0.1139  0.4502  0.1199
15066TIP3    H166689   1.328   1.385  43.528  2.0597  0.7907 -0.7761
15066TIP3    H266690   1.387   1.247  43.509  0.2428  0.0088 -0.9573
15067TIP3   OH266691   3.242   0.091  48.651  0.3954  0.7768 -0.2067
15067TIP3    H166692   3.254   0.185  48.632 -0.3163  0.5152 -2.2316
15067TIP3    H266693   3.310   0.048  48.598 -0.3127  0.0794 -0.5697
15068TIP3   OH266694   3.210   2.669  46.664  0.5552 -0.2182  0.8746
15068TIP3    H166695   3.137   2.731  46.664  0.3909 -0.4044  0.4352
15068TIP3    H266696   3.249   2.677  46.751  0.2320  0.1442  0.9896
15069TIP3   OH266697   3.400   0.136   4.009 -0.4657 -0.1223  0.2930
15069TIP3    H166698   3.468   0.102   4.066  0.2640  2.1334  0.8664
15069TIP3    H266699   3.352   0.199   4.063 -1.4025  0.1779 -0.8429
15070TIP3   OH266700   0.102   2.992  58.321 -0.0346 -0.1631  0.3991
15070TIP3    H166701   0.149   2.910  58.329  1.2808  0.6089  0.8215
15070TIP3    H266702   0.167   3.060  58.341 -0.7346  1.0557 -1.2041
15071TIP3   OH266703   0.849   0.391  51.039 -0.5087  0.5082 -0.1893
15071TIP3    H166704   0.812   0.302  51.039  1.0772 -0.2393 -2.6829
15071TIP3    H266705   0.775   0.447  51.018 -1.4264 -0.2541  0.8628
15072TIP3   OH266706   2.684   2.427  18.968 -0.7628  0.2644  0.1279
15072TIP3    H166707   2.606   2.460  19.013  0.5428  1.9123  1.3016
15072TIP3    H266708   2.729   2.374  19.034 -0.1364  0.5583 -0.0626
15073TIP3   OH266709   0.682   1.605  15.849 -0.8958 -0.6094  0.1976
15073TIP3    H166710   0.675   1.536  15.914  1.7762 -2.2988 -1.1057
15073TIP3    H266711   0.742   1.669  15.888 -0.1125 -1.1130 -0.1484
15074TIP3   OH266712   0.040   0.583   5.515  0.2086  0.3343 -0.5055
15074TIP3    H166713  -0.032   0.523   5.534  0.3287  0.1491 -0.6258
15074TIP3    H266714   0.078   0.549   5.433 -0.9533  1.7227 -1.6858
15075TIP3   OH266715   2.808   0.541  17.937 -0.3032  0.8109  0.1991
15075TIP3    H166716   2.856   0.517  18.017 -0.5943  0.1590  0.1839
15075TIP3    H266717   2.827   0.470  17.876 -0.7246  0.9026 -0.0414
15076TIP3   OH266718   0.461   2.545  65.281 -0.6668 -0.2334 -0.1384
15076TIP3    H166719   0.512   2.625  65.294 -0.6229 -0.3922  0.7385
15076TIP3    H266720   0.521   2.475  65.306  0.0277 -0.7291 -2.8996
15077TIP3   OH266721   0.507   2.393   5.536 -0.3862  0.1999  0.2055
15077TIP3    H166722   0.508   2.297   5.539  0.7909  0.1150 -1.4707
15077TIP3    H266723   0.425   2.415   5.492 -1.0116  0.0353  1.2335
15078TIP3   OH266724   2.444   0.806  65.468  0.4217  0.3982  0.2158
15078TIP3    H166725   2.511   0.798  65.399 -1.1317  0.1144 -1.3423
15078TIP3    H266726   2.368   0.761  65.432 -0.2937 -0.2837  2.4098
15079TIP3   OH266727   0.705   0.263  11.025 -0.4044 -0.1907 -0.0601
15079TIP3    H166728   0.623   0.223  11.053  0.0396 -1.2550 -0.2327
15079TIP3    H266729   0.723   0.223  10.940 -0.2222  0.7995 -0.5019
15080TIP3   OH266730   2.816   2.225  13.949  0.1205  0.3145  0.1199
15080TIP3    H166731   2.767   2.259  14.025  3.2321  3.4059  1.0220
15080TIP3    H266732   2.766   2.257  13.874  0.0673  2.4880  0.9789
15081TIP3   OH266733   2.992   2.276  59.131  0.2666 -0.3675 -0.0571
15081TIP3    H166734   3.005   2.371  59.138 -1.7641 -0.0074 -0.5749
15081TIP3    H266735   3.061   2.239  59.185 -0.0072  1.4743  1.6968
15082TIP3   OH266736   0.334   1.949  48.062  0.2614  0.6033 -0.2873
15082TIP3    H166737   0.255   1.956  48.117  0.8366 -1.9189  0.9952
15082TIP3    H266738   0.304   1.974  47.975 -1.3347  2.1335  0.6076
15083TIP3   OH266739   2.412   2.938  13.608  0.0112  0.3295 -0.6534
15083TIP3    H166740   2.382   2.970  13.523  0.4710 -1.1457 -1.3980
15083TIP3    H266741   2.387   3.007  13.670  0.4193  1.8018 -2.0898
15084TIP3   OH266742   0.754   1.376  17.883  0.4281 -0.8306  0.2453
15084TIP3    H166743   0.730   1.298  17.933 -2.7173  0.4468  0.9991
15084TIP3    H266744   0.679   1.391  17.825  1.1212  1.3864 -0.1683
15085TIP3   OH266745   0.513   2.092  49.811  0.2892 -0.6721 -0.5860
15085TIP3    H166746   0.419   2.110  49.815  0.1104 -1.6287 -0.1078
15085TIP3    H266747   0.521   2.021  49.747  0.7441 -0.3027 -0.9466
15086TIP3   OH266748   1.778   1.415  49.457  0.3957  0.0400 -0.4340
15086TIP3    H166749   1.854   1.472  49.472  1.0405 -0.6888 -0.8589
15086TIP3    H266750   1.816   1.333  49.425 -0.5782 -0.3419 -0.6284
15087TIP3   OH266751   2.290   1.164  49.436  0.0715 -0.0896  0.3689
15087TIP3    H166752   2.328   1.231  49.379  0.3246 -0.3287  0.2516
15087TIP3    H266753   2.276   1.209  49.519  0.7614 -0.0373  0.4630
15088TIP3   OH266754   0.640   2.877   4.846  0.0101 -0.7516  0.1870
15088TIP3    H166755   0.715   2.926   4.880  1.9353 -1.2657 -2.9440
15088TIP3    H266756   0.658   2.786   4.871 -1.3157 -0.5530  2.1587
15089TIP3   OH266757   1.925   1.374  60.720  0.1304 -0.5194 -0.0026
15089TIP3    H166758   2.008   1.327  60.725  2.5081  3.0155 -1.7258
15089TIP3    H266759   1.906   1.401  60.810  1.9782  0.2404  0.1976
15090TIP3   OH266760   0.512   1.427   5.939  0.2737 -0.2291 -0.0875
15090TIP3    H166761   0.474   1.418   5.851  1.0577  1.2140 -0.5916
15090TIP3    H266762   0.436   1.432   5.997 -0.2753 -2.6508 -0.4621
15091TIP3   OH266763   2.386   1.111  16.048 -0.1444  0.2411 -0.1112
15091TIP3    H166764   2.317   1.060  16.004 -0.9141 -0.5051  1.8280
15091TIP3    H266765   2.355   1.201  16.043 -1.5334 -0.1227  1.0839
15092TIP3   OH266766   3.329   3.239  42.557 -0.2070 -0.5934  0.0124
15092TIP3    H166767   3.284   3.167  42.600  1.2206 -0.8680  1.1511
15092TIP3    H266768   3.275   3.260  42.481 -1.2930 -2.0308  0.3493
15093TIP3   OH266769   0.678   3.097  10.484  0.2017  0.1658  0.2867
15093TIP3    H166770   0.658   3.065  10.396  0.3909 -1.0507  0.6663
15093TIP3    H266771   0.592   3.111  10.524  0.1095 -0.1382  0.2001
15094TIP3   OH266772   2.586   1.116  59.517  0.2764  0.0322 -0.1602
15094TIP3    H166773   2.571   1.209  59.534 -1.1008 -0.1021 -0.5253
15094TIP3    H266774   2.557   1.102  59.427 -0.0331 -0.8473  0.0626
15095TIP3   OH266775   1.091   3.417  42.266  0.4587  0.3366 -0.6042
15095TIP3    H166776   1.159   3.476  42.299  0.4598 -1.0407  2.0779
15095TIP3    H266777   1.009   3.466  42.276  0.8672  1.9382 -3.7012
15096TIP3   OH266778   0.807   0.087  54.721 -0.8083 -0.5425  0.5971
15096TIP3    H166779   0.870   0.058  54.787 -0.4860 -2.5129 -0.5023
15096TIP3    H266780   0.759   0.158  54.763  0.8065 -0.3113  2.1706
15097TIP3   OH266781   0.743   0.715  62.676  0.2744 -0.1412  0.1810
15097TIP3    H166782   0.709   0.672  62.754 -4.3525 -0.3716 -1.6540
15097TIP3    H266783   0.706   0.804  62.679 -0.4480 -0.3090 -1.8827
15098TIP3   OH266784   1.834   2.153  64.343  0.2892 -0.4806  0.3372
15098TIP3    H166785   1.748   2.130  64.308 -0.1944 -1.5119  2.0601
15098TIP3    H266786   1.817   2.176  64.435  1.9225 -1.4787  0.9317
15099TIP3   OH266787   1.023   2.339  61.502  0.0859 -0.2173  0.1077
15099TIP3    H166788   1.078   2.261  61.514  2.5054  1.2759 -0.6093
15099TIP3    H266789   1.003   2.368  61.591  0.5552 -0.7361  0.3891
15100TIP3   OH266790   3.336   3.274  65.566  0.2139  0.0163  0.2154
15100TIP3    H166791   3.418   3.275  65.517  0.5008  0.1049  0.6869
15100TIP3    H266792   3.333   3.188  65.608 -1.2422 -1.0895 -1.9349
15101TIP3   OH266793   1.136   0.075   2.119  0.1805  0.5486 -0.2416
15101TIP3    H166794   1.042   0.060   2.131 -0.1614  1.8138 -1.0918
15101TIP3    H266795   1.166   0.110   2.202  0.4212 -1.9409  0.8188
15102TIP3   OH266796   0.741   2.744  18.883  1.1291 -0.0029  0.3456
15102TIP3    H166797   0.651   2.750  18.916  1.1878 -0.1829  0.5346
15102TIP3    H266798   0.748   2.655  18.850  0.7993  0.4188 -0.9260
15103TIP3   OH266799   2.249   0.873  47.253  0.1003  0.2847  0.3959
15103TIP3    H166800   2.250   0.951  47.197  0.3209 -0.3640 -0.5228
15103TIP3    H266801   2.300   0.899  47.330  1.8631  0.4398 -0.7721
15104TIP3   OH266802   2.559   1.616   5.813  0.2201  0.4545  0.0633
15104TIP3    H166803   2.569   1.616   5.718  2.3477  0.7927  0.2331
15104TIP3    H266804   2.465   1.618   5.828 -0.2423 -1.9634 -2.0022
15105TIP3   OH266805   1.171   1.443   1.203  0.1141  0.4749  0.2360
15105TIP3    H166806   1.125   1.442   1.287  0.5597  0.6871  0.4831
15105TIP3    H266807   1.141   1.364   1.159 -0.5307  0.6356  0.3729
15106TIP3   OH266808   2.253   1.936  20.696 -0.2316  0.1559 -0.3390
15106TIP3    H166809   2.199   1.857  20.695 -0.4777  0.3238 -0.2540
15106TIP3    H266810   2.191   2.008  20.690  0.0417  0.3243 -1.4295
15107TIP3   OH266811   2.027   0.035  52.280  0.3633  0.3867 -0.3697
15107TIP3    H166812   2.038  -0.056  52.253 -0.8658 -0.2237  1.0261
15107TIP3    H266813   1.944   0.063  52.240 -0.7697 -0.0922  1.5372
15108TIP3   OH266814   2.674   1.499  19.260  0.2473  0.3314 -0.5154
15108TIP3    H166815   2.746   1.441  19.283 -0.0681 -0.5783 -1.7071
15108TIP3    H266816   2.716   1.569  19.208  0.6603  1.3450  1.1089
15109TIP3   OH266817   3.322   2.525  11.358  0.8000 -0.0273 -0.6622
15109TIP3    H166818   3.228   2.517  11.342  0.5500 -0.0916  0.7569
15109TIP3    H266819   3.340   2.619  11.346  0.5837 -0.0304 -1.0309
15110TIP3   OH266820   1.728   2.593  57.809 -0.6626  0.2242  1.0581
15110TIP3    H166821   1.749   2.507  57.846  0.4253  0.5633  1.2523
15110TIP3    H266822   1.715   2.650  57.885 -0.6558  0.4059  0.9241
15111TIP3   OH266823   3.212   2.642  17.146  0.3448 -0.4739  0.3133
15111TIP3    H166824   3.275   2.708  17.117 -0.3094 -0.4903 -1.2817
15111TIP3    H266825   3.132   2.664  17.098 -0.6097 -0.9672  1.6375
15112TIP3   OH266826   2.438   0.701  52.673 -0.6690  0.2349  0.1599
15112TIP3    H166827   2.449   0.633  52.607 -1.3918  0.5464 -0.2856
15112TIP3    H266828   2.424   0.653  52.755  2.4862 -0.1992  0.5735
15113TIP3   OH266829   2.768   1.457  16.320  0.1414 -0.1621 -0.3998
15113TIP3    H166830   2.766   1.365  16.345 -1.5191  0.2180  1.0465
15113TIP3    H266831   2.839   1.495  16.373 -0.4373 -0.2545  0.4666
15114TIP3   OH266832   2.278   2.038  42.653 -0.3522  0.3459  0.0700
15114TIP3    H166833   2.334   1.977  42.605 -1.5325 -1.0549  0.3999
15114TIP3    H266834   2.201   2.048  42.598 -0.8303  0.3260  0.7256
15115TIP3   OH266835   2.963   1.175   5.579  0.1201  1.0706 -0.1999
15115TIP3    H166836   3.027   1.150   5.513  0.0319  1.3462 -0.3884
15115TIP3    H266837   3.003   1.248   5.626 -0.8687  2.6323 -1.6409
15116TIP3   OH266838   1.142   2.356  43.223 -0.6778  0.7088  0.1159
15116TIP3    H166839   1.173   2.271  43.189  0.8565 -0.0917  3.1641
15116TIP3    H266840   1.092   2.333  43.301  0.3741  2.5768  1.4139
15117TIP3   OH266841   3.383   0.770  52.279  0.1175  0.3684  0.6076
15117TIP3    H166842   3.314   0.707  52.256 -0.2206  0.6404  0.8512
15117TIP3    H266843   3.341   0.827  52.344  0.1714  1.3181 -0.1740
15118TIP3   OH266844   0.863   0.312  64.116 -0.5676 -0.5473 -0.1707
15118TIP3    H166845   0.772   0.312  64.088 -0.8178 -0.2352  0.6192
15118TIP3    H266846   0.863   0.359  64.199  0.5361  0.6821 -0.8253
15119TIP3   OH266847   2.035   0.344   3.330 -0.3965 -0.4290  0.1205
15119TIP3    H166848   2.060   0.420   3.276 -1.3748  1.1457  1.7554
15119TIP3    H266849   2.119   0.308   3.359  0.1003  0.1140 -0.5865
15120TIP3   OH266850   0.147   2.180  57.017  0.3188 -0.1071 -0.4138
15120TIP3    H166851   0.177   2.197  57.106  1.7903 -1.7614 -0.5324
15120TIP3    H266852   0.071   2.237  57.005  0.9033  1.1211  1.4200
15121TIP3   OH266853   2.891   2.372  44.095  0.4778 -0.2755 -0.3870
15121TIP3    H166854   2.875   2.295  44.149  1.2724 -1.2385 -1.4647
15121TIP3    H266855   2.986   2.372  44.082  0.4233  0.6024 -0.8235
15122TIP3   OH266856   3.367   0.244  54.705  0.1558  0.0577  0.2155
15122TIP3    H166857   3.312   0.203  54.639 -0.6926  0.4288  0.6708
15122TIP3    H266858   3.312   0.312  54.743  0.7415  0.0756  1.0661
15123TIP3   OH266859   0.977   2.087  49.211  0.1013 -0.1190 -0.0076
15123TIP3    H166860   0.897   2.137  49.196 -0.2576 -0.6874 -0.0124
15123TIP3    H266861   1.029   2.101  49.132  1.1471  2.3140  1.0143
15124TIP3   OH266862   0.574   1.373  12.820 -0.7147  0.3811  0.0878
15124TIP3    H166863   0.594   1.325  12.739  0.6262 -0.6486  0.9925
15124TIP3    H266864   0.545   1.305  12.882 -1.4799  1.1252  0.5695
15125TIP3   OH266865   1.629   0.988   0.624 -0.0569 -0.4307 -0.2819
15125TIP3    H166866   1.689   0.933   0.676 -0.0675 -0.9714 -0.8316
15125TIP3    H266867   1.651   1.077   0.650 -1.9151 -0.7007  2.7517
15126TIP3   OH266868   2.096   2.265  44.079 -0.7547 -0.0322 -0.2138
15126TIP3    H166869   2.124   2.353  44.052 -2.3768 -0.0538 -2.1280
15126TIP3    H266870   2.175   2.226  44.117 -0.3193  2.7182  2.0517
15127TIP3   OH266871   0.140   1.387   6.183  0.1760  0.3402 -0.0124
15127TIP3    H166872   0.090   1.342   6.251 -0.9326  2.6971  0.8430
15127TIP3    H266873   0.220   1.415   6.226  1.3912 -1.6267 -0.8380
15128TIP3   OH266874   1.037   0.362  15.188  0.1249  0.0702 -0.2965
15128TIP3    H166875   1.100   0.315  15.243 -2.2509 -1.0589  1.6198
15128TIP3    H266876   1.089   0.430  15.146  2.5394 -0.4656  1.5790
15129TIP3   OH266877   0.327   0.396  17.062 -0.3676  0.0617 -0.2248
15129TIP3    H166878   0.416   0.361  17.066  0.8534  2.2898 -3.6032
15129TIP3    H266879   0.322   0.456  17.136  1.3185  0.5938 -0.4920
15130TIP3   OH266880   0.878   2.374  42.730  0.6658  0.0258  0.2349
15130TIP3    H166881   0.874   2.297  42.785  0.6720 -0.1461 -0.0030
15130TIP3    H266882   0.797   2.372  42.680  0.1306  0.7942  1.0489
15131TIP3   OH266883   0.685   1.945  44.663  0.9686  0.2629 -0.1525
15131TIP3    H166884   0.779   1.950  44.642  0.8620  1.0496 -0.4587
15131TIP3    H266885   0.661   2.033  44.689 -0.2915  0.7905 -2.7650
15132TIP3   OH266886   1.223   1.125  57.294 -0.6612  0.8886 -0.0588
15132TIP3    H166887   1.161   1.064  57.335  0.8650 -0.7223 -0.0384
15132TIP3    H266888   1.202   1.210  57.332 -2.0719  0.1779  0.8222
15133TIP3   OH266889   3.017   0.957  45.859 -0.1487  0.0432  0.1410
15133TIP3    H166890   3.076   0.892  45.897 -0.3284  0.6129  1.4641
15133TIP3    H266891   3.039   0.958  45.766  1.3671 -0.3339  0.4586
15134TIP3   OH266892   1.810   2.028  10.505  0.1512 -0.4097 -0.3241
15134TIP3    H166893   1.897   2.050  10.473  0.2118 -1.0886 -0.6371
15134TIP3    H266894   1.756   2.020  10.426 -0.0845 -0.4585 -0.1598
15135TIP3   OH266895   1.664   1.713  64.540 -0.1212  0.2215 -0.2722
15135TIP3    H166896   1.702   1.779  64.482 -3.7555  2.8823  0.0086
15135TIP3    H266897   1.665   1.754  64.626 -0.1004 -1.2636  0.4694
15136TIP3   OH266898   3.117   2.869  56.490  0.4403  0.5053  0.2421
15136TIP3    H166899   3.112   2.776  56.508 -1.8935  0.5467  0.1165
15136TIP3    H266900   3.148   2.874  56.399 -0.8007 -0.2383 -0.2474
15137TIP3   OH266901   2.823   2.112   8.027  0.4160 -0.1889 -0.3338
15137TIP3    H166902   2.740   2.118   8.074 -1.9792 -3.6011 -3.5552
15137TIP3    H266903   2.860   2.028   8.056  2.4410  0.9286  0.4772
15138TIP3   OH266904   0.309   2.801  65.477  0.5058  0.0491 -0.3778
15138TIP3    H166905   0.398   2.782  65.445  0.2709  1.2835 -1.8804
15138TIP3    H266906   0.268   2.849  65.405 -0.8290  1.0060  0.9814
15139TIP3   OH266907   3.085   1.752   2.989 -0.4304  0.2054  0.1771
15139TIP3    H166908   3.107   1.720   2.902  0.0311  1.8583 -0.3362
15139TIP3    H266909   3.082   1.847   2.981  0.1948  0.4413  2.0897
15140TIP3   OH266910   1.042   0.712   0.585 -0.3487  0.3582 -0.0695
15140TIP3    H166911   1.111   0.773   0.610 -0.6258  0.0780  1.4587
15140TIP3    H266912   1.083   0.626   0.593 -0.7305  0.2169  0.3703
15141TIP3   OH266913   2.113   1.123  45.084  0.3366 -0.0681  0.2963
15141TIP3    H166914   2.187   1.063  45.094  0.8250  0.6261  1.0609
15141TIP3    H266915   2.038   1.076  45.119  0.4617 -0.6889 -0.2544
15142TIP3   OH266916   0.602   0.003  63.086  0.1469  0.4508  0.3605
15142TIP3    H166917   0.634   0.021  62.998  0.4634  0.5768  0.4999
15142TIP3    H266918   0.612   0.086  63.133 -0.5957  0.5534  0.3416
15143TIP3   OH266919   1.594   1.984  44.527 -0.2040 -0.4147 -0.4529
15143TIP3    H166920   1.562   1.912  44.581 -1.0459  0.0446 -0.3209
15143TIP3    H266921   1.554   1.968  44.441 -0.1590 -0.2659 -0.4996
15144TIP3   OH266922   0.283   2.658   0.330  0.7609  0.5349 -0.6788
15144TIP3    H166923   0.212   2.654   0.395  1.4341 -0.7135  0.0082
15144TIP3    H266924   0.310   2.567   0.319  0.6034  0.7158 -2.7970
15145TIP3   OH266925   0.705   2.386  54.827 -0.1971 -0.0581  0.1667
15145TIP3    H166926   0.652   2.381  54.907  1.2049  1.1556  1.2429
15145TIP3    H266927   0.683   2.471  54.789  1.2293  0.6698  0.8732
15146TIP3   OH266928   2.231   3.233  60.903  0.0513  0.5113  0.4802
15146TIP3    H166929   2.149   3.263  60.866 -1.0577 -3.1164 -0.3936
15146TIP3    H266930   2.215   3.230  60.998 -1.2366 -1.0886  0.2420
15147TIP3   OH266931   0.777   1.890   8.834 -0.5271  0.0813  0.0355
15147TIP3    H166932   0.837   1.860   8.765  1.6925  1.3363  1.2830
15147TIP3    H266933   0.719   1.815   8.850  0.2820 -0.9778 -1.7094
15148TIP3   OH266934   2.941   1.474  43.607  0.3776 -0.2653 -0.5495
15148TIP3    H166935   2.944   1.386  43.568 -1.1375 -0.2682 -0.7200
15148TIP3    H266936   2.955   1.459  43.700  1.3923 -0.5333 -0.7244
15149TIP3   OH266937   2.172   1.628  57.683 -0.0211  0.3087  0.2560
15149TIP3    H166938   2.234   1.700  57.674  0.3031 -0.0167 -0.1913
15149TIP3    H266939   2.127   1.624  57.598 -0.3763  0.2922  0.4447
15150TIP3   OH266940   3.192   1.435   1.270  0.1220 -0.2855  0.4760
15150TIP3    H166941   3.223   1.362   1.217  0.9885 -0.1007  0.7154
15150TIP3    H266942   3.108   1.458   1.231  0.3912 -0.6387 -0.3475
15151TIP3   OH266943   1.839   0.178  45.968  0.7651 -0.1458 -0.2731
15151TIP3    H166944   1.843   0.171  46.063  1.2293 -2.3833 -0.4059
15151TIP3    H266945   1.927   0.154  45.938  0.9503  1.5659 -1.2699
15152TIP3   OH266946   0.917   1.643   7.161 -0.1279  0.6765  0.2670
15152TIP3    H166947   0.907   1.731   7.198 -0.3960  0.4470  0.7408
15152TIP3    H266948   0.943   1.589   7.236  0.6132  0.4648 -0.1360
15153TIP3   OH266949   0.767   1.517  51.809 -0.0489 -0.3613  0.0998
15153TIP3    H166950   0.818   1.438  51.789  0.0289  0.0587 -1.4811
15153TIP3    H266951   0.733   1.546  51.725 -2.5032 -0.3152  1.0375
15154TIP3   OH266952   3.340   0.281  65.865  0.2573 -0.2236 -0.1093
15154TIP3    H166953   3.292   0.219  65.920  1.3976  0.2652  1.4901
15154TIP3    H266954   3.272   0.329  65.818 -0.7119 -1.2106  0.2332
15155TIP3   OH266955   0.595   2.149  16.870 -0.4389  0.6245  0.0633
15155TIP3    H166956   0.562   2.173  16.957 -0.4816  1.6587 -0.2270
15155TIP3    H266957   0.619   2.233  16.829 -0.8925  0.1976 -1.1131
15156TIP3   OH266958   0.865   3.438  55.296  0.3226  0.4228  0.3015
15156TIP3    H166959   0.871   3.457  55.389 -1.4578  0.2877  0.4755
15156TIP3    H266960   0.775   3.460  55.272  0.6281  0.0896 -1.3014
15157TIP3   OH266961   0.835   2.595  45.895 -0.3271  0.6298  0.6247
15157TIP3    H166962   0.892   2.639  45.832 -1.0843 -0.2902 -0.7712
15157TIP3    H266963   0.818   2.661  45.962  1.1076  1.4073  0.2659
15158TIP3   OH266964   1.567   0.326  37.913 -0.7379  0.4303 -0.1085
15158TIP3    H166965   1.579   0.413  37.953 -3.0183  0.2059  1.2420
15158TIP3    H266966   1.556   0.267  37.988 -1.6971 -0.5956 -1.0415
15159TIP3   OH266967   3.404   0.340  56.360  0.7053  0.7805 -0.3720
15159TIP3    H166968   3.366   0.283  56.293  0.7495  0.3357 -0.0263
15159TIP3    H266969   3.343   0.413  56.366  0.2477  0.4026 -0.2953
15160TIP3   OH266970   1.962   0.512   1.672 -0.3452 -0.0195  0.3285
15160TIP3    H166971   1.952   0.479   1.582  3.3766  0.5915 -0.4780
15160TIP3    H266972   2.056   0.511   1.687 -0.5746  3.0709  3.0163
15161TIP3   OH266973   1.784   1.518  18.211 -0.2091  0.2271 -0.3623
15161TIP3    H166974   1.815   1.480  18.129  0.5314 -0.6493  0.2963
15161TIP3    H266975   1.692   1.540  18.195 -0.1461 -0.1752 -1.3365
15162TIP3   OH266976   2.653   0.694  62.967 -0.2751  0.3218 -0.5015
15162TIP3    H166977   2.663   0.631  62.896 -0.8248  0.2374 -0.5077
15162TIP3    H266978   2.705   0.658  63.039 -0.5139 -0.0981 -0.5360
15163TIP3   OH266979   0.943   0.801  16.287 -0.6431  0.5345  0.1155
15163TIP3    H166980   0.874   0.866  16.273  1.2732  2.1472 -2.6736
15163TIP3    H266981   0.914   0.725  16.237 -0.9163  0.8257 -0.1756
15164TIP3   OH266982   3.419   2.282  44.286  0.0459 -0.0860  0.1224
15164TIP3    H166983   3.470   2.243  44.215  1.0016 -1.8378  1.6886
15164TIP3    H266984   3.333   2.241  44.279  0.0713 -0.0936 -0.1522
15165TIP3   OH266985   0.167   3.189  53.060  0.1665 -0.0486  0.3896
15165TIP3    H166986   0.243   3.239  53.091  0.6800 -0.5366 -0.0463
15165TIP3    H266987   0.161   3.115  53.120  1.3741 -1.1855 -0.8037
15166TIP3   OH266988   0.684   1.141  18.007 -0.2213 -0.3435  0.2624
15166TIP3    H166989   0.601   1.127  18.053 -2.2107 -1.9600 -3.3048
15166TIP3    H266990   0.734   1.061  18.021 -0.0132 -0.0776  1.0431
15167TIP3   OH266991   0.515   2.151   8.697  0.7020  0.5705 -0.3510
15167TIP3    H166992   0.431   2.195   8.702  0.5548  0.2560 -0.0419
15167TIP3    H266993   0.571   2.198   8.760  0.0626 -0.7233  1.2586
15168TIP3   OH266994   0.633   1.460  51.315 -0.4559 -0.4721  0.0842
15168TIP3    H166995   0.585   1.431  51.237  0.2045 -1.6936  0.1198
15168TIP3    H266996   0.566   1.503  51.369 -0.7999  1.0116 -1.4215
15169TIP3   OH266997   3.040   0.123  47.278 -0.1288  0.8606 -0.0164
15169TIP3    H166998   2.991   0.047  47.246  0.7495  0.4848 -0.5110
15169TIP3    H266999   3.004   0.197  47.229 -0.4399  0.6442 -0.1192
15170TIP3   OH267000   0.530   3.120   5.200  0.0570  0.2850 -0.6344
15170TIP3    H167001   0.603   3.162   5.245 -0.9713  1.6643 -0.1851
15170TIP3    H267002   0.459   3.184   5.204 -2.2424 -2.1298  1.7409
15171TIP3   OH267003   1.978   2.457  55.146  0.9292  0.1556 -0.0949
15171TIP3    H167004   1.964   2.442  55.239  0.6812  0.8773 -0.0155
15171TIP3    H267005   2.030   2.381  55.117 -2.2534 -2.1642 -0.2180
15172TIP3   OH267006   1.658   1.477  47.269  0.1475 -0.1427 -0.6210
15172TIP3    H167007   1.746   1.515  47.280  0.4062 -1.0533  0.6369
15172TIP3    H267008   1.674   1.387  47.241 -0.3936 -0.2282 -0.6619
15173TIP3   OH267009   2.470   2.747  59.971  0.1231  0.2462 -0.0931
15173TIP3    H167010   2.468   2.652  59.977 -1.0065  0.1454 -1.5582
15173TIP3    H267011   2.554   2.772  60.008  1.0920 -1.4371 -1.0454
15174TIP3   OH267012   0.630   0.046  59.401  0.0852 -0.1135 -0.7627
15174TIP3    H167013   0.724   0.045  59.419 -0.3622 -0.9594  1.8598
15174TIP3    H267014   0.595   0.115  59.457 -0.8339  0.5804 -2.1334
15175TIP3   OH267015   3.356   2.362  11.147 -0.5311  0.9169  0.3059
15175TIP3    H167016   3.315   2.427  11.090  1.2038  2.2885  0.5512
15175TIP3    H267017   3.348   2.400  11.235  2.3969  1.9423  0.2258
15176TIP3   OH267018   0.254   0.668   3.167 -0.4299 -0.2471 -0.3242
15176TIP3    H167019   0.256   0.611   3.244 -1.3654  0.0765 -0.0521
15176TIP3    H267020   0.226   0.753   3.200  2.0608  0.7270 -0.5434
15177TIP3   OH267021   0.639   1.872  52.874 -0.0786 -0.5049  0.4051
15177TIP3    H167022   0.734   1.878  52.860 -0.1134 -0.2965  0.2456
15177TIP3    H267023   0.623   1.923  52.954 -0.1092 -0.1837  0.1971
15178TIP3   OH267024   2.162   2.822   1.844 -0.5224  0.3810  0.3779
15178TIP3    H167025   2.140   2.731   1.866 -0.4384  0.4965  0.9470
15178TIP3    H267026   2.079   2.861   1.817 -0.7231  0.3830  0.9990
15179TIP3   OH267027   0.695   1.547   6.789  0.3461 -0.0512 -0.6806
15179TIP3    H167028   0.663   1.626   6.745  0.8064  0.2594 -0.4597
15179TIP3    H267029   0.787   1.564   6.806  0.4282 -0.6039 -0.5477
15180TIP3   OH267030   3.018   0.763  19.876 -0.5189  0.0180 -0.9434
15180TIP3    H167031   3.035   0.787  19.785  0.7175  2.7894 -0.1093
15180TIP3    H267032   3.083   0.813  19.926 -2.7129  0.5630  1.6060
15181TIP3   OH267033   3.139   0.963  42.561 -0.3413  0.4832  0.1833
15181TIP3    H167034   3.180   1.001  42.483 -1.0566  2.0141  0.5039
15181TIP3    H267035   3.172   1.017  42.633 -0.0008 -0.6644  0.9200
15182TIP3   OH267036   0.216   0.684  51.204 -0.2513  0.1339  0.3321
15182TIP3    H167037   0.217   0.679  51.300 -1.7707  0.4459  0.3927
15182TIP3    H267038   0.222   0.777  51.185 -0.9375  0.1465  0.1618
15183TIP3   OH267039   0.236   1.346  13.305 -0.3979  0.2065 -0.0127
15183TIP3    H167040   0.330   1.346  13.286 -0.4807  0.1017 -0.4470
15183TIP3    H267041   0.212   1.253  13.307 -0.9380  0.2225 -2.3090
15184TIP3   OH267042   1.928   2.203   6.708 -0.3962 -0.4501  0.6319
15184TIP3    H167043   1.907   2.208   6.614  1.0157  1.9820  0.3704
15184TIP3    H267044   1.992   2.132   6.714  1.1709  0.7700 -0.6556
15185TIP3   OH267045   2.237   1.163  58.753 -0.3858 -0.1798 -0.1929
15185TIP3    H167046   2.172   1.111  58.706  0.4903 -1.0374 -0.4892
15185TIP3    H267047   2.276   1.219  58.685 -0.3013 -0.1984 -0.1611
15186TIP3   OH267048   2.393   0.715  50.881 -0.1527  0.3552 -0.7423
15186TIP3    H167049   2.370   0.758  50.799 -0.9104  1.8069  0.1957
15186TIP3    H267050   2.348   0.765  50.949 -0.8057 -1.7375  0.4615
15187TIP3   OH267051   2.737   2.782  55.033 -0.1398  0.3471  0.1619
15187TIP3    H167052   2.661   2.801  55.088 -0.6179 -0.9227 -0.0179
15187TIP3    H267053   2.734   2.687  55.022  0.4240  0.4893 -1.3632
15188TIP3   OH267054   1.569   1.339   1.837  0.7444 -0.3202  1.0030
15188TIP3    H167055   1.510   1.265   1.826  0.4124  0.1237 -0.3699
15188TIP3    H267056   1.513   1.416   1.828  1.3209  0.0978  0.9425
15189TIP3   OH267057   0.554   2.771   4.374 -0.4709 -0.1819  0.7119
15189TIP3    H167058   0.533   2.768   4.467 -0.7400  0.3188  0.6713
15189TIP3    H267059   0.650   2.778   4.372 -0.4311 -0.6493  0.9387
15190TIP3   OH267060   2.190   0.105  14.604 -0.1112  0.0258  0.2394
15190TIP3    H167061   2.152   0.191  14.586 -0.2900  0.0499  0.7368
15190TIP3    H267062   2.188   0.060  14.519 -1.2971  0.0097  0.2589
15191TIP3   OH267063   0.938   1.059  10.634  0.4045  0.0434 -0.2747
15191TIP3    H167064   0.977   1.126  10.576  1.7121 -0.0290  0.4857
15191TIP3    H267065   0.966   0.976  10.595 -2.6798 -0.2308 -2.2582
15192TIP3   OH267066   1.591   1.477  65.211 -0.4923  0.2083  0.0037
15192TIP3    H167067   1.496   1.477  65.210 -0.5227  0.0212  1.1691
15192TIP3    H267068   1.614   1.473  65.304  0.6463 -0.0654 -0.2711
15193TIP3   OH267069   0.806   2.105  48.500  0.1516 -0.4183 -0.0334
15193TIP3    H167070   0.735   2.151  48.457 -0.2433  0.8808  1.8643
15193TIP3    H267071   0.763   2.051  48.567  0.6630 -3.0154 -1.6329
15194TIP3   OH267072   1.596   0.910  10.931  0.0637 -0.1720 -0.0077
15194TIP3    H167073   1.550   0.993  10.941 -1.8319 -1.1473 -0.0889
15194TIP3    H267074   1.531   0.852  10.890  1.3195 -1.7024  0.0797
15195TIP3   OH267075   2.924   1.215  59.831 -0.3115 -0.0823  0.5689
15195TIP3    H167076   2.879   1.163  59.764 -1.9855 -1.0198  2.3102
15195TIP3    H267077   2.924   1.159  59.908  2.0827  0.7402  1.2469
15196TIP3   OH267078   2.171   3.006  66.039  0.3553  0.6419  0.1916
15196TIP3    H167079   2.104   2.945  66.069 -0.6423  1.4428 -0.3464
15196TIP3    H267080   2.229   2.952  65.985 -0.5923  0.1789 -0.4020
15197TIP3   OH267081   0.418   3.170  49.020 -0.2795  0.7261 -0.7574
15197TIP3    H167082   0.510   3.192  49.032 -0.4642  0.9715  0.3304
15197TIP3    H267083   0.387   3.144  49.107 -1.0930  0.0681 -1.2178
15198TIP3   OH267084   1.930   0.024   0.052  0.1544 -0.3967  0.3212
15198TIP3    H167085   1.875   0.091   0.093  0.4054 -0.8386  1.4107
15198TIP3    H267086   1.927  -0.050   0.112 -0.3914 -1.5129 -1.0224
15199TIP3   OH267087   1.431   3.146   3.564 -0.0365  0.0425  0.0701
15199TIP3    H167088   1.498   3.088   3.528 -0.5996 -0.0160 -0.9138
15199TIP3    H267089   1.387   3.093   3.631 -0.6466 -0.7419 -0.9227
15200TIP3   OH267090   3.180   3.114  15.337 -0.2423  0.3570  0.2696
15200TIP3    H167091   3.174   3.018  15.341 -0.4788  0.3708  0.2585
15200TIP3    H267092   3.229   3.138  15.415  0.0197  0.2084  0.1524
15201TIP3   OH267093   2.351   2.479   4.575 -0.2300 -0.1508  0.0148
15201TIP3    H167094   2.421   2.535   4.542 -1.5221  3.2873  2.4800
15201TIP3    H267095   2.374   2.461   4.666 -0.5521 -2.6328 -0.3201
15202TIP3   OH267096   2.006   0.028  60.595 -0.1842 -0.3151  0.6574
15202TIP3    H167097   1.993   0.117  60.561  1.1568  0.0349  0.9742
15202TIP3    H267098   1.964  -0.028  60.531 -1.6147  0.5709  0.7768
15203TIP3   OH267099   1.241   2.503   5.415  0.3096 -0.1609 -0.1466
15203TIP3    H167100   1.159   2.539   5.380  0.9778  0.3804 -1.1952
15203TIP3    H267101   1.219   2.412   5.437 -0.1506 -0.5600 -2.0417
15204TIP3   OH267102   1.544   1.905   2.785  0.1241  0.6801  0.8286
15204TIP3    H167103   1.559   1.880   2.694  0.3984  1.2593  0.7124
15204TIP3    H267104   1.449   1.906   2.794  0.0994 -0.6069  0.8979
15205TIP3   OH267105   1.056   0.784  21.905  0.3059 -0.2269 -0.0360
15205TIP3    H167106   1.007   0.712  21.865  0.2106  0.2410 -0.7887
15205TIP3    H267107   1.140   0.745  21.930  0.6528 -0.3874 -1.3696
15206TIP3   OH267108   0.574   1.690   0.478 -0.1834  0.0156 -0.0006
15206TIP3    H167109   0.651   1.739   0.450 -0.0869 -0.6512 -0.9354
15206TIP3    H267110   0.607   1.628   0.543  0.1593 -0.5585 -0.7061
15207TIP3   OH267111   0.456   1.040  13.452 -0.6516 -0.5495  0.1441
15207TIP3    H167112   0.522   1.019  13.519  0.6226 -0.7075 -1.1182
15207TIP3    H267113   0.401   1.106  13.494  1.3177  0.8633  0.7056
15208TIP3   OH267114   0.540   3.437  52.125 -0.1665  0.2683  0.2604
15208TIP3    H167115   0.589   3.411  52.047 -0.9793 -1.5651  0.3201
15208TIP3    H267116   0.506   3.524  52.103 -0.6162 -0.3266 -1.5516
15209TIP3   OH267117   1.756   1.024   2.253  0.2771 -0.1425  0.3782
15209TIP3    H167118   1.770   1.086   2.325 -1.9522  2.3281 -1.1127
15209TIP3    H267119   1.666   0.994   2.265  0.0276 -0.0531 -1.0845
15210TIP3   OH267120   0.751   0.886  14.076 -0.1801 -0.3547 -0.2839
15210TIP3    H167121   0.820   0.829  14.108 -0.5175 -0.6875 -0.1424
15210TIP3    H267122   0.670   0.836  14.089 -0.4316 -0.0408 -0.6018
15211TIP3   OH267123   3.028   2.141   2.119  0.0930  0.4725  0.3987
15211TIP3    H167124   3.061   2.127   2.030  0.8911 -0.9030  0.8839
15211TIP3    H267125   3.106   2.133   2.175 -0.3709  1.4616  1.2216
15212TIP3   OH267126   0.759   2.402   0.870 -0.0696 -0.0975  0.1089
15212TIP3    H167127   0.694   2.427   0.936 -1.9430 -1.0769 -1.2739
15212TIP3    H267128   0.751   2.307   0.864  1.4479 -0.2323 -0.1960
15213TIP3   OH267129   3.440   0.994  52.879  0.4068 -0.2242  0.0404
15213TIP3    H167130   3.347   0.991  52.855  0.5227  0.6274 -0.5697
15213TIP3    H267131   3.441   0.976  52.973 -0.3758 -0.2531  0.0489
15214TIP3   OH267132   1.440   1.127  63.159  0.1318  0.1015  0.0734
15214TIP3    H167133   1.405   1.212  63.188 -1.2658 -0.6932  0.7942
15214TIP3    H267134   1.425   1.068  63.232 -0.3936 -1.1591 -1.0043
15215TIP3   OH267135   2.902   0.283  62.825  0.7335 -0.2180  0.2277
15215TIP3    H167136   2.840   0.212  62.809 -1.5431  2.0138 -1.5531
15215TIP3    H267137   2.952   0.290  62.744 -1.6429  2.4833 -1.1712
15216TIP3   OH267138   2.366   1.192  57.668  0.4098  0.2498 -0.0781
15216TIP3    H167139   2.307   1.220  57.737 -0.9415  0.3556 -1.2189
15216TIP3    H267140   2.351   1.253  57.596  0.7111 -0.6877 -0.9817
15217TIP3   OH267141   0.274   3.101  65.614 -0.4503  0.0719 -0.2821
15217TIP3    H167142   0.313   3.188  65.603  1.9890 -0.7557  1.0539
15217TIP3    H267143   0.336   3.042  65.571 -0.5671 -1.2506  1.2960
15218TIP3   OH267144   2.465   0.226   9.577  0.0097  0.2739  0.2285
15218TIP3    H167145   2.498   0.188   9.658  0.6436  1.2464  0.4496
15218TIP3    H267146   2.370   0.218   9.583  0.0454  0.4417  1.1255
15219TIP3   OH267147   2.704   3.190  66.883  0.2809  0.6300  0.1770
15219TIP3    H167148   2.644   3.171  66.811  0.3596  0.6020  0.1191
15219TIP3    H267149   2.649   3.189  66.961  0.4191 -0.6080  0.2637
15220TIP3   OH267150   0.326   0.410  42.163  0.2853  0.5135  0.2051
15220TIP3    H167151   0.383   0.338  42.134  0.8653  1.0741 -0.0723
15220TIP3    H267152   0.361   0.436  42.248  0.4912  0.9077  0.0010
15221TIP3   OH267153   0.569   0.736  57.528  0.5203 -0.5516 -0.5346
15221TIP3    H167154   0.486   0.692  57.508  1.1443 -1.6120 -0.8586
15221TIP3    H267155   0.567   0.815  57.475  0.1679 -1.0957 -1.3552
15222TIP3   OH267156   3.192   1.826  44.048  0.0674 -0.0687  0.0889
15222TIP3    H167157   3.134   1.790  44.115  0.2878  1.5481  1.1970
15222TIP3    H267158   3.280   1.812  44.082  0.3886 -1.9818 -1.3259
15223TIP3   OH267159   0.323   1.778  21.497  0.6638 -0.9180  0.4180
15223TIP3    H167160   0.389   1.774  21.427 -0.6497 -0.0739 -0.9459
15223TIP3    H267161   0.274   1.696  21.488 -1.3408  0.3800 -1.6566
15224TIP3   OH267162   1.875   1.659  26.946  0.5567  0.2552  0.3474
15224TIP3    H167163   1.903   1.637  27.035 -0.9974  0.0190  0.8164
15224TIP3    H267164   1.873   1.575  26.900  0.2231  0.2151  0.4349
15225TIP3   OH267165   2.432   0.728  26.870  0.2436 -0.5564 -0.4315
15225TIP3    H167166   2.430   0.817  26.905 -0.7843  0.4781 -2.8751
15225TIP3    H267167   2.503   0.728  26.806 -0.2894 -1.2303 -1.0466
15226TIP3   OH267168   0.075   0.350  43.152 -0.3758 -0.2288 -0.1904
15226TIP3    H167169   0.060   0.377  43.242 -0.3640  0.2740 -0.3394
15226TIP3    H267170  -0.010   0.319  43.120 -1.0128  2.0563 -0.8433
15227TIP3   OH267171   1.684   2.910  18.593 -0.6061  0.4263  0.4156
15227TIP3    H167172   1.691   2.942  18.683 -1.6621 -1.2852  1.1491
15227TIP3    H267173   1.599   2.941  18.563 -0.5880  0.3435  0.2785
15228TIP3   OH267174   1.210   0.116  15.009 -0.2109  0.0322 -0.4330
15228TIP3    H167175   1.255   0.174  15.071 -0.9114 -1.0074  1.1085
15228TIP3    H267176   1.161   0.175  14.952  0.0648  1.0091  0.3041
15229TIP3   OH267177   2.949   1.441   2.403 -0.2470 -0.3686 -0.0209
15229TIP3    H167178   2.862   1.431   2.366 -0.4271  1.3097 -0.0841
15229TIP3    H267179   3.008   1.425   2.330 -0.5087 -0.5203 -0.2023
15230TIP3   OH267180   2.164   2.480   6.838 -0.2332  0.4431  0.3483
15230TIP3    H167181   2.242   2.431   6.861  1.2819  2.2731 -0.6217
15230TIP3    H267182   2.160   2.476   6.742 -1.6043 -0.0077  0.4005
15231TIP3   OH267183   1.342   3.325  51.612 -0.5005 -0.1776  0.7899
15231TIP3    H167184   1.395   3.256  51.652 -0.5136  0.0500  1.1971
15231TIP3    H267185   1.371   3.326  51.520 -0.0147 -0.2603  0.9374
15232TIP3   OH267186   1.233   0.451  14.794 -0.5920 -0.2582 -0.1195
15232TIP3    H167187   1.149   0.476  14.755 -0.4735  2.8557  1.3461
15232TIP3    H267188   1.299   0.489  14.736 -0.3757  1.8715  1.4049
15233TIP3   OH267189   0.962   3.288  36.045  0.2147  0.2214  0.1203
15233TIP3    H167190   0.998   3.311  35.959 -1.3693 -0.0632 -0.6619
15233TIP3    H267191   0.969   3.193  36.049 -1.4166  0.0319 -0.5530
15234TIP3   OH267192   3.161   3.326   0.173 -0.3632 -0.1940  0.1309
15234TIP3    H167193   3.146   3.236   0.204  0.7839 -0.3207  0.3446
15234TIP3    H267194   3.170   3.378   0.252 -0.6777  0.0612  0.0038
15235TIP3   OH267195   0.979   3.308  54.248  0.3298 -0.1357 -0.2612
15235TIP3    H167196   0.884   3.309  54.261  0.2932 -0.8589 -0.3884
15235TIP3    H267197   0.995   3.226  54.200  0.7615  1.1005 -2.3142
15236TIP3   OH267198   1.339   0.564  17.573  0.3498  0.6060 -0.0372
15236TIP3    H167199   1.290   0.625  17.519  0.0541  2.4627  2.1574
15236TIP3    H267200   1.299   0.479  17.555 -0.5525  1.3383 -1.7397
15237TIP3   OH267201   0.980   3.259  45.129 -0.6853  0.6718  0.4403
15237TIP3    H167202   0.889   3.253  45.157 -0.7932  0.6650  0.0940
15237TIP3    H267203   1.018   3.327  45.185 -0.2968 -0.8881  2.1695
15238TIP3   OH267204   1.936   1.839  18.735 -0.1303 -0.2948  0.2559
15238TIP3    H167205   1.903   1.913  18.684  1.1559  0.3299  0.2756
15238TIP3    H267206   1.861   1.780  18.744 -0.3080 -0.6993 -2.8171
15239TIP3   OH267207   0.269   2.279  11.810 -0.2816 -0.0989 -0.1307
15239TIP3    H167208   0.223   2.201  11.780 -1.3180 -0.5165  2.3300
15239TIP3    H267209   0.229   2.300  11.894  1.3093  1.9400  0.1968
15240TIP3   OH267210   3.067   2.278   0.744  0.5369 -0.4268  0.5036
15240TIP3    H167211   3.153   2.273   0.704  1.5499  0.1684  2.4712
15240TIP3    H267212   3.005   2.271   0.671  2.2424  1.9131 -1.3099
15241TIP3   OH267213   2.794   2.333  62.488 -0.3212 -0.2496  0.1245
15241TIP3    H167214   2.883   2.339  62.524 -0.5403 -0.3898  0.7022
15241TIP3    H267215   2.804   2.280  62.409  0.3379  0.9368 -0.6280
15242TIP3   OH267216   2.907   3.021  16.782 -0.3518 -0.2227 -0.1251
15242TIP3    H167217   2.879   2.934  16.757 -0.8279 -0.1471  0.1205
15242TIP3    H267218   2.836   3.079  16.753  1.0318  0.4218 -2.5130
15243TIP3   OH267219   0.183   2.707  19.929  0.1273  0.2544 -0.1836
15243TIP3    H167220   0.165   2.616  19.951  2.0869  0.1810  1.4914
15243TIP3    H267221   0.100   2.753  19.943 -0.2331 -0.8487  1.6779
15244TIP3   OH267222   0.483   1.080   2.676 -0.4202 -0.7453  0.0348
15244TIP3    H167223   0.573   1.046   2.675 -0.3660 -0.5903 -0.6580
15244TIP3    H267224   0.430   1.007   2.645 -0.2396 -0.0493 -2.0238
15245TIP3   OH267225   1.814   3.238  43.507 -0.8848  0.6752 -0.1811
15245TIP3    H167226   1.777   3.153  43.529  0.9376  0.1023  0.8499
15245TIP3    H267227   1.769   3.299  43.565  2.4977 -0.5565  4.2392
15246TIP3   OH267228   2.554   0.629   9.123  0.0873 -0.1157 -0.2617
15246TIP3    H167229   2.602   0.662   9.199 -3.0026  2.7406  0.6783
15246TIP3    H267230   2.566   0.534   9.127  0.8081 -0.0216  3.2901
15247TIP3   OH267231   2.836   2.108  12.569  0.7242 -0.2688 -0.2576
15247TIP3    H167232   2.916   2.056  12.580  0.2567 -1.1755 -0.9486
15247TIP3    H267233   2.864   2.198  12.580  1.8657 -0.5642 -0.5640
15248TIP3   OH267234   1.195   1.294  50.909 -0.1153  0.3120  0.2744
15248TIP3    H167235   1.117   1.242  50.889 -0.0809  0.0706  0.7597
15248TIP3    H267236   1.265   1.230  50.916  0.1091  0.5200 -0.0632
15249TIP3   OH267237   0.542   1.953  48.445 -0.8027 -0.0948  0.2788
15249TIP3    H167238   0.545   2.038  48.401  1.7665  1.1684  2.5873
15249TIP3    H267239   0.574   1.891  48.379 -1.1581  0.9555 -0.9328
15250TIP3   OH267240   2.123   1.068  16.628 -0.1698 -0.1998  0.2222
15250TIP3    H167241   2.069   1.130  16.579 -0.0843  0.1628  0.5832
15250TIP3    H267242   2.207   1.068  16.582  0.8874  2.2687  1.9324
15251TIP3   OH267243   1.268   3.072  45.498  0.4052  0.6273 -0.5524
15251TIP3    H167244   1.302   3.160  45.511  0.1297  0.6455  0.0750
15251TIP3    H267245   1.342   3.024  45.459  0.4346  1.2197 -1.2625
15252TIP3   OH267246   1.263   1.605  42.807  0.0214 -0.5872 -0.4737
15252TIP3    H167247   1.251   1.699  42.821  0.9294 -0.5662  0.2476
15252TIP3    H267248   1.343   1.599  42.755  0.6783 -0.9915  0.5409
15253TIP3   OH267249   3.398   1.386   9.447  0.9125 -0.2966  0.0948
15253TIP3    H167250   3.465   1.318   9.458  0.6910 -0.4412  0.5888
15253TIP3    H267251   3.350   1.386   9.530  0.3832 -0.1075 -0.2030
15254TIP3   OH267252   2.329   0.098  10.537 -0.2745 -0.0198  0.4010
15254TIP3    H167253   2.390   0.058  10.598 -1.2118 -1.6079  0.3394
15254TIP3    H267254   2.364   0.075  10.450 -0.2607  0.1897  0.3498
15255TIP3   OH267255   1.343   1.846  64.784  0.6083 -0.6336  0.0859
15255TIP3    H167256   1.324   1.894  64.865  1.3162 -0.6465  0.2703
15255TIP3    H267257   1.422   1.889  64.749 -1.0020  0.9594 -1.8644
15256TIP3   OH267258   0.658   3.161  60.755  0.0351  0.1399  0.0624
15256TIP3    H167259   0.718   3.110  60.810  0.0912 -0.5630 -0.6343
15256TIP3    H267260   0.684   3.252  60.769  1.3275 -0.1526 -0.2943
15257TIP3   OH267261   1.770   2.513  12.029 -0.2132 -0.0061  0.2789
15257TIP3    H167262   1.847   2.569  12.019 -0.1707 -0.3578 -1.8371
15257TIP3    H267263   1.767   2.492  12.122  0.9401  1.8360  0.7812
15258TIP3   OH267264   2.969   2.756   9.287  0.2656 -0.5277  0.1600
15258TIP3    H167265   3.045   2.732   9.236 -0.3882 -1.8331 -0.2459
15258TIP3    H267266   2.919   2.675   9.297 -2.5986  0.7508 -2.1439
15259TIP3   OH267267   1.811   3.422  57.728  0.0519 -0.2001 -0.2910
15259TIP3    H167268   1.829   3.484  57.658  0.1043 -1.7342 -1.6979
15259TIP3    H267269   1.758   3.471  57.791 -2.0371  0.6109 -2.5136
15260TIP3   OH267270   2.015   0.454   2.690 -0.2526 -0.3890  0.1628
15260TIP3    H167271   2.042   0.469   2.781 -0.5090 -0.8088  0.3124
15260TIP3    H267272   2.001   0.541   2.654 -3.9733 -0.1777  1.6697
15261TIP3   OH267273   0.608   0.410   6.612 -0.7483  0.4463 -0.3977
15261TIP3    H167274   0.675   0.353   6.574 -0.4455  0.1689  0.5332
15261TIP3    H267275   0.621   0.494   6.569  0.0170  0.3174 -0.4276
15262TIP3   OH267276   3.409   2.842  15.760  0.2995 -0.1316 -0.3959
15262TIP3    H167277   3.389   2.844  15.854  0.5324 -0.8560 -0.3191
15262TIP3    H267278   3.501   2.865  15.755 -0.2351  2.1645 -0.6587
15263TIP3   OH267279   0.613   1.471   4.187 -0.2146 -1.2709 -0.2815
15263TIP3    H167280   0.649   1.479   4.098  0.5866 -0.8887  0.0689
15263TIP3    H267281   0.652   1.391   4.221 -1.3289 -1.9781 -0.6312
15264TIP3   OH267282   0.676   3.216  11.821  0.0936  0.2966  0.3791
15264TIP3    H167283   0.651   3.256  11.904  1.6937 -1.3265  1.7551
15264TIP3    H267284   0.600   3.163  11.795 -0.7010  1.4125  0.3696
15265TIP3   OH267285   1.293   1.966  47.858  0.3663  0.2408  0.1033
15265TIP3    H167286   1.204   1.990  47.882  0.7886  0.6823  1.3532
15265TIP3    H267287   1.335   1.944  47.941  1.1062 -1.0773 -0.5829
15266TIP3   OH267288   1.584   3.030  64.598 -0.2078 -0.0658  0.5601
15266TIP3    H167289   1.675   3.002  64.586 -0.3982 -0.5588  0.2442
15266TIP3    H267290   1.591   3.119  64.631  0.4188 -0.5319  1.7534
15267TIP3   OH267291   1.573   1.390  54.062  0.4482 -0.4518 -0.2519
15267TIP3    H167292   1.544   1.471  54.020  1.5788 -0.3307 -0.8214
15267TIP3    H267293   1.497   1.332  54.056 -0.2503  0.4216 -0.1750
15268TIP3   OH267294   0.515   2.512  34.784  0.5618  0.1946  0.1037
15268TIP3    H167295   0.593   2.457  34.771  0.5330  0.4153 -1.1399
15268TIP3    H267296   0.499   2.551  34.698 -0.0238  1.3549  0.7208
15269TIP3   OH267297   0.838   1.801  19.911  0.2323 -0.0458 -0.0578
15269TIP3    H167298   0.893   1.815  19.988  0.7101 -1.8628 -0.0281
15269TIP3    H267299   0.897   1.813  19.836  0.6767 -1.7986 -0.0295
15270TIP3   OH267300   2.551   2.349  14.658  0.0958  0.1433  0.2396
15270TIP3    H167301   2.470   2.342  14.709  1.4872 -0.5224  2.4807
15270TIP3    H267302   2.591   2.430  14.687  0.6508  0.0462 -0.2313
15271TIP3   OH267303   2.497   1.755  48.870 -0.1627 -0.6079 -0.5025
15271TIP3    H167304   2.558   1.825  48.893  0.6453 -1.5724  0.3760
15271TIP3    H267305   2.422   1.800  48.831 -0.3495  0.9088  1.4543
15272TIP3   OH267306   0.814   2.567  38.478 -0.0200 -0.1837 -0.6124
15272TIP3    H167307   0.750   2.613  38.423 -1.4662 -1.2839  0.0991
15272TIP3    H267308   0.769   2.487  38.506  0.8696  0.0442  1.6877
15273TIP3   OH267309   2.853   1.807  42.983 -0.5677 -0.6317  0.1165
15273TIP3    H167310   2.919   1.766  43.038  0.6511 -1.4773 -1.8611
15273TIP3    H267311   2.876   1.782  42.894 -2.6877  0.3140 -0.7963
15274TIP3   OH267312   2.268   0.125  56.920 -0.2001 -0.2687 -0.1300
15274TIP3    H167313   2.202   0.108  56.853 -1.0154  1.2244  0.2359
15274TIP3    H267314   2.218   0.159  56.994  0.9041  0.2232  0.4170
15275TIP3   OH267315   1.529   1.208  50.975 -0.7359 -0.5572 -0.0859
15275TIP3    H167316   1.593   1.137  50.975  0.4816  0.5181 -0.4361
15275TIP3    H267317   1.530   1.241  51.065  1.7701  1.6690 -0.8292
15276TIP3   OH267318   2.738   2.664  65.725  0.5040  0.0087 -0.0225
15276TIP3    H167319   2.808   2.709  65.773  0.3827  1.4570 -1.1356
15276TIP3    H267320   2.722   2.719  65.648  0.0127 -1.7146 -1.2235
15277TIP3   OH267321   3.331   0.295   9.446 -0.2151  0.0295 -0.1280
15277TIP3    H167322   3.355   0.213   9.488  0.2086  0.5735  0.7223
15277TIP3    H267323   3.235   0.296   9.449 -0.2457 -0.6822 -0.6522
15278TIP3   OH267324   2.183   0.541  45.458  0.0504  0.2524 -0.2062
15278TIP3    H167325   2.222   0.487  45.526 -0.5385 -1.7692 -1.3992
15278TIP3    H267326   2.255   0.596  45.426  0.1708  1.8867  2.5117
15279TIP3   OH267327   1.056   1.612  55.117  0.3875  0.1591  0.2771
15279TIP3    H167328   1.069   1.697  55.159  0.3503  0.6221 -0.6314
15279TIP3    H267329   0.982   1.573  55.165 -0.8379  1.4561 -0.5179
15280TIP3   OH267330   1.143   1.982  33.984  0.5812  0.3662  0.7469
15280TIP3    H167331   1.061   1.933  33.977 -0.2362  1.7561  0.0716
15280TIP3    H267332   1.203   1.937  33.924 -0.0349 -0.0084  0.4001
15281TIP3   OH267333   1.561   0.986  56.217 -0.2083 -0.3768 -0.0875
15281TIP3    H167334   1.593   0.946  56.136 -3.2027 -1.2890 -0.9631
15281TIP3    H267335   1.553   1.079  56.197  0.6112 -0.3457 -0.2777
15282TIP3   OH267336   0.918   0.096  12.053 -0.2871 -0.6433  0.1950
15282TIP3    H167337   0.912   0.192  12.046  0.8161 -0.4586  1.3495
15282TIP3    H267338   0.867   0.074  12.130  0.3392 -0.8488  0.5606
15283TIP3   OH267339   2.454   1.311   9.661  0.3882 -0.1286 -0.7434
15283TIP3    H167340   2.485   1.402   9.668 -1.9738  0.6916 -0.2326
15283TIP3    H267341   2.494   1.268   9.737 -2.8025  1.9391  2.4372
15284TIP3   OH267342   3.334   0.414  47.860  0.0804  0.7897 -0.0800
15284TIP3    H167343   3.314   0.370  47.943 -0.6692 -2.0751 -1.6139
15284TIP3    H267344   3.285   0.496  47.864 -1.1431  0.0580  1.7427
15285TIP3   OH267345   3.377   3.343  61.207  0.1231 -0.4417 -0.6065
15285TIP3    H167346   3.341   3.300  61.129  0.3477 -0.2466 -0.8194
15285TIP3    H267347   3.410   3.427  61.175  1.0644 -0.7535 -0.4836
15286TIP3   OH267348   1.597   2.996   8.988 -0.1480 -0.2425  0.0974
15286TIP3    H167349   1.526   3.060   8.974  0.1745  0.1520  0.2362
15286TIP3    H267350   1.590   2.936   8.914 -0.3349  0.0700 -0.1441
15287TIP3   OH267351   3.387   2.422   4.868 -0.0505  0.8056  0.0429
15287TIP3    H167352   3.372   2.516   4.853 -1.7909  0.6999  0.9031
15287TIP3    H267353   3.364   2.381   4.785  1.7188  1.1897 -0.6827
15288TIP3   OH267354   0.240   3.401  10.873 -0.0641 -0.1110 -0.1566
15288TIP3    H167355   0.173   3.344  10.911  0.3780 -0.4290  0.1517
15288TIP3    H267356   0.239   3.480  10.928 -1.7757  0.8916 -1.5088
15289TIP3   OH267357   1.386   3.209  15.511 -0.4385  0.3973  0.4757
15289TIP3    H167358   1.313   3.270  15.527 -0.7773 -0.1747  1.1116
15289TIP3    H267359   1.377   3.185  15.418  0.0881  1.8089  0.0267
15290TIP3   OH267360   0.115   0.226  18.370 -0.2657  0.0550  0.4441
15290TIP3    H167361   0.175   0.212  18.443 -0.0988 -1.7679  0.0241
15290TIP3    H267362   0.156   0.180  18.297 -2.0685 -1.1135  0.1046
15291TIP3   OH267363   1.540   1.658  62.351  0.8405 -0.5100 -0.4011
15291TIP3    H167364   1.581   1.694  62.272  1.3192  0.6528  0.3582
15291TIP3    H267365   1.598   1.586  62.377  1.0797 -0.4241 -0.6947
15292TIP3   OH267366   2.505   2.143  56.219 -0.5425  0.2869 -0.1205
15292TIP3    H167367   2.418   2.103  56.211 -0.0884 -0.8593  0.3560
15292TIP3    H267368   2.505   2.215  56.156 -0.9157 -1.3855 -2.1618
15293TIP3   OH267369   2.840   2.314  46.122  0.5784 -0.2044 -0.0554
15293TIP3    H167370   2.823   2.407  46.114  0.1469 -0.2598  0.1701
15293TIP3    H267371   2.758   2.272  46.096  0.4603 -0.4927  0.7642
15294TIP3   OH267372   3.350   1.708  54.901  0.0599 -0.8386  0.3669
15294TIP3    H167373   3.444   1.699  54.914  0.1358 -1.0675 -0.2739
15294TIP3    H267374   3.342   1.777  54.835 -0.2153 -0.8656  0.3719
15295TIP3   OH267375   3.150   1.794  44.556 -0.1410 -0.0390  0.0181
15295TIP3    H167376   3.143   1.875  44.607  0.2760 -0.0632  0.1158
15295TIP3    H267377   3.119   1.726  44.616 -0.0323 -0.0163  0.0982
15296TIP3   OH267378   0.874   0.517  54.758 -0.0497 -0.2061 -0.0042
15296TIP3    H167379   0.939   0.540  54.824 -0.7406 -0.8947  0.9444
15296TIP3    H267380   0.809   0.465  54.805 -1.5025  0.7831 -0.8238
15297TIP3   OH267381   2.950   1.206  47.724 -0.9669 -0.4856 -0.5025
15297TIP3    H167382   3.002   1.276  47.685  0.9833 -1.3143  0.4556
15297TIP3    H267383   2.862   1.218  47.688 -0.3720  1.6041 -1.4044
15298TIP3   OH267384   2.309   1.021   8.884  0.1454 -0.2326 -0.4438
15298TIP3    H167385   2.272   1.098   8.926  0.9136 -0.7351  1.2377
15298TIP3    H267386   2.395   1.011   8.925 -0.0076 -2.0702 -0.4993
15299TIP3   OH267387   2.803   2.410   6.199 -0.0300  0.2774  0.0678
15299TIP3    H167388   2.732   2.474   6.209  1.2549  1.9118 -0.5860
15299TIP3    H267389   2.808   2.366   6.283 -3.1428 -1.4065 -0.5000
15300TIP3   OH267390   1.095   0.025  48.155  0.1908 -0.3960 -0.1921
15300TIP3    H167391   1.144   0.093  48.202  0.5059 -0.5368 -0.3096
15300TIP3    H267392   1.123   0.034  48.064  0.4725 -0.8850 -0.1571
15301TIP3   OH267393   2.502   2.785  28.596 -0.1383  0.0597  0.1504
15301TIP3    H167394   2.438   2.724  28.634 -1.5974  1.5253  0.1886
15301TIP3    H267395   2.526   2.745  28.513 -2.3384  0.1772 -0.6149
15302TIP3   OH267396   3.119   0.251  58.930 -0.1878 -0.3034 -0.1774
15302TIP3    H167397   3.064   0.298  58.868  0.2454 -1.5737 -1.5791
15302TIP3    H267398   3.157   0.179  58.879  2.4895  0.2983  0.7947
15303TIP3   OH267399   1.948   1.761  18.131 -0.3557 -0.3227 -0.0525
15303TIP3    H167400   1.927   1.739  18.040 -0.8547  1.2106 -0.3445
15303TIP3    H267401   2.014   1.830  18.125  0.0003 -0.5726  0.7715
15304TIP3   OH267402   0.695   1.721  63.949  0.3597  0.1767  0.2447
15304TIP3    H167403   0.605   1.726  63.918  0.3573 -0.8815  0.0333
15304TIP3    H267404   0.697   1.776  64.027 -0.6154 -0.2422  0.5763
15305TIP3   OH267405   3.401   0.944  29.346 -0.2363 -0.0104  0.5441
15305TIP3    H167406   3.494   0.939  29.324 -0.6013 -0.8017 -0.9494
15305TIP3    H267407   3.382   1.038  29.350  0.1129  0.2072 -1.6120
15306TIP3   OH267408   0.457   2.299  16.407 -0.3261  0.3500  0.6003
15306TIP3    H167409   0.441   2.369  16.470 -1.4787  0.8991 -0.2746
15306TIP3    H267410   0.477   2.344  16.326 -0.4705 -0.3410  0.1755
15307TIP3   OH267411   0.412   0.349  57.543  0.1742 -0.1038  0.3945
15307TIP3    H167412   0.374   0.339  57.455  1.3708 -1.3912 -0.0213
15307TIP3    H267413   0.489   0.404  57.529 -0.8899  1.6628  1.0705
15308TIP3   OH267414   0.660   0.854  55.788  0.0167 -0.4252 -0.1708
15308TIP3    H167415   0.581   0.824  55.832 -0.2595 -0.6772 -0.8215
15308TIP3    H267416   0.671   0.793  55.715  0.9219 -0.5081  0.0268
15309TIP3   OH267417   1.121   2.422  51.805 -0.3564  0.3103 -0.0337
15309TIP3    H167418   1.171   2.504  51.809  0.7346 -0.3458  0.0486
15309TIP3    H267419   1.170   2.362  51.861  0.6432 -1.3479 -2.5382
15310TIP3   OH267420   2.049   2.550  55.628 -0.2778 -0.0980  0.0120
15310TIP3    H167421   2.136   2.525  55.658  0.1306  0.5136 -0.6152
15310TIP3    H267422   1.989   2.513  55.693  0.3554 -1.6304 -0.2370
15311TIP3   OH267423   3.116   1.490  19.663  0.8107  0.3578  0.0805
15311TIP3    H167424   3.038   1.443  19.634  2.2008 -1.4292 -0.9677
15311TIP3    H267425   3.095   1.517  19.753 -0.8920 -0.2987 -0.0752
15312TIP3   OH267426   1.057   1.381  21.786 -0.1825 -0.0929  0.1169
15312TIP3    H167427   1.142   1.399  21.746  1.0948 -0.0572  2.6484
15312TIP3    H267428   1.072   1.302  21.839 -1.8880 -0.4063  0.1875
15313TIP3   OH267429   1.539   2.255  12.964 -0.0215  0.5584 -0.8601
15313TIP3    H167430   1.627   2.248  12.999 -1.4490 -0.9198  2.8928
15313TIP3    H267431   1.511   2.164  12.949 -1.0492  0.9826 -1.7209
15314TIP3   OH267432   2.690   2.332   9.317  0.0712  0.2551 -0.2305
15314TIP3    H167433   2.764   2.383   9.283  0.8890 -0.8048 -0.1119
15314TIP3    H267434   2.628   2.397   9.348  0.6145  1.1888 -1.0553
15315TIP3   OH267435   3.245   2.806  22.025 -0.2184 -0.5109 -0.1938
15315TIP3    H167436   3.208   2.872  21.967 -1.8347 -0.8508  0.4019
15315TIP3    H267437   3.265   2.854  22.106 -0.7625 -0.6171  0.0043
15316TIP3   OH267438   1.409   1.530  56.286  0.2072  0.4127  0.1807
15316TIP3    H167439   1.376   1.505  56.200 -3.1496 -0.8176  1.6651
15316TIP3    H267440   1.489   1.479  56.297  0.0723 -0.2869 -1.7474
15317TIP3   OH267441   3.258   1.297  54.932 -0.1913  0.3070 -0.2802
15317TIP3    H167442   3.176   1.251  54.916  0.7417 -1.4896 -0.0879
15317TIP3    H267443   3.314   1.273  54.858  1.1565 -0.9180  1.0754
15318TIP3   OH267444   1.505   2.825   8.765  0.4067  0.2989  0.2043
15318TIP3    H167445   1.410   2.813   8.759  0.6592 -1.3537 -1.1921
15318TIP3    H267446   1.531   2.850   8.677  1.4153 -0.5523  0.2480
15319TIP3   OH267447   2.431   3.350   8.097 -0.0329 -0.7588  0.2521
15319TIP3    H167448   2.357   3.292   8.080  0.1681 -0.4550 -2.0200
15319TIP3    H267449   2.500   3.293   8.131 -0.6507 -1.3845  0.4813
15320TIP3   OH267450   0.549   1.069  36.871 -0.3978  0.5015  0.5005
15320TIP3    H167451   0.562   0.976  36.851  0.9597  0.6813  0.4124
15320TIP3    H267452   0.569   1.114  36.789 -1.5108  0.8570  0.4094
15321TIP3   OH267453   3.436   1.830  15.697  0.0403  0.3027  0.1077
15321TIP3    H167454   3.376   1.829  15.622 -1.6565  0.3039  1.4135
15321TIP3    H267455   3.521   1.805  15.659 -1.1819 -1.9100 -1.4757
15322TIP3   OH267456   1.632   0.485  49.291 -0.2810 -0.4909  0.1400
15322TIP3    H167457   1.627   0.396  49.256 -0.9170 -0.5328  0.3278
15322TIP3    H267458   1.541   0.509  49.308 -0.5202  1.5185 -3.1788
15323TIP3   OH267459   2.934   0.841  31.916  0.1140 -0.1312 -0.4975
15323TIP3    H167460   2.883   0.871  31.992 -0.3475 -1.1338 -0.3909
15323TIP3    H267461   3.019   0.816  31.952 -0.2823 -1.1134 -0.1964
15324TIP3   OH267462   2.232   0.303  19.683 -0.2594 -0.1742  0.6079
15324TIP3    H167463   2.282   0.259  19.614 -1.5017 -2.5436  1.1092
15324TIP3    H267464   2.147   0.320  19.644 -0.4864 -0.1847  1.0925
15325TIP3   OH267465   1.297   2.917  20.450 -0.7006  0.6919 -0.4655
15325TIP3    H167466   1.243   2.887  20.377  1.1461 -1.2264 -1.1628
15325TIP3    H267467   1.378   2.948  20.409 -0.0653  0.6296  0.6951
15326TIP3   OH267468   0.807   1.304   5.428  0.0098  0.6798 -0.0062
15326TIP3    H167469   0.754   1.347   5.361  0.8598  1.9048  0.0773
15326TIP3    H267470   0.840   1.376   5.482  2.9816  0.1420 -0.9547
15327TIP3   OH267471   2.372   2.390  57.687  0.1087 -0.6106 -0.6858
15327TIP3    H167472   2.440   2.423  57.628  1.4067 -3.2073 -0.7911
15327TIP3    H267473   2.405   2.412  57.774  0.4033 -0.6307 -0.7878
15328TIP3   OH267474   2.024   2.681  44.496 -0.1314  0.4717  0.1555
15328TIP3    H167475   2.042   2.688  44.402  1.7435  0.5531  0.4830
15328TIP3    H267476   2.045   2.767  44.531 -0.4457  0.3282  0.7044
15329TIP3   OH267477   0.629   0.740  12.131  0.1850 -0.1152  0.1085
15329TIP3    H167478   0.554   0.683  12.146 -1.5638  1.8225 -0.7145
15329TIP3    H267479   0.684   0.692  12.069 -0.5039 -1.4446  0.4861
15330TIP3   OH267480   0.375   2.773   7.907 -0.2096 -0.2211 -0.2800
15330TIP3    H167481   0.394   2.779   7.813  0.4876 -1.3530 -0.2236
15330TIP3    H267482   0.366   2.679   7.924  1.6195 -0.1798  1.1505
15331TIP3   OH267483   0.709   1.867  66.994  0.2320  0.1918 -0.6274
15331TIP3    H167484   0.719   1.962  67.006  0.1430  0.0615  0.6867
15331TIP3    H267485   0.796   1.831  67.008  0.0616  0.0001  0.0121
15332TIP3   OH267486   2.100   0.331  14.210  0.0589 -0.0501  0.1053
15332TIP3    H167487   2.172   0.326  14.147 -1.6231  0.5471 -1.9956
15332TIP3    H267488   2.031   0.377  14.163 -1.1505  0.8609  2.6001
15333TIP3   OH267489   1.464   0.189  38.861 -0.0592 -0.5082 -0.7586
15333TIP3    H167490   1.556   0.172  38.838 -0.1268 -0.9328 -0.7346
15333TIP3    H267491   1.433   0.106  38.898 -0.1523 -0.0594  0.2137
15334TIP3   OH267492   3.005   2.827   7.291 -0.1097  0.9165  0.1298
15334TIP3    H167493   3.050   2.870   7.363 -0.4736  0.5149  0.6070
15334TIP3    H267494   2.944   2.767   7.334  0.9395 -0.6711 -0.4916
15335TIP3   OH267495   2.434   2.813  16.314  0.0707 -0.5006  0.3137
15335TIP3    H167496   2.509   2.777  16.267  0.3788  0.4135  0.0819
15335TIP3    H267497   2.358   2.766  16.278  0.1585  0.9123 -1.9638
15336TIP3   OH267498   2.530   2.008  54.314 -0.0398 -0.3575  0.0198
15336TIP3    H167499   2.471   1.932  54.312  0.1572 -0.5824  1.3635
15336TIP3    H267500   2.480   2.075  54.362  0.7266 -0.5081  1.0575
15337TIP3   OH267501   2.261   0.884  51.049 -0.4531 -0.0667  0.3078
15337TIP3    H167502   2.259   0.963  51.104  0.0817  0.0584  0.1560
15337TIP3    H267503   2.198   0.901  50.980  0.6928  0.8640 -0.5586
15338TIP3   OH267504   0.378   2.950  66.309  0.4807 -0.1433  0.0206
15338TIP3    H167505   0.358   3.040  66.336  0.2271 -0.8522  2.3748
15338TIP3    H267506   0.298   2.919  66.266  0.2212  0.4158  0.0952
15339TIP3   OH267507   2.446   0.577   1.829 -0.2710  0.1424 -0.4807
15339TIP3    H167508   2.396   0.497   1.847 -1.3991  0.9794  0.2689
15339TIP3    H267509   2.398   0.621   1.759 -0.6129  0.9515  0.2362
15340TIP3   OH267510   1.767   1.553  14.456 -0.3984 -0.3070 -0.9269
15340TIP3    H167511   1.787   1.470  14.497  0.8287 -0.1996 -1.2630
15340TIP3    H267512   1.853   1.592  14.437 -0.9446  0.7695 -1.2902
15341TIP3   OH267513   1.035   2.516  65.109  0.1655  0.3117  0.6074
15341TIP3    H167514   1.047   2.604  65.145  1.2311 -0.1739  1.4973
15341TIP3    H267515   0.990   2.468  65.179  1.2367 -0.3355  0.8784
15342TIP3   OH267516   2.112   2.171  62.105  0.4188 -0.2968 -0.2519
15342TIP3    H167517   2.046   2.101  62.103 -0.2841  0.3178  0.6451
15342TIP3    H267518   2.093   2.219  62.186  1.7830  0.0835 -0.1344
15343TIP3   OH267519   1.048   0.502  35.873 -0.2683 -0.2118 -0.2420
15343TIP3    H167520   1.049   0.568  35.942  0.8094 -1.1046  0.6417
15343TIP3    H267521   1.071   0.549  35.793 -1.7931  0.8845 -0.0830
15344TIP3   OH267522   0.897   1.113  44.625  0.3161  0.4752  0.0964
15344TIP3    H167523   0.912   1.153  44.540  2.1463  0.8088  0.5296
15344TIP3    H267524   0.805   1.130  44.644 -0.2597 -0.0312 -2.0052
15345TIP3   OH267525   1.031   0.081   4.068 -0.3749 -0.3841  0.2704
15345TIP3    H167526   1.024  -0.013   4.055  0.5900 -0.4136 -0.1423
15345TIP3    H267527   1.098   0.109   4.005 -0.0154  0.4386  0.9966
15346TIP3   OH267528   2.598   1.932  50.700  0.1443 -0.0652  0.1258
15346TIP3    H167529   2.556   1.854  50.664 -0.6793  0.5334 -0.2423
15346TIP3    H267530   2.619   1.986  50.624  1.3480 -0.2299  0.3255
15347TIP3   OH267531   0.558   2.263  20.142 -0.4421  0.3643  0.4491
15347TIP3    H167532   0.533   2.190  20.199  1.2373 -0.4554  0.2131
15347TIP3    H267533   0.508   2.250  20.062  1.6744 -2.1327 -0.6311
15348TIP3   OH267534   2.653   1.803  27.062  0.6287 -0.4416  0.5019
15348TIP3    H167535   2.598   1.728  27.040 -2.2660  1.6400  0.1051
15348TIP3    H267536   2.736   1.764  27.090 -0.3089 -3.7119 -0.7741
15349TIP3   OH267537   3.420   2.674  51.049 -0.1872  0.2926 -0.4685
15349TIP3    H167538   3.436   2.611  51.120  0.6025  1.7123  0.6662
15349TIP3    H267539   3.493   2.659  50.988  2.3838  2.6425  1.7324
15350TIP3   OH267540   1.812   3.305   9.818  0.2149  0.0424  0.0215
15350TIP3    H167541   1.862   3.351   9.885  1.2756 -0.3718 -0.4655
15350TIP3    H267542   1.724   3.343   9.824 -0.0372 -0.7628  2.3792
15351TIP3   OH267543   1.855   0.567  11.233  0.4656  0.4284  0.4682
15351TIP3    H167544   1.851   0.615  11.151  2.7012  0.8283  0.5101
15351TIP3    H267545   1.940   0.522  11.230 -0.6266 -1.8698  1.3402
15352TIP3   OH267546   0.613   0.780   1.816 -0.0366  0.0565  0.7571
15352TIP3    H167547   0.666   0.847   1.773 -0.3738 -1.0857 -1.5449
15352TIP3    H267548   0.676   0.731   1.869  1.0297 -0.4246 -0.8774
15353TIP3   OH267549   1.321   3.115  57.323  0.4808  0.4674 -0.1844
15353TIP3    H167550   1.321   3.165  57.242  0.1980  1.3514  0.3540
15353TIP3    H267551   1.229   3.108  57.348  0.6884  2.2740  1.2926
15354TIP3   OH267552   1.597   3.298  38.610  0.0263  0.1374  0.3441
15354TIP3    H167553   1.508   3.285  38.576  0.2999 -0.4386 -0.1613
15354TIP3    H267554   1.645   3.336  38.537  0.5756 -0.9483  0.1248
15355TIP3   OH267555   0.106   2.869  51.991  0.5475 -0.4381  0.1138
15355TIP3    H167556   0.194   2.843  52.015  1.0644  0.2303 -0.9562
15355TIP3    H267557   0.096   2.957  52.027  0.1590 -0.6597  0.5675
15356TIP3   OH267558   2.574   0.554  49.141  0.0131  0.1568  0.7275
15356TIP3    H167559   2.590   0.540  49.234  1.9792  0.1706  0.4222
15356TIP3    H267560   2.588   0.647  49.127 -3.5941  0.9000  0.9640
15357TIP3   OH267561   0.773   3.416  19.326  0.3114  0.1490  0.1571
15357TIP3    H167562   0.856   3.374  19.305  0.8602  0.1869  2.1297
15357TIP3    H267563   0.777   3.434  19.419 -2.2218 -0.5037  0.4765
15358TIP3   OH267564   2.601   0.099  44.644  0.4190  0.3298  0.3036
15358TIP3    H167565   2.610   0.041  44.720 -1.2439 -0.7857 -0.2797
15358TIP3    H267566   2.662   0.064  44.579  0.2869 -0.0485  0.3795
15359TIP3   OH267567   2.299   2.236  47.357  0.0932 -0.8774  0.0450
15359TIP3    H167568   2.374   2.186  47.389 -1.0929 -2.4272  0.5619
15359TIP3    H267569   2.262   2.183  47.287 -0.6599 -0.2575 -0.0438
15360TIP3   OH267570   1.863   1.323  26.238 -0.5771 -0.5918  0.2282
15360TIP3    H167571   1.809   1.311  26.316 -0.0271  1.0284  0.9060
15360TIP3    H267572   1.837   1.409  26.204  0.7402 -0.2951 -0.0928
15361TIP3   OH267573   2.534   2.860  61.672 -0.6358 -0.7831 -0.2167
15361TIP3    H167574   2.568   2.812  61.747 -0.0143  0.1626  0.1376
15361TIP3    H267575   2.456   2.906  61.706 -0.0195  0.1134  0.0399
15362TIP3   OH267576   3.142   2.304  16.789 -0.7828 -0.1199 -0.0069
15362TIP3    H167577   3.197   2.333  16.716 -0.8912  0.4200  0.1231
15362TIP3    H267578   3.136   2.209  16.777  1.6725 -0.4842  0.9895
15363TIP3   OH267579   0.710   1.631   1.187  0.1003  0.1665 -0.2157
15363TIP3    H167580   0.737   1.708   1.137 -0.4193 -0.2916 -1.2233
15363TIP3    H267581   0.615   1.641   1.197 -0.0722 -0.6708 -0.9351
15364TIP3   OH267582   0.625   0.248  58.531  0.2500  0.2014  0.0963
15364TIP3    H167583   0.684   0.177  58.557 -0.2051 -1.2178 -2.3799
15364TIP3    H267584   0.677   0.327  58.542  1.2328 -0.6171  1.7008
15365TIP3   OH267585   0.713   1.510   2.402  0.1152 -0.8237  0.0613
15365TIP3    H167586   0.726   1.561   2.482  1.0373 -2.2496  0.8464
15365TIP3    H267587   0.777   1.440   2.407  0.0115 -1.1061 -1.8158
15366TIP3   OH267588   1.474   3.257  18.904  0.4332 -0.5021  0.0417
15366TIP3    H167589   1.567   3.252  18.926  0.8305  4.0782  0.3493
15366TIP3    H267590   1.472   3.252  18.808  1.4852  2.0038 -0.2095
15367TIP3   OH267591   0.125   1.646  67.010 -0.4113  0.0841  0.3672
15367TIP3    H167592   0.103   1.554  66.998 -2.6152  0.6303 -0.2334
15367TIP3    H267593   0.140   1.655  67.104 -0.2044 -0.8600  0.4316
15368TIP3   OH267594   1.351   2.631  43.885 -0.5975 -0.1922  0.8754
15368TIP3    H167595   1.408   2.557  43.865  0.1720  0.5427  0.2206
15368TIP3    H267596   1.281   2.626  43.819  1.3278  1.5815 -1.4906
15369TIP3   OH267597   0.589   0.677  60.785 -0.0151  0.0167 -0.1319
15369TIP3    H167598   0.562   0.607  60.726  0.2260 -0.6234  0.5102
15369TIP3    H267599   0.632   0.633  60.858 -0.6025  0.7679  0.6996
15370TIP3   OH267600   1.876   0.217  56.709  0.1671  0.1414  0.1202
15370TIP3    H167601   1.883   0.280  56.781  0.8924  0.5264 -0.2675
15370TIP3    H267602   1.814   0.257  56.648  1.9181  1.3679 -0.9609
15371TIP3   OH267603   2.473   1.862  28.128 -0.2069  0.5705 -0.2153
15371TIP3    H167604   2.440   1.943  28.167  1.6607  0.3988  1.9554
15371TIP3    H267605   2.399   1.802  28.130 -0.6339  1.0874  1.7370
15372TIP3   OH267606   1.582   1.360   4.082 -0.1267 -0.2874  0.1749
15372TIP3    H167607   1.582   1.376   3.988 -1.4068 -0.6745  0.0943
15372TIP3    H267608   1.572   1.266   4.091  1.8166 -0.4839  0.7098
15373TIP3   OH267609   2.770   2.952  18.727  0.0295 -0.1348  0.1736
15373TIP3    H167610   2.777   2.859  18.706 -1.1507 -0.0744 -0.5776
15373TIP3    H267611   2.781   2.996  18.643  0.7298  0.4196  0.5504
15374TIP3   OH267612   3.171   1.434  64.107 -0.3233  0.4766 -0.4035
15374TIP3    H167613   3.193   1.401  64.194 -1.1136  0.0222 -0.3757
15374TIP3    H267614   3.151   1.527  64.121  0.5258  0.6513 -0.2701
15375TIP3   OH267615   1.891   1.501  44.225 -0.5387  0.6287  0.0409
15375TIP3    H167616   1.901   1.422  44.278  0.1145  1.1456  0.7172
15375TIP3    H267617   1.906   1.573  44.286  1.2839  1.2285 -1.0025
15376TIP3   OH267618   3.195   2.950  12.568 -0.3472 -0.1465 -0.0851
15376TIP3    H167619   3.151   2.895  12.503 -1.0899 -1.2303  1.2666
15376TIP3    H267620   3.287   2.922  12.565 -0.0055  1.0094 -1.8072
15377TIP3   OH267621   1.189   2.676  47.481 -0.7061 -0.6351  0.1975
15377TIP3    H167622   1.104   2.719  47.484 -0.5345 -0.2851  0.1091
15377TIP3    H267623   1.241   2.720  47.548 -0.0412  0.3674 -0.9269
15378TIP3   OH267624   0.112   1.270  12.146 -0.4251  0.5159 -0.3854
15378TIP3    H167625   0.101   1.284  12.052 -1.1692  2.0592 -0.0981
15378TIP3    H267626   0.053   1.197  12.166 -0.3788  0.2799 -1.0859
15379TIP3   OH267627   0.506   3.438   2.171  0.1693 -0.0028  0.4183
15379TIP3    H167628   0.414   3.449   2.149  0.4149 -0.8960 -1.2394
15379TIP3    H267629   0.510   3.450   2.265 -1.3423  1.8568  0.3017
15380TIP3   OH267630   0.775   2.175  49.044  1.2200 -0.2350 -0.3334
15380TIP3    H167631   0.687   2.208  49.058  1.2028 -0.5804  0.4182
15380TIP3    H267632   0.813   2.233  48.979  0.1888 -0.5353 -1.2217
15381TIP3   OH267633   2.512   0.441  11.362  0.0578 -0.0634  0.1232
15381TIP3    H167634   2.516   0.488  11.445 -0.8492  0.3837 -0.0736
15381TIP3    H267635   2.588   0.383  11.363 -0.2320 -0.4342  1.4840
15382TIP3   OH267636   2.220   1.713  16.780  0.4172 -0.0263 -0.0883
15382TIP3    H167637   2.279   1.777  16.740 -0.2240  0.7034  0.1005
15382TIP3    H267638   2.269   1.680  16.855  0.9661 -0.1559 -0.4964
15383TIP3   OH267639   3.170   0.198  22.075 -0.0033  1.0337  0.8624
15383TIP3    H167640   3.155   0.219  22.167  0.1915 -0.7752  1.3462
15383TIP3    H267641   3.200   0.107  22.076 -0.6262  0.7639 -1.0476
15384TIP3   OH267642   0.450   3.103  49.719  0.0296  0.7678 -0.2506
15384TIP3    H167643   0.485   3.188  49.746 -0.7837  0.3641  2.3004
15384TIP3    H267644   0.485   3.041  49.783 -1.9724 -0.2851 -0.0879
15385TIP3   OH267645   1.279   1.562  53.375 -0.5496 -0.1946 -0.0672
15385TIP3    H167646   1.228   1.482  53.376 -0.0216 -0.5344 -0.2386
15385TIP3    H267647   1.370   1.533  53.375 -0.1727  0.3315  4.1982
15386TIP3   OH267648   2.824   2.506  15.278  0.4616  0.2624 -0.7897
15386TIP3    H167649   2.911   2.546  15.287  1.3681 -1.8195  0.5217
15386TIP3    H267650   2.833   2.420  15.319 -1.7420 -0.7615 -2.2594
15387TIP3   OH267651   1.439   2.401  44.641  0.1023  0.0226 -0.5618
15387TIP3    H167652   1.411   2.376  44.553  1.8929 -0.5232 -1.0163
15387TIP3    H267653   1.503   2.334  44.665  2.0676  1.9403 -0.1656
15388TIP3   OH267654   0.534   1.671  65.190  0.3299  0.3337  0.0952
15388TIP3    H167655   0.626   1.646  65.194  0.9835  2.5305 -0.1958
15388TIP3    H267656   0.525   1.718  65.107 -0.9894  0.3896  0.2464
15389TIP3   OH267657   1.900   2.303  52.494  0.2788  0.0842  0.3149
15389TIP3    H167658   1.897   2.285  52.400  4.2126  0.0073  0.0562
15389TIP3    H267659   1.848   2.233  52.533 -0.0706 -0.8465 -1.6972
15390TIP3   OH267660   0.338   2.873  56.655 -0.0694 -0.7113  0.2101
15390TIP3    H167661   0.428   2.840  56.655 -0.5536 -2.1210 -0.8591
15390TIP3    H267662   0.335   2.936  56.583  0.2230 -0.1587  0.6756
15391TIP3   OH267663   0.727   2.068  62.368 -0.0174  0.1753 -0.3073
15391TIP3    H167664   0.810   2.068  62.320  1.4383  2.5669  1.9473
15391TIP3    H267665   0.708   2.161  62.381 -1.0750 -0.3551  2.4287
15392TIP3   OH267666   1.449   1.245  61.815 -0.1690  0.5351  0.0128
15392TIP3    H167667   1.381   1.191  61.854  0.7270 -1.3935 -0.9588
15392TIP3    H267668   1.465   1.314  61.880 -1.4189 -0.3002  1.2620
15393TIP3   OH267669   3.003   1.169  56.987  0.1509 -0.3342  0.9715
15393TIP3    H167670   3.057   1.224  57.044  0.5517  0.6470 -0.3120
15393TIP3    H267671   2.949   1.230  56.938 -0.7457 -1.2081  0.8518
15394TIP3   OH267672   3.327   2.367  62.408 -0.2513  0.5279 -0.0713
15394TIP3    H167673   3.337   2.374  62.503 -0.9160 -0.5227  0.0882
15394TIP3    H267674   3.401   2.417  62.372  0.0833  0.8128  0.9901
15395TIP3   OH267675   2.174   2.064  50.177  0.3619  0.2693 -0.1325
15395TIP3    H167676   2.245   2.034  50.119 -1.3824 -0.0587 -2.2464
15395TIP3    H267677   2.159   1.990  50.236 -0.1315 -0.8996 -1.6238
15396TIP3   OH267678   0.850   0.284  61.857 -0.4036 -0.3640 -0.0219
15396TIP3    H167679   0.860   0.191  61.838  1.0479 -0.0467 -0.9828
15396TIP3    H267680   0.800   0.287  61.939 -0.7871 -1.9605 -0.1627
15397TIP3   OH267681   1.428   0.474  61.472  0.6868 -0.1499 -0.0941
15397TIP3    H167682   1.448   0.552  61.420 -0.4335  0.2180 -0.0030
15397TIP3    H267683   1.386   0.509  61.551 -0.6874 -0.8912 -0.4726
15398TIP3   OH267684   0.616   3.289  56.008  0.1273  0.5462  0.7273
15398TIP3    H167685   0.534   3.241  55.996 -0.4186  1.8531 -1.4077
15398TIP3    H267686   0.683   3.231  55.972  0.4249 -1.0611  3.6054
15399TIP3   OH267687   0.158   1.048  61.039  0.3417 -0.0151 -0.3921
15399TIP3    H167688   0.199   1.015  61.120  0.0509  0.4842 -0.0349
15399TIP3    H267689   0.132   1.137  61.061 -2.1814 -0.7315 -0.1555
15400TIP3   OH267690   2.112   0.875  67.057  0.3442 -0.2368  0.1021
15400TIP3    H167691   2.156   0.957  67.035 -0.5073  0.1653 -0.1383
15400TIP3    H267692   2.105   0.876  67.153 -0.7700  0.5792  0.0335
15401TIP3   OH267693   1.519   2.870  60.443 -0.1328  0.1333 -0.0472
15401TIP3    H167694   1.573   2.852  60.520  0.8017 -0.5712 -0.8355
15401TIP3    H267695   1.432   2.836  60.465  0.2304 -0.4369  0.5427
15402TIP3   OH267696   1.047   1.508   7.436  0.4193 -0.2227  0.5455
15402TIP3    H167697   1.131   1.553   7.426  0.6720 -0.4550  1.5249
15402TIP3    H267698   1.004   1.553   7.509 -0.3450 -0.0639  0.0147
15403TIP3   OH267699   1.831   1.739  10.632 -0.3751 -0.3094  0.3564
15403TIP3    H167700   1.898   1.671  10.620  0.8968  0.7273  1.2451
15403TIP3    H267701   1.856   1.808  10.570 -0.4744  0.1809  0.8576
15404TIP3   OH267702   0.077   2.700  63.749 -0.0644  0.3844  0.2090
15404TIP3    H167703   0.140   2.699  63.821 -1.0838 -0.2773  1.1215
15404TIP3    H267704   0.129   2.726  63.672  0.8329  2.1566  1.3511
15405TIP3   OH267705   0.715   2.359  12.644  0.0071 -0.1025 -0.5317
15405TIP3    H167706   0.811   2.362  12.650 -0.0218 -0.3781  0.2507
15405TIP3    H267707   0.697   2.325  12.557  0.6011  1.3649 -1.2730
15406TIP3   OH267708   0.601   2.758  18.609 -0.0959 -0.4397  0.3345
15406TIP3    H167709   0.597   2.852  18.622  1.4573 -0.5462  2.0143
15406TIP3    H267710   0.523   2.724  18.655 -1.9055  0.0982 -2.1445
15407TIP3   OH267711   0.330   0.025  59.674 -0.8415  0.2641 -0.0822
15407TIP3    H167712   0.399   0.025  59.608  0.5824  0.4589  1.3430
15407TIP3    H267713   0.250   0.043  59.625  0.2928  1.3886 -1.6238
15408TIP3   OH267714   1.988   2.269   7.010 -0.2742 -0.2766 -0.1777
15408TIP3    H167715   2.001   2.276   6.915 -0.0007 -0.0261 -0.1219
15408TIP3    H267716   1.916   2.329   7.028 -0.3258 -0.3234 -0.2261
15409TIP3   OH267717   0.273   0.182  21.787 -0.1768 -0.3712  0.0927
15409TIP3    H167718   0.331   0.147  21.719  0.1693  1.5689 -0.6970
15409TIP3    H267719   0.187   0.182  21.747  0.0826  1.1040 -0.5526
15410TIP3   OH267720   2.662   0.971  48.722  0.3221 -0.1103 -0.1281
15410TIP3    H167721   2.699   0.925  48.647  0.7695  0.1148 -0.0457
15410TIP3    H267722   2.722   1.044  48.739  2.1270 -1.9995  2.4846
15411TIP3   OH267723   0.607   0.060  49.264 -0.2794 -0.3370  0.0352
15411TIP3    H167724   0.558   0.138  49.237 -0.8944 -0.3830  0.9785
15411TIP3    H267725   0.568   0.035  49.347 -0.0330 -1.6101 -0.2133
15412TIP3   OH267726   1.579   1.101  62.503  0.0600 -0.1389  0.4335
15412TIP3    H167727   1.534   1.130  62.424  1.4888 -1.0597 -0.7809
15412TIP3    H267728   1.593   1.007  62.490  2.0234  0.0511  0.8652
15413TIP3   OH267729   1.084   1.001  14.255  0.1692 -0.1358 -0.3305
15413TIP3    H167730   1.056   0.916  14.222 -0.0869 -0.9914  1.9230
15413TIP3    H267731   1.160   0.982  14.309 -1.2823  0.6549  2.1433
15414TIP3   OH267732   1.252   2.855  64.176  0.3022  0.2587 -0.2803
15414TIP3    H167733   1.297   2.795  64.236 -1.5688 -2.0943 -1.0573
15414TIP3    H267734   1.309   2.859  64.099  1.5747  1.4285  0.6696
15415TIP3   OH267735   2.219   0.131  64.341 -0.3767  0.2727  0.3067
15415TIP3    H167736   2.298   0.136  64.396 -0.1983 -0.7343  0.1456
15415TIP3    H267737   2.209   0.038  64.321 -1.6042  0.3898  0.3091
15416TIP3   OH267738   3.285   0.773  50.463  0.0957  0.0666  0.1377
15416TIP3    H167739   3.203   0.751  50.418  0.2807 -0.0696 -0.1331
15416TIP3    H267740   3.316   0.853  50.420 -0.2815  0.5550  0.7447
15417TIP3   OH267741   2.832   0.001  22.615 -0.7655  0.0483  0.6403
15417TIP3    H167742   2.871   0.033  22.697  1.6021 -2.0596  0.4356
15417TIP3    H267743   2.786  -0.079  22.640 -0.2341 -0.4728 -0.0160
15418TIP3   OH267744   0.178   0.722   1.636 -0.3924 -0.4956 -0.1674
15418TIP3    H167745   0.264   0.681   1.646 -0.3222 -0.0359  1.3831
15418TIP3    H267746   0.159   0.716   1.543  1.0097 -1.2300 -0.4289
15419TIP3   OH267747   1.628   0.877   7.595 -0.6213 -0.1541  0.9514
15419TIP3    H167748   1.580   0.957   7.616 -0.2182 -0.0832  1.6318
15419TIP3    H267749   1.573   0.832   7.532 -0.8431  0.6741  0.5407
15420TIP3   OH267750   3.137   0.519  16.055  0.1028 -0.3018 -0.0382
15420TIP3    H167751   3.187   0.582  16.003  1.0309  0.6294  1.8913
15420TIP3    H267752   3.129   0.560  16.141 -1.0865 -1.9383  0.6768
15421TIP3   OH267753   0.149   1.778  15.217 -0.3111 -0.0773 -0.5326
15421TIP3    H167754   0.090   1.843  15.179 -0.2011 -0.0510 -0.6587
15421TIP3    H267755   0.185   1.731  15.141 -1.2045 -0.9955 -0.4017
15422TIP3   OH267756   2.364   2.976  67.094  0.1128 -0.3810  0.2609
15422TIP3    H167757   2.294   2.994  67.158 -1.3564 -1.4791 -0.9726
15422TIP3    H267758   2.343   2.890  67.060  0.6598  0.3066 -1.9455
15423TIP3   OH267759   2.561   2.469  29.124  0.3901  0.1333  0.0690
15423TIP3    H167760   2.526   2.417  29.051  1.2192  0.3163 -0.4687
15423TIP3    H267761   2.578   2.405  29.193 -0.1636 -0.0754  0.0165
15424TIP3   OH267762   2.330   2.774  47.938  0.2205 -0.1825  0.3180
15424TIP3    H167763   2.399   2.762  48.003 -0.8004 -0.1974  1.4280
15424TIP3    H267764   2.312   2.868  47.938  1.2622  0.0506 -1.0792
15425TIP3   OH267765   1.800   2.534  46.061 -0.6817  0.1209  0.4626
15425TIP3    H167766   1.830   2.499  45.977 -0.3209 -0.1163  0.6927
15425TIP3    H267767   1.717   2.489  46.078 -1.8283  1.6428 -0.7540
15426TIP3   OH267768   2.818   1.210   9.590  0.1186 -0.4032 -0.3043
15426TIP3    H167769   2.784   1.288   9.633 -0.7029 -0.8363 -0.1430
15426TIP3    H267770   2.746   1.146   9.596  1.2074 -1.5999  0.7056
15427TIP3   OH267771   2.438   1.664  14.181  0.2722 -0.3440 -0.0721
15427TIP3    H167772   2.521   1.678  14.136 -0.0317  1.1914 -0.1936
15427TIP3    H267773   2.410   1.751  14.209 -1.5969 -0.7236 -0.5784
15428TIP3   OH267774   1.691   2.152  43.029 -0.2759  0.4591  0.2638
15428TIP3    H167775   1.655   2.080  42.978 -0.1732  1.4095 -1.2112
15428TIP3    H267776   1.667   2.133  43.120  2.6749 -3.2633  0.5167
15429TIP3   OH267777   3.191   1.399  27.932  0.5057  0.3750  0.0033
15429TIP3    H167778   3.214   1.309  27.905 -0.5658 -0.9598  3.1519
15429TIP3    H267779   3.253   1.419  28.001  1.3298  2.5399 -1.2615
15430TIP3   OH267780   2.103   2.319  62.338  0.1990 -0.4089 -0.3636
15430TIP3    H167781   2.049   2.242  62.357 -0.3993 -0.2830 -1.4555
15430TIP3    H267782   2.061   2.391  62.384 -0.9089 -0.2066 -1.6503
15431TIP3   OH267783   2.608   2.399  22.229  0.1619  0.3482  0.1087
15431TIP3    H167784   2.555   2.392  22.309  0.4033 -0.5146  0.2010
15431TIP3    H267785   2.672   2.328  22.236  0.9552  1.0042 -0.2920
15432TIP3   OH267786   1.456   1.351  15.600  0.2943 -0.0988  0.1177
15432TIP3    H167787   1.536   1.328  15.553  0.8457 -0.0792  1.0274
15432TIP3    H267788   1.437   1.275  15.655 -0.0420  0.0955  0.2780
15433TIP3   OH267789   3.072   2.440  15.575  0.5557 -0.1879 -0.0323
15433TIP3    H167790   3.056   2.345  15.576  2.4629 -0.6234 -1.9090
15433TIP3    H267791   3.060   2.468  15.665 -0.5031 -2.1297  0.4812
15434TIP3   OH267792   2.607   3.274   2.353  0.4345 -0.4235  0.0280
15434TIP3    H167793   2.680   3.318   2.397 -0.1757 -0.2555  0.9185
15434TIP3    H267794   2.640   3.186   2.333  0.3645 -0.9577  1.9990
15435TIP3   OH267795   3.441   2.812   5.112  0.7026 -0.1068  0.9333
15435TIP3    H167796   3.528   2.850   5.125 -0.1248  2.3430  0.0006
15435TIP3    H267797   3.403   2.863   5.041 -1.1814 -1.7125  0.6956
15436TIP3   OH267798   3.022   0.626  43.896  0.3014 -0.1914 -0.6591
15436TIP3    H167799   3.030   0.688  43.824 -0.5809 -0.0869 -0.6763
15436TIP3    H267800   2.932   0.592  43.889 -0.1296  0.5060  0.9354
15437TIP3   OH267801   3.412   1.911  56.570  0.4662  0.1470  0.3291
15437TIP3    H167802   3.459   1.951  56.644 -1.4792 -0.9323  2.2756
15437TIP3    H267803   3.374   1.985  56.523 -0.8552  0.8117  2.3060
15438TIP3   OH267804   1.269   0.696  55.567 -0.5595 -0.4091 -0.7784
15438TIP3    H167805   1.300   0.614  55.605  0.8388  0.0150 -0.9364
15438TIP3    H267806   1.306   0.697  55.479  0.5577  0.9539 -0.3353
15439TIP3   OH267807   2.529   0.296   1.275 -0.3356  0.4286  0.2988
15439TIP3    H167808   2.526   0.287   1.370 -1.5404 -2.2261  0.0990
15439TIP3    H267809   2.605   0.244   1.249 -0.6951  0.1723 -0.2545
15440TIP3   OH267810   2.553   0.071   5.756  0.3982 -0.0320 -0.0795
15440TIP3    H167811   2.560   0.150   5.810  0.9553  0.4872 -0.9049
15440TIP3    H267812   2.568   0.101   5.667 -0.5914 -0.8812 -0.5450
15441TIP3   OH267813   0.261   3.317  61.220  0.1532  0.8287 -0.4524
15441TIP3    H167814   0.219   3.297  61.137  0.0090 -1.7723  0.1679
15441TIP3    H267815   0.188   3.323  61.283  0.4283  0.2984 -0.0769
15442TIP3   OH267816   2.377   0.736  64.052  0.0068 -0.0939  0.1495
15442TIP3    H167817   2.372   0.807  64.115 -0.5819  0.0759 -0.0747
15442TIP3    H267818   2.331   0.769  63.975 -2.9883 -1.7492  1.0618
15443TIP3   OH267819   0.772   1.261  43.756 -0.2313 -0.1454 -0.5215
15443TIP3    H167820   0.851   1.311  43.736 -0.0455 -0.0829  0.3256
15443TIP3    H267821   0.736   1.303  43.834 -0.3340 -1.0336 -0.0794
15444TIP3   OH267822   0.732   0.210  43.305 -0.5226  0.0985 -0.2290
15444TIP3    H167823   0.787   0.153  43.358 -0.7297  1.3042  1.3712
15444TIP3    H267824   0.751   0.185  43.214 -0.0021 -1.8942  0.3868
15445TIP3   OH267825   2.721   2.704  17.475  0.4905  0.2485  0.2681
15445TIP3    H167826   2.812   2.678  17.493  0.4320  0.0088  0.2179
15445TIP3    H267827   2.729   2.790  17.433  0.7785 -0.3860 -1.0129
15446TIP3   OH267828   2.309   2.880  22.322 -0.0610 -0.2109  0.2201
15446TIP3    H167829   2.305   2.803  22.264  0.1600 -1.4825  1.8215
15446TIP3    H267830   2.284   2.846  22.408 -1.3300  1.8286  0.7193
15447TIP3   OH267831   2.072   1.230  17.434 -0.1343  0.3918 -0.1541
15447TIP3    H167832   2.000   1.176  17.401 -0.2977  0.4112  0.1581
15447TIP3    H267833   2.061   1.228  17.530  0.9241 -0.4898 -0.0318
15448TIP3   OH267834   1.328   1.940  54.747  0.4692 -0.0805 -0.7388
15448TIP3    H167835   1.236   1.929  54.724  0.1402  0.8010  0.0638
15448TIP3    H267836   1.356   2.018  54.700  0.1392  0.9936  0.7733
15449TIP3   OH267837   3.283   0.275   6.847 -0.5428 -0.2437  0.3674
15449TIP3    H167838   3.244   0.200   6.802  1.3946 -0.0671 -1.8496
15449TIP3    H267839   3.222   0.347   6.831 -0.5373 -0.4967 -0.9563
15450TIP3   OH267840   2.360   1.968  21.838 -0.3263 -0.0147 -0.8050
15450TIP3    H167841   2.373   1.950  21.931  0.8389  0.6290 -0.8203
15450TIP3    H267842   2.265   1.968  21.827 -0.4616 -2.3166 -0.0869
15451TIP3   OH267843   0.404   0.556  53.585  0.0379  0.4463  0.1342
15451TIP3    H167844   0.421   0.462  53.580  2.1253  0.6039  2.4870
15451TIP3    H267845   0.308   0.563  53.587 -0.1514 -1.7043  0.8474
15452TIP3   OH267846   0.979   0.956  67.064 -0.0714 -0.0917 -0.6492
15452TIP3    H167847   0.973   0.876  67.012 -1.0908 -0.2024 -0.3933
15452TIP3    H267848   1.033   0.933  67.139 -0.3649 -0.5463 -0.5746
15453TIP3   OH267849   1.157   2.150  42.200  0.2208  0.0219  0.0213
15453TIP3    H167850   1.135   2.101  42.120  0.6441 -1.2991  0.6774
15453TIP3    H267851   1.083   2.209  42.213 -0.4572 -0.6475 -0.6606
15454TIP3   OH267852   1.696   2.982  58.555  0.1964 -0.1103 -0.6141
15454TIP3    H167853   1.762   2.934  58.505  0.1661 -3.7969  2.4112
15454TIP3    H267854   1.613   2.943  58.528 -0.2756  1.0351 -0.8609
15455TIP3   OH267855   0.311   2.075  20.204 -0.2008  0.0048 -0.4924
15455TIP3    H167856   0.369   2.066  20.280  0.1430  0.1702 -0.7341
15455TIP3    H267857   0.259   2.153  20.223 -1.8975 -1.3432  0.7428
15456TIP3   OH267858   1.333   0.407  59.636  0.1951 -0.0410  0.1533
15456TIP3    H167859   1.323   0.484  59.580  0.9834  1.1029  1.5121
15456TIP3    H267860   1.397   0.434  59.702  0.5160 -1.8879  0.6490
15457TIP3   OH267861   0.757   3.156  17.621 -0.3309  0.3610  0.4307
15457TIP3    H167862   0.796   3.120  17.541 -1.3288  0.6172 -0.1872
15457TIP3    H267863   0.828   3.156  17.685  0.7687  1.0755 -0.7486
15458TIP3   OH267864   0.228   2.710   5.315  0.0784  0.0055  0.4779
15458TIP3    H167865   0.274   2.791   5.289 -1.4345  1.0865  1.0577
15458TIP3    H267866   0.177   2.735   5.392  1.2605 -2.0884  2.0504
15459TIP3   OH267867   0.654   2.418   3.858  0.2853 -0.4471  0.2730
15459TIP3    H167868   0.747   2.428   3.877  0.8040 -0.8773 -1.7678
15459TIP3    H267869   0.639   2.473   3.781 -0.9714 -0.9634  0.1218
15460TIP3   OH267870   1.482   2.329  42.720 -0.1412  0.1289 -0.0436
15460TIP3    H167871   1.525   2.318  42.635 -0.8018  1.4147 -0.5827
15460TIP3    H267872   1.546   2.375  42.774 -0.6568  1.7472 -0.7423
15461TIP3   OH267873   0.258   1.375  54.071  0.6170  0.2002  0.2760
15461TIP3    H167874   0.347   1.379  54.105  0.8304  1.8690 -0.4219
15461TIP3    H267875   0.264   1.317  53.995  0.7538 -0.9592  1.1292
15462TIP3   OH267876   1.674   0.017  47.560 -0.7930  0.4899 -0.5110
15462TIP3    H167877   1.583   0.038  47.540 -0.2581  0.9566 -2.6751
15462TIP3    H267878   1.717   0.102  47.566 -0.0184  0.2432 -2.1097
15463TIP3   OH267879   2.851   0.277  12.452 -0.4199 -0.3797 -0.0019
15463TIP3    H167880   2.780   0.320  12.500  0.3916  1.4092 -0.3239
15463TIP3    H267881   2.897   0.348  12.407  0.8360 -1.6294 -0.8038
15464TIP3   OH267882   2.557   1.455  62.189  0.1442 -0.8859 -0.2951
15464TIP3    H167883   2.618   1.461  62.262  0.0220 -3.1963  0.0645
15464TIP3    H267884   2.538   1.362  62.181 -1.7124 -0.4453 -1.7500
15465TIP3   OH267885   0.777   0.079  16.744 -0.1479 -0.1627  0.0928
15465TIP3    H167886   0.727   0.003  16.715 -1.3272  0.0892  1.3413
15465TIP3    H267887   0.719   0.154  16.726 -0.1720  0.1561  1.3863
15466TIP3   OH267888   0.375   3.109  42.043  0.3168 -0.1318  0.0456
15466TIP3    H167889   0.464   3.082  42.063  0.7565  0.9875 -0.2896
15466TIP3    H267890   0.385   3.191  41.994 -0.8319 -0.7303 -1.2778
15467TIP3   OH267891   1.531   2.213  65.189 -0.1730 -0.3037 -0.4702
15467TIP3    H167892   1.446   2.173  65.205 -0.3332  0.6389  1.2215
15467TIP3    H267893   1.512   2.291  65.137 -0.3184 -0.1588 -0.1926
15468TIP3   OH267894   1.706   1.552  52.987  0.1856 -0.1119 -0.0549
15468TIP3    H167895   1.786   1.550  52.934 -0.0845  0.6122 -0.4975
15468TIP3    H267896   1.666   1.466  52.972  1.9273 -1.3336  1.8392
15469TIP3   OH267897   1.604   2.964  19.891  0.5134 -0.3866  0.0419
15469TIP3    H167898   1.538   2.916  19.942 -0.9290  0.5001 -0.9113
15469TIP3    H267899   1.572   3.055  19.891  0.2625 -0.3955 -2.6707
15470TIP3   OH267900   2.087   1.375  60.221  0.2987  0.4704 -0.4655
15470TIP3    H167901   2.153   1.435  60.185 -0.0682  1.0678 -0.1666
15470TIP3    H267902   2.136   1.295  60.242  0.4055 -0.1665 -2.8880
15471TIP3   OH267903   0.239   2.457  62.111  0.0018  0.0658  0.2467
15471TIP3    H167904   0.161   2.459  62.055 -1.0460  1.8158  1.6491
15471TIP3    H267905   0.286   2.537  62.090  1.6680 -1.1474 -0.8321
15472TIP3   OH267906   0.619   1.388  65.038  0.1597 -0.0154  0.6980
15472TIP3    H167907   0.647   1.304  65.075 -1.2805 -0.3674  1.0661
15472TIP3    H267908   0.695   1.420  64.989  0.6675 -1.6208  0.4008
15473TIP3   OH267909   1.905   2.306   4.615  0.7111  0.3846 -0.1331
15473TIP3    H167910   1.991   2.290   4.654  0.0115 -3.3127  0.2030
15473TIP3    H267911   1.848   2.325   4.690  0.7667  0.4387 -0.1042
15474TIP3   OH267912   1.954   2.443   2.185 -0.2147 -0.3420  0.1918
15474TIP3    H167913   1.859   2.435   2.172 -0.1842  0.3900 -0.5868
15474TIP3    H267914   1.986   2.353   2.182 -0.5142 -0.4369 -2.8017
15475TIP3   OH267915   1.559   0.213  19.608 -0.0589 -0.3223  0.5093
15475TIP3    H167916   1.577   0.270  19.533 -2.1016  1.5762  1.3412
15475TIP3    H267917   1.634   0.225  19.666 -0.2845  1.3744  0.5215
15476TIP3   OH267918   2.235   0.412   1.845 -0.7211  0.1172  0.0145
15476TIP3    H167919   2.212   0.328   1.807 -0.4706 -0.1960  0.5398
15476TIP3    H267920   2.160   0.436   1.898 -0.6263  0.0237  0.1925
15477TIP3   OH267921   2.731   0.169  50.790  0.2241 -0.2077 -0.3728
15477TIP3    H167922   2.681   0.177  50.872 -0.1981 -3.0004 -0.2396
15477TIP3    H267923   2.820   0.192  50.815 -0.3045  1.3570  0.2461
15478TIP3   OH267924   1.968   2.100  19.831  0.5251 -0.1601  0.8162
15478TIP3    H167925   1.963   2.053  19.748  1.5531  0.3299  0.4513
15478TIP3    H267926   1.940   2.036  19.897 -0.5545 -0.4736  0.0793
15479TIP3   OH267927   1.658   1.698  11.715 -0.6100 -0.1698  0.2604
15479TIP3    H167928   1.567   1.718  11.695 -0.5300  0.9965  0.9879
15479TIP3    H267929   1.664   1.603  11.704 -1.6175 -0.1321 -0.8977
15480TIP3   OH267930   2.747   2.919  16.423 -0.0740  0.1433 -0.2009
15480TIP3    H167931   2.711   2.860  16.489  2.5634 -0.4947  0.7686
15480TIP3    H267932   2.703   3.002  16.438  0.0225 -0.1533  1.9747
15481TIP3   OH267933   2.114   2.294  56.202 -0.5821 -0.1814 -0.1301
15481TIP3    H167934   2.167   2.373  56.215 -1.2864  0.5412 -1.4634
15481TIP3    H267935   2.028   2.316  56.238 -0.0648 -1.3358  1.9902
15482TIP3   OH267936   1.912   1.466  60.022 -0.9724 -0.0971  0.2348
15482TIP3    H167937   1.955   1.436  60.102 -2.1215 -0.9334  0.5577
15482TIP3    H267938   1.938   1.403  59.955  0.2579  0.7854 -0.1760
15483TIP3   OH267939   2.540   0.017  61.225  0.0983 -0.1375  0.2531
15483TIP3    H167940   2.556  -0.054  61.162 -3.3191 -2.3141  1.5995
15483TIP3    H267941   2.605   0.002  61.294  0.6965 -0.7236 -0.4190
15484TIP3   OH267942   1.876   2.918  60.675 -0.0222  0.5104  0.0798
15484TIP3    H167943   1.835   2.835  60.651 -1.5554  1.2681 -0.0582
15484TIP3    H267944   1.970   2.900  60.674 -0.3497 -1.4122  0.8535
15485TIP3   OH267945   2.733   2.243  66.722  0.3278 -0.7082 -0.2411
15485TIP3    H167946   2.731   2.174  66.789 -0.4979  0.0898  0.5947
15485TIP3    H267947   2.808   2.222  66.668  2.2139 -0.3408  2.0742
15486TIP3   OH267948   1.561   1.683  18.480  0.2660 -0.5593  0.1766
15486TIP3    H167949   1.530   1.728  18.559 -0.0924 -2.2112  1.0150
15486TIP3    H267950   1.624   1.744  18.441 -1.1462  1.2068  0.5398
15487TIP3   OH267951   1.744   1.895  53.027 -0.1271 -0.6745 -0.1814
15487TIP3    H167952   1.673   1.869  53.085 -0.0586  0.2870  0.3538
15487TIP3    H267953   1.817   1.838  53.050 -0.1109 -0.3256  0.6530
15488TIP3   OH267954   1.195   3.242   8.581 -0.4379 -0.3028  0.3263
15488TIP3    H167955   1.136   3.220   8.509  0.4789 -0.3387 -0.4264
15488TIP3    H267956   1.278   3.264   8.539 -0.1521  0.5974  1.3163
15489TIP3   OH267957   1.934   2.981  51.306 -0.3152  0.0351  0.1061
15489TIP3    H167958   1.852   3.024  51.280 -0.1482  0.4991  0.3512
15489TIP3    H267959   1.910   2.925  51.380 -0.5425 -0.3363 -0.2445
15490TIP3   OH267960   3.033   2.004   1.226 -0.1087  0.0375  0.0623
15490TIP3    H167961   2.969   2.045   1.284  0.6499  0.3034  0.7398
15490TIP3    H267962   3.065   2.075   1.171  1.1168  0.3809  1.1544
15491TIP3   OH267963   0.493   2.507  20.687  0.0288  0.1144 -0.0332
15491TIP3    H167964   0.442   2.499  20.767  0.9529 -0.1965  0.5460
15491TIP3    H267965   0.577   2.543  20.715  0.2293  0.3771 -0.9196
15492TIP3   OH267966   2.736   1.863  22.339  0.3505 -0.2370  0.0234
15492TIP3    H167967   2.756   1.911  22.419 -0.1296  0.2047 -0.1156
15492TIP3    H267968   2.665   1.803  22.365  1.2012 -1.1579  0.2891
15493TIP3   OH267969   0.788   2.032  51.787  0.3072  0.1378  0.2948
15493TIP3    H167970   0.728   2.041  51.861 -2.3750  4.0751 -1.9740
15493TIP3    H267971   0.752   1.961  51.735 -2.3436  2.0641 -0.7323
15494TIP3   OH267972   1.207   0.994  60.909  0.0475  0.3527  0.1085
15494TIP3    H167973   1.231   0.905  60.936  0.0169 -0.6183 -2.7268
15494TIP3    H267974   1.117   0.986  60.877  0.3883  1.1390 -1.1225
15495TIP3   OH267975   0.624   1.704  19.598  0.0296  0.1513  0.7028
15495TIP3    H167976   0.671   1.781  19.565 -0.0832  0.5458  1.4456
15495TIP3    H267977   0.646   1.634  19.536  1.9001  0.2246  1.2170
15496TIP3   OH267978   0.988   0.461  59.151  0.4131 -0.1865  0.3483
15496TIP3    H167979   0.992   0.405  59.073 -0.1277 -0.3402  0.4283
15496TIP3    H267980   1.059   0.524  59.138  0.4239 -0.3039 -0.1991
15497TIP3   OH267981   0.444   0.827  64.844 -0.0917  0.0862  0.2086
15497TIP3    H167982   0.516   0.822  64.781 -0.4975  0.7080 -0.3301
15497TIP3    H267983   0.465   0.902  64.899 -0.2347  0.1733  0.1470
15498TIP3   OH267984   0.744   0.604  21.419 -0.0455  0.2745 -0.1583
15498TIP3    H167985   0.775   0.514  21.428 -0.6112  0.0682 -0.2603
15498TIP3    H267986   0.658   0.604  21.460 -0.6280  0.4497 -1.3447
15499TIP3   OH267987   1.262   1.313   2.580 -0.3531 -0.4481 -0.0627
15499TIP3    H167988   1.331   1.292   2.643  0.2029  0.4152 -0.3724
15499TIP3    H267989   1.307   1.315   2.495 -0.7765  0.0080 -0.2788
15500TIP3   OH267990   2.610   0.213   5.505 -0.6646  0.6601  0.4355
15500TIP3    H167991   2.607   0.262   5.423 -0.7056 -1.1112 -0.6744
15500TIP3    H267992   2.630   0.278   5.572 -0.7995  2.1761 -0.9523
15501TIP3   OH267993   1.463   0.444  16.184  0.5736 -0.2395 -0.3386
15501TIP3    H167994   1.402   0.505  16.228  0.9493  0.0239 -0.1723
15501TIP3    H267995   1.417   0.360  16.184  0.7066 -0.3339  0.8960
15502TIP3   OH267996   2.118   2.454  58.251 -0.4704 -0.0278  0.1017
15502TIP3    H167997   2.115   2.524  58.315  0.6128  0.0324  0.1043
15502TIP3    H267998   2.026   2.434  58.233 -0.8098 -0.1256  1.7517
15503TIP3   OH267999   1.604   1.788   4.809  0.7444  0.6810 -0.3419
15503TIP3    H168000   1.527   1.845   4.801 -0.2845  0.0015  3.0638
15503TIP3    H268001   1.662   1.835   4.868  1.5167 -0.2001 -0.3836
15504TIP3   OH268002   2.412   2.305   1.587  0.4568  0.5049  0.3126
15504TIP3    H168003   2.330   2.283   1.632  0.3302  0.5102  0.0873
15504TIP3    H268004   2.400   2.271   1.498  0.8658  0.1408  0.3961
15505TIP3   OH268005   3.151   3.253   3.466 -0.3460  0.1590 -0.4882
15505TIP3    H168006   3.092   3.305   3.412 -0.2942  0.4277 -0.2869
15505TIP3    H268007   3.100   3.175   3.488 -0.0320 -0.4036 -1.7119
15506TIP3   OH268008   3.048   2.811   6.076 -0.5081 -0.5701  0.2137
15506TIP3    H168009   3.020   2.790   6.166 -0.6910 -0.1352  0.2614
15506TIP3    H268010   2.978   2.866   6.041 -0.5201 -0.8809 -0.2602
15507TIP3   OH268011   0.670   1.893  59.212 -0.8326 -0.3164 -0.5407
15507TIP3    H168012   0.593   1.870  59.160 -1.4769  0.1647  0.1949
15507TIP3    H268013   0.636   1.918  59.297  0.1726 -0.4776 -0.0757
15508TIP3   OH268014   1.664   2.212   8.770 -0.2723  0.2248  0.4982
15508TIP3    H168015   1.607   2.282   8.802  0.5220  1.4451 -0.6601
15508TIP3    H268016   1.723   2.195   8.844  0.2967  1.6449  0.4188
15509TIP3   OH268017   2.740   0.939  43.230  0.4190  0.2221  0.4029
15509TIP3    H168018   2.830   0.935  43.197  1.0270 -0.1956  1.9999
15509TIP3    H268019   2.726   1.032  43.249  2.0325 -0.0616  3.8470
15510TIP3   OH268020   3.329   0.120  63.380 -0.1847  0.7120 -0.0947
15510TIP3    H168021   3.300   0.181  63.447 -0.0897  0.6771 -0.0210
15510TIP3    H268022   3.310   0.164  63.297 -1.5954  0.1728 -0.0828
15511TIP3   OH268023   0.442   0.844  20.009 -0.2209 -0.5629 -0.9219
15511TIP3    H168024   0.410   0.923  19.964 -2.0776 -0.9882 -0.3960
15511TIP3    H268025   0.466   0.784  19.938  1.9048  0.6732 -1.3458
15512TIP3   OH268026   1.526   0.840  15.592  0.4196  0.2926  0.3720
15512TIP3    H168027   1.598   0.902  15.584  1.7348 -1.3631 -1.8382
15512TIP3    H268028   1.568   0.754  15.586 -1.7633 -0.7418 -2.0421
15513TIP3   OH268029   2.858   2.208  27.568 -0.5537 -0.3316  0.2957
15513TIP3    H168030   2.787   2.146  27.582 -1.8644  0.9046 -0.6658
15513TIP3    H268031   2.910   2.203  27.648 -1.5392 -1.4820  0.8932
15514TIP3   OH268032   0.326   1.291   7.513 -0.2098  0.6719  0.7064
15514TIP3    H168033   0.357   1.263   7.599  0.2334  2.2244  1.0861
15514TIP3    H268034   0.381   1.366   7.491 -1.0976  1.0244 -0.4227
15515TIP3   OH268035   2.501   0.392  65.208 -0.3503 -0.2193 -0.1595
15515TIP3    H168036   2.495   0.307  65.251 -2.0092  0.4051  0.9939
15515TIP3    H268037   2.469   0.376  65.119  0.4511 -1.0096 -0.3105
15516TIP3   OH268038   3.067   3.107  64.301 -0.5557 -0.1794  0.0065
15516TIP3    H168039   3.013   3.043  64.347 -0.8219  0.5813  0.7949
15516TIP3    H268040   3.083   3.175  64.367  0.4344  0.1440 -0.5578
15517TIP3   OH268041   1.551   0.748  59.932 -0.3686  0.3888  0.2973
15517TIP3    H168042   1.538   0.798  59.851  0.7894  0.7950  0.3404
15517TIP3    H268043   1.578   0.814  59.997  1.3346 -0.2689  0.3234
15518TIP3   OH268044   0.329   1.817   7.965  0.1641 -0.5320  0.1351
15518TIP3    H168045   0.286   1.902   7.978 -0.9709 -0.7716 -1.6600
15518TIP3    H268046   0.268   1.768   7.910  2.1967 -1.3716 -1.4910
15519TIP3   OH268047   1.808   2.812  59.796 -0.1769  0.0704  0.2966
15519TIP3    H168048   1.796   2.813  59.701 -1.6075  1.2460  0.4519
15519TIP3    H268049   1.901   2.831  59.809 -0.1330  0.7441 -0.8675
15520TIP3   OH268050   0.130   3.021  15.280 -0.4622  0.2626 -0.4134
15520TIP3    H168051   0.127   3.061  15.367 -0.3902  0.8051 -0.6559
15520TIP3    H268052   0.168   3.089  15.224  1.7217 -0.8774 -0.4333
15521TIP3   OH268053   1.513   1.342  49.539  0.2533 -0.1548  0.9763
15521TIP3    H168054   1.601   1.354  49.505 -0.9036  0.7924 -2.0776
15521TIP3    H268055   1.473   1.429  49.533 -1.2071 -0.7711  1.2061
15522TIP3   OH268056   2.646   1.361  65.103 -0.4903  0.0791  0.2390
15522TIP3    H168057   2.600   1.444  65.087 -0.4146 -0.1374 -1.2457
15522TIP3    H268058   2.578   1.301  65.132 -1.0729 -0.0496 -1.2883
15523TIP3   OH268059   2.331   3.357   9.264  0.2787  0.3382  0.3161
15523TIP3    H168060   2.355   3.301   9.337 -0.6587 -3.0390 -1.7549
15523TIP3    H268061   2.411   3.365   9.212  0.3595  0.7932  0.5033
15524TIP3   OH268062   3.358   1.072  64.348 -0.1843 -0.0728  0.1735
15524TIP3    H168063   3.366   1.062  64.253  0.1267 -2.2208  0.3738
15524TIP3    H268064   3.447   1.061  64.381 -0.4717 -0.6186  0.7877
15525TIP3   OH268065   1.490   3.221   0.282  0.3266  0.1622 -0.6498
15525TIP3    H168066   1.403   3.229   0.322 -0.1125 -1.5246 -1.1811
15525TIP3    H268067   1.550   3.257   0.347 -0.6712  0.3632  0.1860
15526TIP3   OH268068   0.067   1.281   9.803 -0.4287  0.6000  0.6627
15526TIP3    H168069   0.086   1.222   9.877 -0.4357  0.4594  0.5540
15526TIP3    H268070   0.006   1.345   9.838  1.6367  2.1764  1.5521
15527TIP3   OH268071   2.932   2.760  52.857 -0.1770  0.2403  0.4556
15527TIP3    H168072   3.022   2.745  52.888  0.0077  1.0596  0.3262
15527TIP3    H268073   2.898   2.828  52.914 -0.4868  0.4163  0.0574
15528TIP3   OH268074   1.277   2.102  64.895 -0.4886 -0.2842 -0.5766
15528TIP3    H168075   1.322   2.070  64.974  0.7985 -1.6571 -1.7973
15528TIP3    H268076   1.185   2.080  64.910 -0.2947 -0.3942  0.6086
15529TIP3   OH268077   0.459   2.705   3.153 -0.0475  0.6884 -0.0625
15529TIP3    H168078   0.432   2.723   3.242  1.5943  0.3798  0.5367
15529TIP3    H268079   0.548   2.670   3.161  0.0697  0.4673 -1.7970
15530TIP3   OH268080   2.908   3.414  66.218  0.6176 -0.5207  0.3104
15530TIP3    H168081   2.864   3.360  66.283  0.9486 -0.3494  0.6833
15530TIP3    H268082   2.837   3.448  66.163  0.1722  0.5464  1.4907
15531TIP3   OH268083   3.403   3.211  56.967  0.2209  0.3592 -0.1887
15531TIP3    H168084   3.469   3.277  56.945 -0.4774  0.3288 -2.8066
15531TIP3    H268085   3.325   3.261  56.992  0.2181  0.4922 -0.4595
15532TIP3   OH268086   2.378   2.669  58.116  0.3761 -0.0598  0.0856
15532TIP3    H168087   2.411   2.673  58.206  1.1673  1.1951 -0.2264
15532TIP3    H268088   2.391   2.577  58.090  2.1475  0.0164  0.5493
15533TIP3   OH268089   2.529   0.349  46.685  0.2844 -0.4221 -0.8502
15533TIP3    H168090   2.448   0.325  46.731 -0.1621  0.5656 -1.0869
15533TIP3    H268091   2.557   0.268  46.643  0.3432 -1.1952  0.5849
15534TIP3   OH268092   1.423   1.738   3.380  0.4404  0.5818 -0.1896
15534TIP3    H168093   1.509   1.723   3.420  1.2971 -1.0304 -2.4548
15534TIP3    H268094   1.429   1.697   3.294 -3.0192 -0.6806  0.0310
15535TIP3   OH268095   0.505   0.215   1.973  0.4137  0.1533  0.7964
15535TIP3    H168096   0.542   0.181   2.055  1.8785 -0.5544 -0.1213
15535TIP3    H268097   0.449   0.144   1.942 -0.4003  0.5501  1.3287
15536TIP3   OH268098   0.339   2.773   3.671  0.1816  0.6908  0.2585
15536TIP3    H168099   0.275   2.825   3.719 -0.1599  1.1878 -0.7045
15536TIP3    H268100   0.307   2.773   3.581  0.9173 -0.0397 -0.0169
15537TIP3   OH268101   2.816   1.143  20.510  0.2818  0.2467 -0.3469
15537TIP3    H168102   2.772   1.123  20.594  0.5412  1.4570  0.0954
15537TIP3    H268103   2.909   1.147  20.532  0.2719  1.5632 -0.4666
15538TIP3   OH268104   0.956   3.059  50.041  0.1687  0.6056  0.1137
15538TIP3    H168105   0.904   2.996  49.992  0.9139 -0.3777  0.5549
15538TIP3    H268106   0.899   3.135  50.050 -0.6755  0.0767 -0.5989
15539TIP3   OH268107   2.328   1.973  18.639 -0.4424 -0.4898 -0.2917
15539TIP3    H168108   2.285   2.045  18.592  0.6664 -1.2141 -2.6030
15539TIP3    H268109   2.409   1.958  18.590  0.2594 -2.0888  1.2447
15540TIP3   OH268110   0.378   2.914   1.827 -0.6501  0.0682  0.7875
15540TIP3    H168111   0.469   2.930   1.849 -0.8374  0.7574  1.0585
15540TIP3    H268112   0.352   2.989   1.774 -0.7056 -0.7238 -0.3457
15541TIP3   OH268113   3.301   3.228  12.929 -0.2386  0.8726  0.7098
15541TIP3    H168114   3.257   3.145  12.948  1.3309 -0.9572 -2.7551
15541TIP3    H268115   3.386   3.220  12.972  0.4536 -0.0278 -0.7397
15542TIP3   OH268116   0.824   0.197  12.604 -0.8428  0.3214 -0.6321
15542TIP3    H168117   0.836   0.257  12.530  0.5400  0.3702 -0.3918
15542TIP3    H268118   0.883   0.124  12.586  0.0685  0.6657  0.7357
15543TIP3   OH268119   1.545   3.079  52.510  0.1819  0.2203 -0.1984
15543TIP3    H168120   1.558   3.084  52.605 -0.5833 -1.4821  0.0239
15543TIP3    H268121   1.451   3.087  52.499  0.2673  0.3790 -0.8293
15544TIP3   OH268122   0.320   0.599  17.265  0.1056 -0.3711 -0.1047
15544TIP3    H168123   0.386   0.661  17.297  0.9226 -0.9169 -0.7106
15544TIP3    H268124   0.264   0.652  17.208  0.3373 -0.0188 -0.0118
15545TIP3   OH268125   0.972   0.289   8.217 -0.7288  0.1596  0.2418
15545TIP3    H168126   0.903   0.356   8.211 -1.0677 -0.1608  0.5239
15545TIP3    H268127   0.957   0.247   8.301 -1.7394 -1.5933 -0.7658
15546TIP3   OH268128   1.057   0.945  66.722  0.5844  0.0221 -0.7723
15546TIP3    H168129   1.137   0.954  66.775 -0.3808  0.5694  0.6412
15546TIP3    H268130   1.013   0.868  66.757  0.0166  0.2879 -0.8929
15547TIP3   OH268131   3.412   1.449  13.083  0.3926  0.6560  0.0479
15547TIP3    H168132   3.437   1.474  13.171  1.3139  0.0233 -0.0252
15547TIP3    H268133   3.453   1.364  13.069 -1.2720 -0.1272 -0.3132
15548TIP3   OH268134   2.430   0.692  13.205  0.0041  0.8938  0.2631
15548TIP3    H168135   2.467   0.708  13.118 -1.1417  0.5156 -0.3055
15548TIP3    H268136   2.500   0.645  13.251  0.4342  0.6207 -0.6227
15549TIP3   OH268137   3.425   3.148  51.966  0.3385  0.0266  0.2874
15549TIP3    H168138   3.358   3.211  51.991  0.8019  0.7563 -0.2577
15549TIP3    H268139   3.488   3.150  52.038  0.6144  0.5814  0.0379
15550TIP3   OH268140   0.741   2.172  52.618  0.0943 -0.0540  0.2730
15550TIP3    H168141   0.773   2.170  52.708  0.2807  1.7661  0.2833
15550TIP3    H268142   0.653   2.134  52.623  0.9194 -2.0035  0.8154
15551TIP3   OH268143   3.139   1.078   0.253  0.1847 -0.2318 -0.1880
15551TIP3    H168144   3.108   1.082   0.343  1.0522 -0.9957  0.1524
15551TIP3    H268145   3.095   1.002   0.216 -1.5182  1.0402 -0.9674
15552TIP3   OH268146   2.480   0.770  67.282 -0.0318 -0.1014  0.2293
15552TIP3    H168147   2.542   0.699  67.299  0.2507  0.3651  1.2188
15552TIP3    H268148   2.436   0.744  67.201  1.0018 -0.7537 -0.1480
15553TIP3   OH268149   2.603   3.383  52.216  0.6327  0.6086  0.3133
15553TIP3    H168150   2.691   3.345  52.221  0.2350 -0.5765 -0.9935
15553TIP3    H268151   2.545   3.314  52.250 -0.0225  0.3526 -1.2630
15554TIP3   OH268152   0.325   2.031  66.013 -0.4223 -0.0831  0.0908
15554TIP3    H168153   0.327   2.119  65.975 -0.4114 -1.0514 -2.3168
15554TIP3    H268154   0.235   2.001  65.998 -0.4035 -0.5407  0.8256
15555TIP3   OH268155   1.433   0.896  59.688  0.1417  0.5937 -0.1008
15555TIP3    H168156   1.437   0.885  59.593  1.1716  0.3928 -0.0493
15555TIP3    H268157   1.457   0.987  59.702 -2.0528  1.2379 -0.1304
15556TIP3   OH268158   1.757   0.624  26.706 -0.0598 -0.2710  0.3793
15556TIP3    H168159   1.711   0.589  26.629 -1.1069 -1.3349  1.4491
15556TIP3    H268160   1.698   0.690  26.741  1.0987  1.3262 -0.5690
15557TIP3   OH268161   1.432   3.414  36.766  0.3590 -0.5019  0.7095
15557TIP3    H168162   1.424   3.451  36.678 -0.7296 -0.8700  0.6306
15557TIP3    H268163   1.451   3.489  36.822  1.6594 -0.3433  0.0977
15558TIP3   OH268164   0.161   0.034  46.771 -0.3355  0.2038  0.0916
15558TIP3    H168165   0.184   0.096  46.702  0.8690 -0.3814 -0.0556
15558TIP3    H268166   0.245  -0.004  46.798 -1.0379 -1.2695  0.2676
15559TIP3   OH268167   2.934   2.037  51.609  0.2644 -0.1829  0.5483
15559TIP3    H168168   2.969   1.959  51.567 -0.0330  0.7268 -1.4771
15559TIP3    H268169   2.857   2.006  51.656 -0.6195 -0.9318 -1.3176
15560TIP3   OH268170   2.676   1.996   4.157 -0.3302 -0.0546  0.3890
15560TIP3    H168171   2.585   1.975   4.178 -0.8516 -1.6306 -2.8190
15560TIP3    H268172   2.709   1.918   4.113  2.3140  0.8276  0.6322
15561TIP3   OH268173   1.043   3.213  48.157  0.1061  0.7362  0.2400
15561TIP3    H168174   1.083   3.177  48.078  1.2187  1.0834  0.6217
15561TIP3    H268175   1.068   3.305  48.156 -0.0039  0.7747  0.9101
15562TIP3   OH268176   0.688   0.717   6.861  0.0061 -0.1875 -0.9016
15562TIP3    H168177   0.684   0.766   6.779 -0.8002  1.1494 -0.1015
15562TIP3    H268178   0.736   0.775   6.921 -0.2430 -0.7392 -0.1608
15563TIP3   OH268179   1.721   0.715  21.985 -0.2137 -0.1284  0.4225
15563TIP3    H168180   1.665   0.657  21.933 -0.0355  0.9999 -1.0828
15563TIP3    H268181   1.808   0.704  21.947  0.0918  0.0572  1.0597
15564TIP3   OH268182   2.618   0.213  15.328 -0.2653 -0.1507 -0.0051
15564TIP3    H168183   2.685   0.156  15.365 -0.6039 -1.1438 -0.8703
15564TIP3    H268184   2.545   0.210  15.390  0.2062  0.3789  0.5885
15565TIP3   OH268185   1.550   2.681  59.674  0.4090  0.3506  0.3931
15565TIP3    H168186   1.522   2.697  59.764 -0.0882  2.6157 -0.1052
15565TIP3    H268187   1.638   2.643  59.683 -0.1102 -0.6043  1.8217
15566TIP3   OH268188   0.379   2.498  45.723  0.5732 -0.1125  0.7096
15566TIP3    H168189   0.325   2.491  45.645 -0.9809  1.1902  1.6037
15566TIP3    H268190   0.325   2.462  45.794  1.2785  0.2850  1.4758
15567TIP3   OH268191   2.919   2.502  54.729 -0.0944 -0.3895  0.0639
15567TIP3    H168192   2.953   2.583  54.690  0.2693 -0.9363 -0.8027
15567TIP3    H268193   2.874   2.458  54.656 -1.0745 -0.5521  0.7464
15568TIP3   OH268194   1.546   1.672   3.748  0.2109 -0.1561 -0.5434
15568TIP3    H168195   1.562   1.764   3.770 -0.6925 -0.1047 -0.0603
15568TIP3    H268196   1.610   1.624   3.800 -1.0391  0.0545  1.2861
15569TIP3   OH268197   2.184   2.238   4.971 -0.0372 -0.1710 -0.0581
15569TIP3    H168198   2.253   2.178   4.998  1.0094  1.1832  0.4213
15569TIP3    H268199   2.231   2.310   4.929 -1.0522  1.2577  1.1429
15570TIP3   OH268200   2.898   1.488   7.933 -0.4117 -0.5345 -0.1253
15570TIP3    H168201   2.911   1.429   7.858 -0.7735  0.3854 -0.9262
15570TIP3    H268202   2.828   1.447   7.984 -0.6642 -0.7997 -0.6812
15571TIP3   OH268203   1.731   2.220  52.717  0.3740  0.1726  0.4164
15571TIP3    H168204   1.635   2.225  52.708  0.2484  0.6433  1.7508
15571TIP3    H268205   1.745   2.215  52.811  1.7799  2.9016  0.4168
15572TIP3   OH268206   3.252   2.836  15.989 -0.1274  0.7035  0.2386
15572TIP3    H168207   3.176   2.828  16.046  0.1146  0.1208  0.4940
15572TIP3    H268208   3.304   2.758  16.009  0.2591  0.8133 -0.3362
15573TIP3   OH268209   0.772   2.706  46.923 -0.1038  0.1368 -0.3833
15573TIP3    H168210   0.830   2.770  46.963 -0.5192  1.7571 -2.2255
15573TIP3    H268211   0.831   2.634  46.897  0.6034  0.4187  0.3936
15574TIP3   OH268212   3.211   0.670  60.855  0.3727  0.0341  0.3124
15574TIP3    H168213   3.224   0.763  60.874 -1.3879 -0.1372  2.7644
15574TIP3    H268214   3.188   0.631  60.939 -2.9831 -1.8582 -1.2809
15575TIP3   OH268215   1.079   3.369  55.607  0.2586 -0.1445 -0.2052
15575TIP3    H168216   0.983   3.371  55.612  0.1754 -1.2332 -1.0326
15575TIP3    H268217   1.098   3.359  55.514  1.2094  0.7296 -0.1231
15576TIP3   OH268218   1.485   1.466  57.874  0.2610  0.3684  0.0279
15576TIP3    H168219   1.415   1.525  57.846 -0.0414 -0.9444 -2.1354
15576TIP3    H268220   1.565   1.505  57.837 -0.0654 -1.0375 -2.3507
15577TIP3   OH268221   1.336   0.064   7.663 -0.0743 -0.4502  0.6426
15577TIP3    H168222   1.347   0.131   7.596 -1.8802  1.0284  1.7418
15577TIP3    H268223   1.346  -0.019   7.616 -0.7663  0.5386 -1.3509
15578TIP3   OH268224   0.155   0.144  29.650  0.1414  0.5759 -0.3887
15578TIP3    H168225   0.151   0.146  29.746  1.9158 -0.3890 -0.2637
15578TIP3    H268226   0.066   0.121  29.623 -0.4361  1.0585  1.0082
15579TIP3   OH268227   3.190   2.956  45.073  0.4286  0.1290  0.1925
15579TIP3    H168228   3.212   2.872  45.115 -0.3105  0.7284  1.8382
15579TIP3    H268229   3.160   3.012  45.145 -3.4610  0.3944 -1.4202
15580TIP3   OH268230   0.559   0.255  13.890 -0.3251 -0.0920  0.4882
15580TIP3    H168231   0.480   0.213  13.857  0.3330  0.2658 -1.7514
15580TIP3    H268232   0.629   0.191  13.875  0.6212  1.4593 -2.6213
15581TIP3   OH268233   1.472   2.658  60.968  0.6557 -0.2135 -0.1393
15581TIP3    H168234   1.487   2.610  61.050 -2.0712  1.0077  1.1910
15581TIP3    H268235   1.493   2.595  60.899  4.0243 -1.0015  1.3538
15582TIP3   OH268236   0.216   3.186  13.435  0.0531  0.5689 -0.1935
15582TIP3    H168237   0.159   3.198  13.359  0.8322  0.6572 -0.7733
15582TIP3    H268238   0.298   3.229  13.411  0.7352 -0.4633  0.1922
15583TIP3   OH268239   1.006   0.394  56.634 -0.1655 -0.1495 -0.0829
15583TIP3    H168240   1.067   0.377  56.562 -0.6260  1.4283 -0.8962
15583TIP3    H268241   0.931   0.435  56.593 -0.7674  0.1114  1.2138
15584TIP3   OH268242   2.619   1.446  43.566 -0.5948 -0.4463  0.3591
15584TIP3    H168243   2.667   1.524  43.539  0.3065 -0.1599  2.5528
15584TIP3    H268244   2.680   1.374  43.552 -0.5449 -0.4444  0.5662
15585TIP3   OH268245   3.252   3.110  54.209 -0.2158 -0.1261 -0.0405
15585TIP3    H168246   3.209   3.133  54.127  0.4960  1.7925  0.0671
15585TIP3    H268247   3.180   3.094  54.270 -0.7573 -2.0439 -1.1179
15586TIP3   OH268248   1.538   1.123  17.736  0.5737 -0.5502  0.3935
15586TIP3    H168249   1.500   1.180  17.804 -0.3178 -1.4511  0.6774
15586TIP3    H268250   1.511   1.164  17.654  0.1907 -0.3876  0.5933
15587TIP3   OH268251   1.746   0.352  48.169  0.2555 -0.4798  0.1290
15587TIP3    H168252   1.839   0.354  48.146  0.3411 -2.5884  0.1140
15587TIP3    H268253   1.741   0.392  48.255  0.8740  1.3774 -0.6401
15588TIP3   OH268254   1.857   0.327  46.418 -0.3097  0.3439  0.0039
15588TIP3    H168255   1.866   0.238  46.383 -0.7013  0.3446 -0.1101
15588TIP3    H268256   1.900   0.383  46.354  0.8712  0.1419  0.6057
15589TIP3   OH268257   1.520   3.424  38.113  0.6121 -0.3099 -0.1084
15589TIP3    H168258   1.541   3.517  38.124  1.2323 -0.6601  2.1425
15589TIP3    H268259   1.604   3.381  38.102  0.3036 -0.6178 -1.5706
15590TIP3   OH268260   1.108   0.441  18.450  0.1064  0.1185  0.4694
15590TIP3    H168261   1.157   0.513  18.489 -0.8093 -0.1811  2.2699
15590TIP3    H268262   1.072   0.393  18.525 -0.9455 -1.0557 -0.7385
15591TIP3   OH268263   2.184   3.277  45.456 -0.2533  0.7980 -0.8424
15591TIP3    H168264   2.141   3.361  45.446 -2.0902 -0.0458 -0.3817
15591TIP3    H268265   2.135   3.232  45.525  0.0588 -1.0123 -1.7217
15592TIP3   OH268266   1.281   2.132  45.544  0.4499 -0.0749 -0.3441
15592TIP3    H168267   1.229   2.056  45.568 -1.0194  0.9726 -0.0910
15592TIP3    H268268   1.219   2.192  45.503  0.5229  2.8129  3.2843
15593TIP3   OH268269   0.191   1.313   0.244 -0.4929  0.0865 -0.8612
15593TIP3    H168270   0.117   1.372   0.230 -1.6576 -1.2653 -0.6844
15593TIP3    H268271   0.217   1.328   0.335 -0.5358  0.5988 -0.9338
15594TIP3   OH268272   0.980   2.168  49.712  0.5585  0.3741 -0.5804
15594TIP3    H168273   1.049   2.233  49.699  1.0868 -0.2223 -0.8456
15594TIP3    H268274   0.979   2.118  49.631 -0.0604  0.2557 -0.5047
15595TIP3   OH268275   0.299   2.041  66.679  0.2144  0.9424 -0.1157
15595TIP3    H168276   0.352   1.962  66.690 -0.4794  0.6132  0.9922
15595TIP3    H268277   0.252   2.026  66.597 -0.0308  0.1216  0.1641
15596TIP3   OH268278   2.885   1.790  25.916 -0.1866  0.6225  0.5936
15596TIP3    H168279   2.820   1.838  25.865 -0.9242 -0.8272  0.0883
15596TIP3    H268280   2.939   1.857  25.957 -0.0707  1.8758 -1.4656
15597TIP3   OH268281   0.776   1.200   2.361  0.5609  0.0768  0.1186
15597TIP3    H168282   0.689   1.217   2.395  0.9966  3.0234 -0.0394
15597TIP3    H268283   0.768   1.209   2.266  1.0905  0.7151  0.1289
15598TIP3   OH268284   0.595   1.731  66.253  0.2835 -0.1204  0.2024
15598TIP3    H168285   0.612   1.776  66.170 -0.4427 -1.4636 -0.7214
15598TIP3    H268286   0.669   1.754  66.309  2.8373 -2.1108 -2.0788
15599TIP3   OH268287   0.117   3.135  18.223  0.0924 -0.2742 -0.0880
15599TIP3    H168288   0.199   3.142  18.272  1.1875 -2.9863 -1.3402
15599TIP3    H268289   0.138   3.165  18.135 -0.6750  0.3217 -0.0830
15600TIP3   OH268290   0.756   2.017  60.736 -0.3619 -0.0389 -0.0240
15600TIP3    H168291   0.772   2.055  60.822 -0.4632  1.3994 -0.6217
15600TIP3    H268292   0.666   1.985  60.741 -0.7722  1.0879  0.0405
15601TIP3   OH268293   0.766   2.642  17.075 -0.0722 -0.0240 -0.2811
15601TIP3    H168294   0.718   2.724  17.085 -0.5917 -0.2890 -0.5199
15601TIP3    H268295   0.811   2.651  16.991 -1.3419 -0.5607 -1.0596
15602TIP3   OH268296   2.831   1.762   2.711 -0.0204 -0.5940 -0.2425
15602TIP3    H168297   2.818   1.708   2.633  0.9579  0.6210 -1.3021
15602TIP3    H268298   2.816   1.852   2.680  0.9763 -0.0408  0.8005
15603TIP3   OH268299   1.180   1.289  35.158 -0.0172 -0.2220  0.3056
15603TIP3    H168300   1.268   1.259  35.178  0.5361  0.1541 -1.4058
15603TIP3    H268301   1.186   1.384  35.160 -0.4690 -0.1954  0.5257
15604TIP3   OH268302   2.630   3.405  17.257  0.4532  0.1250  0.4209
15604TIP3    H168303   2.679   3.385  17.337 -0.1279 -0.7640  0.5723
15604TIP3    H268304   2.567   3.471  17.285 -3.2081 -3.6139  2.1278
15605TIP3   OH268305   3.335   2.606  45.480 -0.0117  0.3984  0.0690
15605TIP3    H168306   3.374   2.661  45.548  0.3901  0.1013  0.0808
15605TIP3    H268307   3.398   2.608  45.408 -1.0247  1.7822 -0.8504
15606TIP3   OH268308   1.714   3.283  20.495 -0.2813  0.1801 -0.3689
15606TIP3    H168309   1.744   3.333  20.571 -0.1862 -0.5658  0.1030
15606TIP3    H268310   1.619   3.292  20.497 -0.3214 -0.2919  0.1791
15607TIP3   OH268311   0.413   3.039  11.812 -0.4280 -0.8343 -1.0004
15607TIP3    H168312   0.333   3.016  11.859 -0.2701  1.8471  0.8119
15607TIP3    H268313   0.383   3.060  11.723 -1.8121  0.1941 -0.3406
15608TIP3   OH268314   0.818   1.585  44.636 -0.7903 -0.0625 -0.5108
15608TIP3    H168315   0.849   1.638  44.563 -1.2206  1.8263  0.6158
15608TIP3    H268316   0.894   1.535  44.663  0.0903  1.1640 -0.6308
15609TIP3   OH268317   2.435   0.988  65.669 -0.2368 -0.4916 -0.3903
15609TIP3    H168318   2.503   1.055  65.670 -0.4907 -0.1622  2.2680
15609TIP3    H268319   2.438   0.951  65.580 -0.7296  3.5889 -2.3101
15610TIP3   OH268320   1.667   1.140   3.197 -0.1531  0.0965  0.3964
15610TIP3    H168321   1.743   1.198   3.201  0.8924 -1.2545  1.0726
15610TIP3    H268322   1.667   1.096   3.282 -0.9293 -0.8896 -0.1007
15611TIP3   OH268323   2.214   1.774  60.451 -0.0820 -0.3194 -0.3308
15611TIP3    H168324   2.265   1.693  60.450 -0.8619 -0.8394  0.2573
15611TIP3    H268325   2.272   1.839  60.491  0.4500 -0.6571 -0.5436
15612TIP3   OH268326   1.189   1.612  20.267 -0.0395  0.2483  0.3171
15612TIP3    H168327   1.169   1.581  20.356  0.3312 -0.0285  0.3073
15612TIP3    H268328   1.211   1.532  20.219 -1.8009  0.1685 -0.4618
15613TIP3   OH268329   0.529   0.558  22.124 -0.2859 -0.7494 -0.1235
15613TIP3    H168330   0.450   0.593  22.167  0.0630  1.4965 -1.1820
15613TIP3    H268331   0.596   0.562  22.192 -0.2596  0.7223 -0.2067
15614TIP3   OH268332   0.432   0.399  51.184 -0.3403  0.0638 -0.6672
15614TIP3    H168333   0.502   0.356  51.134 -0.1696  0.5065 -0.8114
15614TIP3    H268334   0.422   0.345  51.262 -1.3200 -1.2620 -1.6368
15615TIP3   OH268335   0.208   2.815  18.337  0.4865 -0.4712  0.3876
15615TIP3    H168336   0.301   2.810  18.313 -0.1960  0.7459 -3.0053
15615TIP3    H268337   0.199   2.901  18.379  0.3029  1.4004 -3.1312
15616TIP3   OH268338   2.142   0.915   7.675 -0.1751  0.0091 -0.1348
15616TIP3    H168339   2.054   0.898   7.639 -0.3293  1.4705 -0.5008
15616TIP3    H268340   2.201   0.872   7.613 -0.6437 -2.1997  0.8479
15617TIP3   OH268341   0.134   0.755  62.913 -0.4041 -0.0157 -0.4029
15617TIP3    H168342   0.166   0.673  62.874 -1.3886  0.3307 -2.0372
15617TIP3    H268343   0.064   0.783  62.855 -1.8848  0.6430  1.5646
15618TIP3   OH268344   0.047   0.844  45.074 -0.0282  0.1024 -0.4615
15618TIP3    H168345  -0.007   0.863  45.151  2.6557 -1.4997  2.0182
15618TIP3    H268346   0.027   0.752  45.054  0.3847  0.0734 -0.7380
15619TIP3   OH268347   1.392   3.309  59.488  0.0574 -0.3181 -0.1120
15619TIP3    H168348   1.480   3.339  59.514 -0.2778  1.5785 -0.9485
15619TIP3    H268349   1.404   3.276  59.399  0.0461 -0.7269  0.0368
15620TIP3   OH268350   1.631   1.937   7.132  0.2277  0.5241  0.5620
15620TIP3    H168351   1.568   1.874   7.096 -0.8091  2.1161 -0.4878
15620TIP3    H268352   1.697   1.945   7.064  3.0183 -2.8505  2.5080
15621TIP3   OH268353   3.303   2.076  17.195 -0.0641  0.4631  0.1247
15621TIP3    H168354   3.316   2.091  17.102 -1.7643  0.8328 -0.0846
15621TIP3    H268355   3.304   2.163  17.235  1.2667  0.2692  0.5657
15622TIP3   OH268356   1.912   0.481  56.132 -0.0332 -0.1610  0.6113
15622TIP3    H168357   1.968   0.515  56.201 -0.6923 -1.4760  1.8615
15622TIP3    H268358   1.931   0.387  56.131 -0.1644 -0.1929 -0.9007
15623TIP3   OH268359   2.263   3.064  21.923  0.8294 -0.1379 -0.2225
15623TIP3    H168360   2.184   3.082  21.873  0.8600 -0.8435 -0.5519
15623TIP3    H268361   2.234   3.058  22.014  0.2720 -1.5903 -0.4658
15624TIP3   OH268362   1.081   3.175   8.315 -0.6962 -1.3843 -0.3046
15624TIP3    H168363   1.042   3.164   8.228  2.7822 -1.0458 -2.0764
15624TIP3    H268364   1.077   3.269   8.331  2.7539 -0.6917 -2.4260
15625TIP3   OH268365   1.810   2.928  61.441  0.2099  0.2127  0.5019
15625TIP3    H168366   1.894   2.893  61.411  0.0689  0.5906 -0.3753
15625TIP3    H268367   1.802   3.012  61.395 -1.2136 -0.3857 -0.4137
15626TIP3   OH268368   0.861   1.076   2.097  0.2885 -0.1073  0.8455
15626TIP3    H168369   0.909   1.158   2.109 -2.4199  1.4871  1.6997
15626TIP3    H268370   0.894   1.018   2.165  0.1724  1.3790  2.2402
15627TIP3   OH268371   0.602   3.424  16.108  0.3587  0.4942  0.4282
15627TIP3    H168372   0.603   3.405  16.014  0.8175  0.9404  0.3420
15627TIP3    H268373   0.691   3.406  16.138 -0.1766 -1.2448  1.1169
15628TIP3   OH268374   1.716   3.050  60.951 -0.1270  0.1282  0.4460
15628TIP3    H168375   1.753   3.024  61.035 -0.0150 -0.8643  0.1052
15628TIP3    H268376   1.643   3.108  60.973 -0.4008 -0.5063  1.2477
15629TIP3   OH268377   1.377   2.780  52.739  0.0776 -0.2242  0.4707
15629TIP3    H168378   1.424   2.811  52.662  0.0837  1.7671  1.2134
15629TIP3    H268379   1.439   2.792  52.811  0.1646 -2.2936  0.7808
15630TIP3   OH268380   2.042   0.114  21.195  0.4569  0.3762 -0.0477
15630TIP3    H168381   2.111   0.176  21.219  1.4112 -0.4070 -0.7215
15630TIP3    H268382   1.965   0.145  21.244  0.9706  1.9169 -0.1474
15631TIP3   OH268383   3.212   0.815   5.194 -0.1361 -0.3045 -0.0259
15631TIP3    H168384   3.241   0.810   5.285 -1.1072  0.9595  0.3910
15631TIP3    H268385   3.167   0.732   5.178 -0.4130 -0.3286  0.8225
15632TIP3   OH268386   1.986   0.312  49.470 -0.1282 -0.0810 -0.1403
15632TIP3    H168387   2.041   0.286  49.544 -0.1418  0.3502  0.0228
15632TIP3    H268388   2.025   0.268  49.395  2.0641  2.2635 -0.5020
15633TIP3   OH268389   2.442   2.707  22.611 -0.5549  0.5164 -0.5850
15633TIP3    H168390   2.443   2.664  22.696  0.9754 -1.5949 -1.5667
15633TIP3    H268391   2.379   2.656  22.559 -0.0589  0.5689 -1.2514
15634TIP3   OH268392   1.754   1.306   2.176  0.5290 -0.0780  0.3178
15634TIP3    H168393   1.739   1.298   2.270 -2.8805  1.3159  0.0771
15634TIP3    H268394   1.728   1.221   2.140  0.4755 -0.1615  0.5499
15635TIP3   OH268395   2.782   0.517  48.904 -0.3031  0.1859  0.1408
15635TIP3    H168396   2.738   0.558  48.829  2.5093  2.3366 -0.5323
15635TIP3    H268397   2.712   0.486  48.960 -2.5771  1.3278 -1.9016
15636TIP3   OH268398   2.928   1.553  18.001  0.4539  0.1294  0.8038
15636TIP3    H168399   3.023   1.546  17.986  0.1771 -2.4477 -0.3835
15636TIP3    H268400   2.912   1.492  18.073 -0.4409 -0.4132  0.1586
15637TIP3   OH268401   2.262   3.237  11.896 -0.2951  0.1964  0.4642
15637TIP3    H168402   2.220   3.156  11.866  0.5716  0.7657 -2.5874
15637TIP3    H268403   2.352   3.211  11.916 -0.7332 -0.0768  2.1958
15638TIP3   OH268404   1.477   3.160  65.541 -0.6306  0.4127 -0.4485
15638TIP3    H168405   1.467   3.067  65.521  0.4171  0.2100 -0.1121
15638TIP3    H268406   1.395   3.199  65.514 -1.8520 -0.8923  1.1277
15639TIP3   OH268407   1.393   2.930   8.032  0.0242 -0.1979 -0.0644
15639TIP3    H168408   1.356   2.950   8.118  1.1699  1.0786  0.1615
15639TIP3    H268409   1.406   2.835   8.034  1.5227 -0.0369  1.8349
15640TIP3   OH268410   0.109   0.523  64.123 -0.1311 -0.2226 -0.2100
15640TIP3    H168411   0.202   0.540  64.110 -0.3168  1.9105  0.9523
15640TIP3    H268412   0.104   0.428  64.138  1.8581 -0.3534 -0.1141
15641TIP3   OH268413   1.193   1.197  65.222  0.1056  0.1086 -0.5733
15641TIP3    H168414   1.118   1.254  65.206  0.6955  0.8851 -0.6263
15641TIP3    H268415   1.261   1.230  65.164  0.3734 -0.8480 -0.8254
15642TIP3   OH268416   1.312   0.163  22.036 -0.0000 -0.1213  0.2470
15642TIP3    H168417   1.252   0.230  22.002  1.9095  0.3387 -2.6480
15642TIP3    H268418   1.393   0.211  22.056  0.9171 -1.3028 -0.4737
15643TIP3   OH268419   0.891   3.350  11.753 -0.0153 -0.0845 -0.4163
15643TIP3    H168420   0.808   3.306  11.771 -0.8760  2.0429  1.2596
15643TIP3    H268421   0.954   3.307  11.809 -0.2076 -0.9524 -0.8398
15644TIP3   OH268422   2.874   1.324  54.915  0.1993  0.2735 -0.9041
15644TIP3    H168423   2.955   1.283  54.883 -0.0172 -0.7385 -0.2149
15644TIP3    H268424   2.848   1.384  54.845  1.7064  0.8550 -1.0071
15645TIP3   OH268425   0.717   1.243  37.382  0.0039 -0.0912  0.4173
15645TIP3    H168426   0.651   1.311  37.387  0.6177  0.4989  0.6324
15645TIP3    H268427   0.709   1.209  37.293 -1.2915 -0.7612  0.7722
15646TIP3   OH268428   2.212   2.466  60.439  0.2274  0.0422  0.3099
15646TIP3    H168429   2.238   2.502  60.354 -0.5327 -0.0549  0.0250
15646TIP3    H268430   2.246   2.529  60.503 -2.3828  2.2269 -0.2285
15647TIP3   OH268431   2.067   2.765  53.757 -0.5968  0.5666 -0.3666
15647TIP3    H168432   2.068   2.679  53.799 -0.7915  0.8595  0.2464
15647TIP3    H268433   1.976   2.792  53.759 -0.8601 -0.0364 -2.2860
15648TIP3   OH268434   0.856   2.598   6.734  0.5689  0.0610 -0.5218
15648TIP3    H168435   0.887   2.532   6.796  0.4983  0.3276 -0.1958
15648TIP3    H268436   0.910   2.587   6.657 -0.4410 -1.3992 -1.0624
15649TIP3   OH268437   2.142   2.114  13.556 -0.0384  0.3239  0.4048
15649TIP3    H168438   2.232   2.082  13.566 -0.1758  0.1999  1.4483
15649TIP3    H268439   2.087   2.037  13.575 -0.3830  0.1240 -1.2540
15650TIP3   OH268440   1.652   2.316   9.728 -0.5607  0.1123  0.2360
15650TIP3    H168441   1.583   2.252   9.750 -0.1942 -0.3377  0.0864
15650TIP3    H268442   1.717   2.265   9.681 -0.4053  0.6676 -0.1527
15651TIP3   OH268443   0.107   1.586  54.105  0.6625 -0.0727  0.2777
15651TIP3    H168444   0.092   1.620  54.017 -0.1287 -0.5732  0.2209
15651TIP3    H268445   0.148   1.501  54.092 -0.8730 -0.8520  0.3487
15652TIP3   OH268446   3.111   1.409  11.306 -0.8546  0.1403  0.0366
15652TIP3    H168447   3.164   1.429  11.229 -0.0401 -0.3829  0.4426
15652TIP3    H268448   3.098   1.314  11.303  0.3321 -0.0849  1.2420
15653TIP3   OH268449   0.561   3.303  18.457 -0.0959 -0.3169 -0.3624
15653TIP3    H168450   0.548   3.386  18.413  1.0822  0.5364  0.8096
15653TIP3    H268451   0.576   3.240  18.387  1.0429  0.8649 -1.2143
15654TIP3   OH268452   2.571   1.198  55.407 -0.3724  0.2181 -0.2687
15654TIP3    H168453   2.526   1.245  55.478 -1.3985  0.6523 -1.1759
15654TIP3    H268454   2.631   1.139  55.452  0.8843  2.2860  0.9176
15655TIP3   OH268455   1.808   1.583   2.442 -0.2370 -0.1120 -0.5138
15655TIP3    H168456   1.730   1.529   2.433 -0.7257  0.9033 -3.2697
15655TIP3    H268457   1.881   1.525   2.423 -0.3066 -0.9051  1.4270
15656TIP3   OH268458   2.191   2.163  45.606  0.6092  0.2058  0.5258
15656TIP3    H168459   2.199   2.152  45.701 -1.0327  1.9730  0.9316
15656TIP3    H268460   2.108   2.209  45.594  0.3358 -0.7407 -1.8571
15657TIP3   OH268461   2.183   2.993   7.041 -0.6525  0.5577  0.0302
15657TIP3    H168462   2.236   2.972   7.118 -0.6101 -0.8799 -0.3611
15657TIP3    H268463   2.094   2.963   7.064 -0.7923  0.7901 -0.2034
15658TIP3   OH268464   1.479   0.243  17.042  0.3620  0.3470  0.3250
15658TIP3    H168465   1.478   0.155  17.003 -0.7252 -0.3619  1.8641
15658TIP3    H268466   1.545   0.290  16.991  0.0015 -0.9349 -1.4476
15659TIP3   OH268467   0.911   1.057   4.573  0.0880 -0.1788 -0.0294
15659TIP3    H168468   0.937   1.125   4.511 -0.3986  0.4962  0.4878
15659TIP3    H268469   0.989   1.041   4.625  0.0743  0.3592  0.1714
15660TIP3   OH268470   1.943   0.259  63.766  0.3251 -0.0567 -0.3839
15660TIP3    H168471   1.966   0.180  63.717 -1.3783 -0.6191 -0.3400
15660TIP3    H268472   1.875   0.301  63.713 -0.2594  0.2753  0.5937
15661TIP3   OH268473   0.900   1.115  52.697  0.7948 -0.3523  0.2616
15661TIP3    H168474   0.900   1.207  52.724  1.7241  0.4868 -2.2846
15661TIP3    H268475   0.979   1.106  52.643 -0.4267 -2.0534 -1.3480
15662TIP3   OH268476   0.329   0.682  10.100 -0.5203 -0.1766  0.2992
15662TIP3    H168477   0.411   0.696  10.053 -0.7306  0.5277  0.1395
15662TIP3    H268478   0.265   0.663  10.032 -0.3728 -1.3476  0.4650
15663TIP3   OH268479   1.268   1.514  55.514  0.0941  0.3067 -0.5428
15663TIP3    H168480   1.176   1.535  55.527  0.4055  1.4645 -0.0265
15663TIP3    H268481   1.278   1.506  55.419 -0.6830 -0.5846 -0.5505
15664TIP3   OH268482   2.950   0.818  13.914 -0.3070 -0.3644 -0.3788
15664TIP3    H168483   2.941   0.846  13.823  2.0491  3.3632  0.3223
15664TIP3    H268484   3.036   0.775  13.918 -1.2485 -2.3720 -0.1774
15665TIP3   OH268485   1.157   0.106  35.774 -0.8087 -0.5126 -0.2285
15665TIP3    H168486   1.222   0.087  35.707  1.0014  0.5174  1.1259
15665TIP3    H268487   1.138   0.021  35.814  0.2631 -0.7493 -0.1929
15666TIP3   OH268488   0.925   1.441  16.084  0.3157  0.0695  0.4324
15666TIP3    H168489   0.909   1.353  16.119  0.6963 -0.8628 -1.5821
15666TIP3    H268490   0.854   1.494  16.119 -2.4832 -2.0276 -1.5992
15667TIP3   OH268491   2.410   3.114   0.324 -0.8683 -0.2048  0.1904
15667TIP3    H168492   2.484   3.058   0.298 -1.5799 -1.4086  0.6637
15667TIP3    H268493   2.333   3.069   0.290 -1.4882  0.2858  0.9180
15668TIP3   OH268494   1.185   0.524  12.778  0.2577  0.4999  0.3043
15668TIP3    H168495   1.197   0.595  12.715  0.1877 -0.1241 -0.4190
15668TIP3    H268496   1.200   0.444  12.728 -2.2211 -0.1408  0.4205
15669TIP3   OH268497   1.915   2.280  17.155 -0.7983 -0.0288 -0.1034
15669TIP3    H168498   1.968   2.357  17.173 -0.2406 -0.7421  1.4069
15669TIP3    H268499   1.872   2.260  17.238 -0.8513 -1.3994 -0.4360
15670TIP3   OH268500   1.484   2.347  22.243  0.4178  0.4038 -0.3272
15670TIP3    H168501   1.536   2.277  22.202 -0.8801 -0.1958 -0.9879
15670TIP3    H268502   1.431   2.382  22.171  0.3720  1.4669  0.2024
15671TIP3   OH268503   2.466   1.244  46.439  0.3873  0.0623 -0.4770
15671TIP3    H168504   2.473   1.150  46.420  1.7178 -0.0417  0.4093
15671TIP3    H268505   2.491   1.286  46.357  0.8350 -0.3560 -0.5596
15672TIP3   OH268506   1.353   0.592  57.793 -0.0352  0.1449  0.3614
15672TIP3    H168507   1.356   0.608  57.699 -1.9009 -0.5185  0.1460
15672TIP3    H268508   1.419   0.651  57.830  0.9139  0.2192 -1.3690
15673TIP3   OH268509   0.094   0.942  49.444  0.1469  0.3044 -0.1320
15673TIP3    H168510   0.005   0.977  49.450  0.8591  1.9998  2.6110
15673TIP3    H268511   0.139   0.979  49.520  3.3969  0.0436 -1.7474
15674TIP3   OH268512   1.614   2.846  48.481  0.0035 -0.2823  0.0695
15674TIP3    H168513   1.567   2.923  48.514  1.1983  0.5534 -0.0941
15674TIP3    H268514   1.545   2.789  48.447 -0.8560  1.2111 -0.8266
15675TIP3   OH268515   1.622   3.069   7.764 -0.1281  0.2662 -0.6861
15675TIP3    H168516   1.638   2.978   7.740  1.6425  0.1112  0.8462
15675TIP3    H268517   1.619   3.116   7.681  4.1321 -0.4459 -1.4687
15676TIP3   OH268518   1.811   0.046  20.860  0.3861  0.3452 -0.0346
15676TIP3    H168519   1.789   0.100  20.784  2.1202  0.7863 -0.2626
15676TIP3    H268520   1.755  -0.031  20.852  0.4624  0.4356 -1.7095
15677TIP3   OH268521   0.865   0.765  59.544  0.3322 -0.2833  0.3706
15677TIP3    H168522   0.827   0.733  59.462  0.5338 -1.2393  0.6333
15677TIP3    H268523   0.938   0.705  59.561 -1.3513 -1.8320  2.6429
15678TIP3   OH268524   1.558   0.180  54.422  0.4914 -0.5214  0.4448
15678TIP3    H168525   1.537   0.131  54.501  0.1289  0.6916  1.1248
15678TIP3    H268526   1.635   0.232  54.445 -0.8075  1.3808  0.7093
15679TIP3   OH268527   0.175   2.926   9.383  0.1304 -0.5004 -0.4817
15679TIP3    H168528   0.116   2.853   9.366  0.0853 -0.5041 -0.3116
15679TIP3    H268529   0.237   2.893   9.449  0.6811 -0.6862 -1.0843
15680TIP3   OH268530   2.612   0.415  57.523 -0.0963  0.6191  0.1264
15680TIP3    H168531   2.520   0.411  57.549  0.0826  1.0550  0.8638
15680TIP3    H268532   2.659   0.439  57.603  0.4328  2.5666 -0.7035
15681TIP3   OH268533   0.371   1.519  49.166 -0.0127 -0.2956 -0.0107
15681TIP3    H168534   0.399   1.429  49.154 -2.1561 -0.8918 -1.0976
15681TIP3    H268535   0.400   1.564  49.087  1.8751  0.2573  0.9363
15682TIP3   OH268536   1.522   2.389   4.366  0.2114  0.0347 -0.0812
15682TIP3    H168537   1.462   2.429   4.429 -0.8994  1.1992 -1.7872
15682TIP3    H268538   1.598   2.446   4.364 -0.2918  0.7006 -0.6772
15683TIP3   OH268539   3.038   1.304  14.642  0.1774  0.8619  0.5719
15683TIP3    H168540   3.072   1.314  14.553  0.3486 -1.2043  0.3513
15683TIP3    H268541   3.091   1.233  14.679 -2.0476 -0.5719  1.1593
15684TIP3   OH268542   0.261   1.636  28.974  0.1967 -0.5171 -0.0128
15684TIP3    H168543   0.180   1.586  28.968  0.2582 -0.6527  0.2944
15684TIP3    H268544   0.274   1.651  29.068  0.9552 -1.1894 -0.0000
15685TIP3   OH268545   2.449   0.083  26.973 -0.1224 -1.1862 -0.1818
15685TIP3    H168546   2.427   0.174  26.993  1.9569 -0.6497 -0.0813
15685TIP3    H268547   2.506   0.089  26.896  1.2262 -2.2749  0.7021
15686TIP3   OH268548   2.006   1.719  62.459  0.1851  0.1762 -0.7968
15686TIP3    H168549   2.078   1.656  62.461  1.2877  1.3401 -2.0074
15686TIP3    H268550   2.007   1.759  62.546 -0.4452 -1.3234 -0.0585
15687TIP3   OH268551   2.824   0.476  57.338  0.0435 -0.2902  0.4521
15687TIP3    H168552   2.845   0.565  57.366 -0.4795  0.3705 -1.1529
15687TIP3    H268553   2.764   0.443  57.406 -1.4275  1.3544  0.0099
15688TIP3   OH268554   1.346   3.365   3.353  1.0277  0.2917 -0.1604
15688TIP3    H168555   1.252   3.361   3.334  0.3111  2.8779  2.1625
15688TIP3    H268556   1.365   3.283   3.399 -0.6186  0.6049  1.1577
15689TIP3   OH268557   2.276   3.166  66.551 -0.7326  0.4683  0.2839
15689TIP3    H168558   2.347   3.177  66.615 -1.1623  1.8242  0.5773
15689TIP3    H268559   2.221   3.098  66.588  1.0524 -1.5480 -0.5783
15690TIP3   OH268560   1.671   0.961  20.562 -0.2894 -0.2671  0.0199
15690TIP3    H168561   1.717   1.032  20.518 -1.6144  0.2886 -0.5064
15690TIP3    H268562   1.665   0.892  20.497 -0.4266 -0.2383  0.0015
15691TIP3   OH268563   1.320   0.703  44.489  0.7530  0.0735 -0.0898
15691TIP3    H168564   1.342   0.765  44.558 -2.5394  2.9285 -1.3072
15691TIP3    H268565   1.259   0.641  44.530 -1.7243  2.1505 -0.3562
15692TIP3   OH268566   2.236   0.841   1.419  0.3231 -0.2399 -0.1836
15692TIP3    H168567   2.208   0.925   1.383 -0.8424 -0.0120  1.1758
15692TIP3    H268568   2.192   0.776   1.365  1.6947 -0.0348 -1.6181
15693TIP3   OH268569   2.609   0.531  10.580 -0.5585  0.1603  0.0311
15693TIP3    H168570   2.576   0.443  10.597 -3.1815  1.3154  1.3581
15693TIP3    H268571   2.650   0.523  10.493  0.4629 -2.6096  0.6388
15694TIP3   OH268572   0.876   3.016  42.252 -0.1710  0.7803  0.5493
15694TIP3    H168573   0.934   2.950  42.214 -1.2948 -0.5175  1.0168
15694TIP3    H268574   0.875   2.996  42.346 -3.9843 -1.5165  0.2398
15695TIP3   OH268575   0.187   0.368  16.351 -0.0210 -0.3604 -0.0842
15695TIP3    H168576   0.191   0.328  16.438 -2.1000  0.7338  0.5920
15695TIP3    H268577   0.133   0.307  16.300 -0.0267 -0.2772 -0.1776
15696TIP3   OH268578   1.249   3.195  10.475 -0.2572  0.0581  0.1764
15696TIP3    H168579   1.213   3.211  10.562 -1.1215 -1.1463  0.0531
15696TIP3    H268580   1.343   3.207  10.486 -0.4162  0.5603  1.1248
15697TIP3   OH268581   1.503   1.081  49.584 -0.4192  0.1012 -0.1434
15697TIP3    H168582   1.482   1.174  49.570  0.5469  0.6906  1.9230
15697TIP3    H268583   1.517   1.046  49.496 -1.4933  1.7369 -1.0088
15698TIP3   OH268584   1.204   3.341  54.950  0.8152 -0.2392  0.4725
15698TIP3    H168585   1.111   3.358  54.931  0.5159 -2.2135 -0.0490
15698TIP3    H268586   1.219   3.381  55.036 -0.0371  1.6086 -0.1869
15699TIP3   OH268587   2.947   2.581  58.113  0.4575  0.0592 -0.2974
15699TIP3    H168588   2.946   2.495  58.071  2.0331 -0.1276 -0.0296
15699TIP3    H268589   3.031   2.619  58.086 -0.0531  1.3599 -0.1054
15700TIP3   OH268590   1.310   1.479   9.650  0.3049 -0.1170  0.5133
15700TIP3    H168591   1.340   1.394   9.683 -2.3465 -1.5402 -0.4775
15700TIP3    H268592   1.226   1.494   9.693 -0.0901  1.1474 -0.6320
15701TIP3   OH268593   1.651   0.400  52.417  0.0518  0.1713  0.1221
15701TIP3    H168594   1.709   0.378  52.490 -0.8064 -0.9944  0.4980
15701TIP3    H268595   1.703   0.384  52.339  0.8609  1.0668  0.4591
15702TIP3   OH268596   0.102   3.070  48.829  0.0181 -0.5355  0.4092
15702TIP3    H168597   0.118   3.149  48.881 -0.5759  0.8919 -1.4944
15702TIP3    H268598   0.137   2.999  48.883  0.8916  1.0424  2.0210
15703TIP3   OH268599   2.449   0.504  66.480  0.5972  0.1276  0.0303
15703TIP3    H168600   2.503   0.494  66.402  0.5853  0.8609 -0.0755
15703TIP3    H268601   2.512   0.501  66.552  0.6552 -0.1487 -0.0345
15704TIP3   OH268602   0.848   0.521  64.822 -0.4270 -0.7709  0.4275
15704TIP3    H168603   0.823   0.489  64.908 -1.2980  0.5368  0.6977
15704TIP3    H268604   0.882   0.444  64.776 -0.7842 -1.6684  1.6245
15705TIP3   OH268605   2.237   2.428  17.868  0.2280  0.4023 -0.1283
15705TIP3    H168606   2.260   2.433  17.775  1.9097 -0.3854  0.1968
15705TIP3    H268607   2.148   2.393  17.870  0.3581 -0.0381 -1.4351
15706TIP3   OH268608   2.063   1.077   7.890  0.2350 -0.3874  0.0351
15706TIP3    H168609   2.018   1.052   7.971  0.6142 -1.1315  0.0225
15706TIP3    H268610   2.049   1.003   7.832  0.0630  0.0994 -0.5503
15707TIP3   OH268611   2.823   0.252  55.242  0.2454 -0.0091  0.3955
15707TIP3    H168612   2.880   0.213  55.308  1.2250  2.9784  1.5137
15707TIP3    H268613   2.774   0.320  55.290  1.0748  2.3661 -1.8825
15708TIP3   OH268614   1.271   0.537  62.123  0.0875 -0.5017 -0.1593
15708TIP3    H168615   1.351   0.500  62.161 -0.2911 -1.2361 -0.0699
15708TIP3    H268616   1.228   0.463  62.080 -1.0189 -0.3312  0.6129
15709TIP3   OH268617   1.074   0.731  12.498 -0.2516 -0.2528 -0.2087
15709TIP3    H168618   1.141   0.782  12.454  0.1582  0.1284  0.8267
15709TIP3    H268619   1.089   0.641  12.469  1.6966 -0.4250  1.1523
15710TIP3   OH268620   2.421   1.120  55.006 -0.6103 -0.8274  0.1704
15710TIP3    H168621   2.357   1.123  54.934 -0.1307 -1.2531 -0.2903
15710TIP3    H268622   2.375   1.075  55.077 -1.1983 -0.1226  0.2549
15711TIP3   OH268623   1.450   3.287   6.745  0.0228  0.0892 -0.0606
15711TIP3    H168624   1.399   3.206   6.744  0.5713 -0.2611 -0.4564
15711TIP3    H268625   1.540   3.258   6.756 -0.0216  0.8086  2.7698
15712TIP3   OH268626   0.784   2.828   0.644  0.0044 -0.2168  0.6548
15712TIP3    H168627   0.718   2.773   0.603 -0.0800 -0.3233  0.9275
15712TIP3    H268628   0.758   2.832   0.736  0.6389 -0.6568  0.8606
15713TIP3   OH268629   1.098   1.186   8.892 -0.5690 -0.5937  0.4735
15713TIP3    H168630   1.085   1.279   8.913  0.2477  0.0563 -1.6247
15713TIP3    H268631   1.189   1.168   8.915 -0.1257 -0.2856 -0.9125
15714TIP3   OH268632   1.268   0.854  66.876  0.4305 -0.1111 -0.1928
15714TIP3    H168633   1.276   0.759  66.887  1.6877  0.0971  0.8231
15714TIP3    H268634   1.334   0.875  66.810 -0.0503  0.0397 -0.6398
15715TIP3   OH268635   0.697   0.449  18.856  0.4070  0.0383  0.2203
15715TIP3    H168636   0.660   0.379  18.801 -0.0766  0.4330  0.0351
15715TIP3    H268637   0.771   0.408  18.900  2.2901  0.3004 -2.4778
15716TIP3   OH268638   0.534   2.902  16.231  0.1275 -0.2289 -0.4967
15716TIP3    H168639   0.460   2.928  16.286  0.8010  1.2089 -0.2272
15716TIP3    H268640   0.597   2.863  16.291  0.3660  0.2496 -0.4374
15717TIP3   OH268641   0.420   2.445  57.687  1.0389  0.2862  0.0472
15717TIP3    H168642   0.463   2.369  57.725  0.8953  1.1549  2.0672
15717TIP3    H268643   0.490   2.506  57.668  0.9244  0.7460  1.0697
15718TIP3   OH268644   2.256   0.340  50.131  0.2791 -0.4609  0.1051
15718TIP3    H168645   2.306   0.284  50.191 -1.1488 -2.3185 -0.3466
15718TIP3    H268646   2.278   0.308  50.044 -0.0850  0.1167 -0.2065
15719TIP3   OH268647   2.141   2.030  53.908 -0.3813 -0.6340 -0.1107
15719TIP3    H168648   2.213   2.009  53.848  0.0927 -3.0962  1.2124
15719TIP3    H268649   2.126   1.950  53.957 -4.3018 -0.3359 -0.5339
15720TIP3   OH268650   1.778   0.308  62.255 -0.2579 -0.6237 -0.3890
15720TIP3    H168651   1.864   0.330  62.219 -0.4996 -0.0235 -0.6099
15720TIP3    H268652   1.764   0.216  62.231  1.3919 -1.5368  1.7557
15721TIP3   OH268653   2.119   0.314  46.582  0.1850 -0.3571 -0.0752
15721TIP3    H168654   2.072   0.237  46.549  0.6879 -0.9461  0.5644
15721TIP3    H268655   2.086   0.386  46.529  0.8516 -1.2447 -1.7780
15722TIP3   OH268656   0.196   1.004  55.867 -0.0109  0.0039  0.3042
15722TIP3    H168657   0.155   1.051  55.939 -0.6529 -1.1702  0.7274
15722TIP3    H268658   0.275   0.966  55.906 -0.5277 -0.9006  0.4820
15723TIP3   OH268659   1.458   1.672  22.546  0.2157 -0.6516  0.6854
15723TIP3    H168660   1.494   1.761  22.539 -1.1025  0.0453  2.0595
15723TIP3    H268661   1.419   1.654  22.461 -1.2499  0.9385  0.9603
15724TIP3   OH268662   2.088   0.053  61.438  0.3088 -0.1975 -0.5700
15724TIP3    H168663   2.132   0.032  61.520  2.3670  1.6271 -1.0978
15724TIP3    H268664   2.032   0.128  61.459 -0.0035 -0.4222 -0.6032
15725TIP3   OH268665   2.487   2.980   8.379 -0.1022  0.0503 -0.3096
15725TIP3    H168666   2.557   2.934   8.425 -0.5763  0.1815  0.5652
15725TIP3    H268667   2.424   2.912   8.356 -0.6781  0.2041  0.7537
15726TIP3   OH268668   1.246   0.256  56.540 -0.3883 -0.3258 -0.2773
15726TIP3    H168669   1.309   0.187  56.519  1.1088  1.3007 -1.3421
15726TIP3    H268670   1.190   0.262  56.463 -1.2715 -1.0573  0.2665
15727TIP3   OH268671   2.992   3.216  43.537  0.2559  0.1351  0.1881
15727TIP3    H168672   2.917   3.178  43.490  1.1608 -0.6196 -0.7174
15727TIP3    H268673   3.067   3.166  43.505  1.1977  1.1230  0.7927
15728TIP3   OH268674   1.780   1.114  61.450  0.3347 -0.4455  0.0483
15728TIP3    H168675   1.761   1.194  61.400  1.7170  0.6407  1.1921
15728TIP3    H268676   1.707   1.107  61.512  0.3386  0.0642  0.1169
15729TIP3   OH268677   0.360   0.329  29.692  0.6447  0.1192  0.4366
15729TIP3    H168678   0.288   0.269  29.671 -0.8289  1.7069  0.7434
15729TIP3    H268679   0.372   0.320  29.786 -0.3125  1.0432  0.6652
15730TIP3   OH268680   0.502   0.747  57.806 -0.4164  0.1767 -0.1986
15730TIP3    H168681   0.553   0.730  57.727 -0.8784 -0.7229 -0.3154
15730TIP3    H268682   0.546   0.821  57.849 -0.6430  1.2363 -1.7158
15731TIP3   OH268683   1.820   1.218  63.266  0.2420 -0.3583 -0.2139
15731TIP3    H168684   1.776   1.153  63.212  0.5059 -0.1410 -0.6953
15731TIP3    H268685   1.756   1.239  63.335 -0.4465  0.0237 -0.9574
15732TIP3   OH268686   0.955   0.066  13.613  0.3515 -0.1832 -0.0178
15732TIP3    H168687   1.000   0.136  13.660  0.8174 -0.4079 -0.1243
15732TIP3    H268688   1.024   0.005  13.588  0.0438 -0.3170 -0.5603
15733TIP3   OH268689   2.758   2.636   9.438  0.2660 -0.2778  0.2318
15733TIP3    H168690   2.782   2.674   9.523  1.4640 -0.1547 -0.1475
15733TIP3    H268691   2.796   2.548   9.440  0.1787 -0.3247 -0.1224
15734TIP3   OH268692   1.466   1.661   3.118  0.0107  0.0002  0.6495
15734TIP3    H168693   1.491   1.571   3.099  0.3478  0.0830  0.6839
15734TIP3    H268694   1.371   1.662   3.115 -0.0036 -0.4244  0.9452
15735TIP3   OH268695   2.853   2.374  16.917  0.4939  0.9192  0.3610
15735TIP3    H168696   2.903   2.366  16.836 -0.6795  1.4266 -0.4324
15735TIP3    H268697   2.811   2.288  16.929 -0.2113  1.1807 -0.1732
15736TIP3   OH268698   0.436   2.892  14.500 -0.4581 -0.5755  0.0428
15736TIP3    H168699   0.452   2.906  14.594  0.1663  1.2302 -0.2971
15736TIP3    H268700   0.519   2.912  14.458 -1.0557 -0.2269 -1.0019
15737TIP3   OH268701   2.282   1.360  58.581  0.1383 -0.3553  0.0865
15737TIP3    H168702   2.265   1.451  58.601 -0.3849 -0.6311  0.9440
15737TIP3    H268703   2.228   1.341  58.504 -0.0234 -0.0413  0.1242
15738TIP3   OH268704   0.050   2.132  44.893 -0.0159  0.1422  0.1571
15738TIP3    H168705   0.108   2.154  44.819 -0.2074 -0.8131 -0.2926
15738TIP3    H268706  -0.028   2.186  44.878 -1.4412 -2.3144 -2.2085
15739TIP3   OH268707   1.586   1.212  44.980  0.0033  0.4182 -0.2618
15739TIP3    H168708   1.598   1.231  45.073  1.8785 -0.4874 -0.2721
15739TIP3    H268709   1.647   1.271  44.936 -0.9344  0.8951 -0.9288
15740TIP3   OH268710   0.961   0.108   9.939 -0.6478 -0.4347  0.3269
15740TIP3    H168711   0.965   0.085   9.847  2.0916 -0.9753  0.4822
15740TIP3    H268712   0.874   0.146   9.951 -1.3451 -1.0103 -2.2841
15741TIP3   OH268713   2.287   1.590  65.839 -1.0963 -0.2029 -0.0021
15741TIP3    H168714   2.211   1.609  65.784 -0.4247 -1.5818 -1.5016
15741TIP3    H268715   2.346   1.664  65.824 -1.3269 -0.0980 -0.4015
15742TIP3   OH268716   0.980   1.153  50.823 -0.5613 -0.5208 -0.0700
15742TIP3    H168717   1.021   1.066  50.822 -1.2824 -0.9037  1.4226
15742TIP3    H268718   0.905   1.145  50.764  0.4598 -0.3366 -1.4243
15743TIP3   OH268719   1.099   3.378  58.976 -0.2626 -0.2502  0.4841
15743TIP3    H168720   1.008   3.403  58.959 -0.2888  0.3368  1.4124
15743TIP3    H268721   1.093   3.296  59.025 -0.3132  0.0144  0.9256
15744TIP3   OH268722   0.255   0.581  12.639 -0.5637 -0.4634  0.0828
15744TIP3    H168723   0.165   0.595  12.610  0.1150 -0.1465 -2.0446
15744TIP3    H268724   0.269   0.648  12.706 -2.1710 -1.1227  1.1407
15745TIP3   OH268725   1.195   1.179  59.744  0.1709 -0.0064  0.1724
15745TIP3    H168726   1.208   1.103  59.688  0.7699  0.2197 -0.0086
15745TIP3    H268727   1.207   1.145  59.833 -0.6251 -0.3324  0.1665
15746TIP3   OH268728   3.125   3.313  44.915 -0.0027 -0.0919  0.3066
15746TIP3    H168729   3.040   3.272  44.899 -0.2684  1.4233 -2.8401
15746TIP3    H268730   3.162   3.328  44.828  2.0456  2.2187  1.4427
15747TIP3   OH268731   1.884   0.572  45.195 -0.0135  0.2284  0.3963
15747TIP3    H168732   1.878   0.666  45.210 -0.2381  0.6649 -1.9971
15747TIP3    H268733   1.794   0.545  45.176  0.4064  0.0633 -1.4976
15748TIP3   OH268734   0.151   1.194   9.426  0.1312 -0.4185  0.0977
15748TIP3    H168735   0.100   1.116   9.444 -0.9293  0.5376  1.4272
15748TIP3    H268736   0.176   1.186   9.334 -1.8345 -1.2513 -0.4084
15749TIP3   OH268737   3.101   1.278  49.392  0.4014 -0.1618 -0.0893
15749TIP3    H168738   3.113   1.318  49.478 -0.2558 -0.0652 -0.0398
15749TIP3    H268739   3.149   1.335  49.332 -0.1435  0.4424  0.0448
15750TIP3   OH268740   0.117   1.871  61.395  0.0966  0.7085 -0.1587
15750TIP3    H168741   0.150   1.858  61.484  0.3134  0.6333 -0.2503
15750TIP3    H268742   0.118   1.966  61.382 -0.1627  0.7338  0.0046
15751TIP3   OH268743   2.959   1.977  57.912 -0.2493 -0.5539  0.5930
15751TIP3    H168744   3.052   1.955  57.915 -0.0851 -0.0956 -0.5030
15751TIP3    H268745   2.914   1.894  57.895  0.1840 -0.4314 -1.3842
15752TIP3   OH268746   2.559   2.013  56.864 -0.4291  0.5877  0.0437
15752TIP3    H168747   2.648   2.048  56.858  0.2382 -1.1234 -0.5001
15752TIP3    H268748   2.570   1.926  56.903 -1.8889  0.4293  0.1426
15753TIP3   OH268749   1.157   3.381   2.906  0.1944 -0.1135 -0.1886
15753TIP3    H168750   1.204   3.415   2.982  2.2325 -0.8949 -1.0187
15753TIP3    H268751   1.176   3.445   2.836 -2.1756  0.9458  0.0235
15754TIP3   OH268752   2.467   0.999  46.237 -0.0331 -0.2181  0.2791
15754TIP3    H168753   2.511   0.920  46.266  0.2762 -0.1889 -0.1027
15754TIP3    H268754   2.402   0.969  46.173  0.3912 -0.1228 -0.2035
15755TIP3   OH268755   2.193   0.610  55.367  0.2788  0.4029  0.7179
15755TIP3    H168756   2.246   0.655  55.301  0.3811 -1.3081 -0.4441
15755TIP3    H268757   2.227   0.520  55.367 -1.0717 -0.1383  1.6390
15756TIP3   OH268758   2.702   3.358   5.312 -0.4864  0.0964  0.1706
15756TIP3    H168759   2.712   3.378   5.219 -0.5446 -1.2914 -0.1587
15756TIP3    H268760   2.756   3.422   5.356 -0.3746  0.7152 -0.8288
15757TIP3   OH268761   1.669   1.649  47.740 -0.4052  0.1300 -0.1167
15757TIP3    H168762   1.749   1.603  47.714 -0.2427  1.1604 -1.5721
15757TIP3    H268763   1.657   1.626  47.831  1.7100  0.1324  0.2226
15758TIP3   OH268764   2.941   2.244  25.646  0.1025  0.0569  0.0294
15758TIP3    H168765   3.032   2.215  25.634  0.0006  0.4152 -1.9277
15758TIP3    H268766   2.935   2.265  25.740  1.7873 -0.7679  0.3664
15759TIP3   OH268767   0.217   3.259  13.910  0.0720 -0.0088 -0.1178
15759TIP3    H168768   0.210   3.193  13.841 -0.0956 -0.5638  0.4178
15759TIP3    H268769   0.159   3.329  13.883 -1.0269 -0.8142  0.1037
15760TIP3   OH268770   0.672   2.435  14.194  0.0286 -0.1621 -0.3797
15760TIP3    H168771   0.742   2.500  14.186  0.3715 -0.5430 -0.4580
15760TIP3    H268772   0.624   2.462  14.273  0.4131 -0.0499 -0.1851
15761TIP3   OH268773   2.733   0.576  45.343 -0.3980 -0.4339  0.5185
15761TIP3    H168774   2.816   0.530  45.359 -0.0586  0.2555  0.7991
15761TIP3    H268775   2.757   0.648  45.285 -1.3875 -2.1352 -2.1822
15762TIP3   OH268776   3.369   2.693  54.340 -0.3931  0.0074 -0.2424
15762TIP3    H168777   3.410   2.612  54.308 -1.2461 -0.1158 -1.0589
15762TIP3    H268778   3.287   2.665  54.380 -0.0641  0.3380  0.6938
15763TIP3   OH268779   0.310   0.833  45.451  0.0975  1.1736  0.0214
15763TIP3    H168780   0.315   0.777  45.528 -4.8048 -0.2812 -0.3747
15763TIP3    H268781   0.279   0.917  45.484  0.2705  1.3019 -0.1404
15764TIP3   OH268782   3.402   1.897  10.673 -0.3015 -0.3232  0.3802
15764TIP3    H168783   3.330   1.909  10.735  0.0676 -0.3323  0.8131
15764TIP3    H268784   3.392   1.807  10.642 -0.4378 -0.3461  0.4892
15765TIP3   OH268785   0.646   3.290  62.371  0.2859 -0.2252 -0.2338
15765TIP3    H168786   0.628   3.328  62.457  1.1844 -1.7513  0.6795
15765TIP3    H268787   0.563   3.296  62.324 -1.0579 -1.9034  1.7578
15766TIP3   OH268788   3.283   2.402  20.124  0.1748  0.2711  0.0411
15766TIP3    H168789   3.348   2.433  20.188  1.7349  0.2455 -1.4530
15766TIP3    H268790   3.202   2.448  20.148  0.7398  0.3773  1.9166
15767TIP3   OH268791   0.627   1.455  12.147 -0.0913  0.1256 -0.2313
15767TIP3    H168792   0.671   1.483  12.227  0.9123  1.6998 -1.2621
15767TIP3    H268793   0.537   1.438  12.174  0.4416 -0.3647  1.3943
15768TIP3   OH268794   1.761   3.389  15.827 -0.3547 -0.3969  0.1340
15768TIP3    H168795   1.701   3.321  15.860 -0.9808 -0.2568 -0.6888
15768TIP3    H268796   1.834   3.340  15.789  1.3227 -0.5733  3.2729
15769TIP3   OH268797   0.945   3.205  67.297 -0.9138 -0.2646 -0.4397
15769TIP3    H168798   1.004   3.279  67.283 -1.1802 -0.0663 -0.5233
15769TIP3    H268799   0.857   3.244  67.300 -1.2460 -0.7480 -2.2719
15770TIP3   OH268800   0.840   0.542  45.720  0.6273  0.3306  0.2471
15770TIP3    H168801   0.753   0.544  45.759  0.4282 -1.2242 -0.0625
15770TIP3    H268802   0.849   0.627  45.677 -0.3276  0.8949  1.1370
15771TIP3   OH268803   0.154   3.035   1.465  0.2884 -0.0482  0.0308
15771TIP3    H168804   0.175   2.942   1.451 -1.8361 -0.4533 -0.7907
15771TIP3    H268805   0.195   3.056   1.549 -0.8040 -2.2985  1.2193
15772TIP3   OH268806   0.992   2.550  55.182  0.6796 -0.2066  0.1142
15772TIP3    H168807   1.050   2.623  55.163 -1.2832  1.7203  0.9929
15772TIP3    H268808   0.957   2.524  55.097  2.3185 -1.0140 -0.3493
15773TIP3   OH268809   2.843   2.621  19.562  0.5868 -0.0264  0.0144
15773TIP3    H168810   2.896   2.700  19.573  0.3511  0.2961 -1.0363
15773TIP3    H268811   2.756   2.654  19.538  1.0521 -0.5714 -2.8382
15774TIP3   OH268812   1.207   1.416  11.807  0.2079 -0.3116 -0.4344
15774TIP3    H168813   1.119   1.401  11.841  0.5244 -0.1372  0.5000
15774TIP3    H268814   1.243   1.328  11.796  0.6734 -0.3836  1.2950
15775TIP3   OH268815   3.125   2.712  65.761 -0.1612 -0.1817  0.0600
15775TIP3    H168816   3.131   2.616  65.768 -0.0089 -0.1613  0.2253
15775TIP3    H268817   3.216   2.742  65.766 -0.2805  0.0452  1.1702
15776TIP3   OH268818   2.819   0.137  55.561 -0.0858  0.4899  0.0169
15776TIP3    H168819   2.814   0.232  55.566 -1.0529  0.6854 -2.7705
15776TIP3    H268820   2.902   0.119  55.516 -0.1699  0.0503  0.0287
15777TIP3   OH268821   2.335   2.963  19.965 -0.4435  0.2803 -0.4333
15777TIP3    H168822   2.325   3.055  19.989 -1.9773  0.4781 -1.7028
15777TIP3    H268823   2.416   2.936  20.009  0.1938  2.2960 -0.2514
15778TIP3   OH268824   1.273   2.424  12.604 -0.1098  0.4217 -0.2192
15778TIP3    H168825   1.325   2.394  12.529  1.9012 -0.2605  1.3804
15778TIP3    H268826   1.294   2.363  12.674 -2.0004  1.0097  0.9262
15779TIP3   OH268827   3.149   2.092  46.791 -0.2645  0.3853 -0.9400
15779TIP3    H168828   3.116   2.044  46.867 -1.6547  0.7897 -1.2698
15779TIP3    H268829   3.147   2.030  46.719  1.5702 -0.1630 -0.5748
15780TIP3   OH268830   3.448   2.563  12.808 -0.3560 -0.0626 -0.0169
15780TIP3    H168831   3.501   2.519  12.741 -0.5791 -0.6143  0.1608
15780TIP3    H268832   3.364   2.578  12.766 -0.5339 -0.5104  0.1621
15781TIP3   OH268833   1.725   2.231  16.308  0.2188 -0.1930  1.0375
15781TIP3    H168834   1.688   2.174  16.241 -0.5806 -1.0372  2.1535
15781TIP3    H268835   1.813   2.252  16.276 -0.4908  0.2527 -0.7257
15782TIP3   OH268836   1.978   1.205  43.955 -0.4528 -0.2378  0.0699
15782TIP3    H168837   2.004   1.196  44.047 -0.5998 -0.0716  0.1249
15782TIP3    H268838   2.033   1.141  43.909  1.1050  1.0940 -0.0031
15783TIP3   OH268839   2.433   3.425  25.619 -0.0385 -0.0276 -0.5348
15783TIP3    H168840   2.384   3.467  25.549  1.0938  0.4542 -1.0658
15783TIP3    H268841   2.511   3.480  25.631  0.3411 -0.7180  0.3351
15784TIP3   OH268842   0.480   1.374   9.800  0.6310  0.2878 -0.0943
15784TIP3    H168843   0.404   1.402   9.749  1.1016  2.1408  0.1768
15784TIP3    H268844   0.483   1.279   9.787 -0.1306  0.5048 -2.3322
15785TIP3   OH268845   0.291   2.920  61.518 -0.3916 -0.0366 -0.0178
15785TIP3    H168846   0.213   2.928  61.464 -0.0151 -0.7954 -0.7120
15785TIP3    H268847   0.299   3.004  61.563 -1.1479  0.3315 -0.5570
15786TIP3   OH268848   3.195   0.348  14.861 -0.6392  0.4024 -0.0411
15786TIP3    H168849   3.266   0.395  14.904 -1.6566 -0.3557  2.6534
15786TIP3    H268850   3.229   0.259  14.850  0.3003  0.9783 -2.7207
15787TIP3   OH268851   1.745   0.676  54.828  0.3752 -0.2372 -0.4448
15787TIP3    H168852   1.668   0.620  54.837  0.5847 -0.4894 -0.1999
15787TIP3    H268853   1.712   0.756  54.787 -0.0412 -0.2893 -0.2168
15788TIP3   OH268854   0.492   2.560   8.711  0.3196 -0.1209  0.9171
15788TIP3    H168855   0.474   2.501   8.784 -3.6552  2.1013  2.0144
15788TIP3    H268856   0.537   2.635   8.750 -0.2728  0.3137  0.7803
15789TIP3   OH268857   0.206   0.783  21.420 -0.2112  0.7486 -0.3365
15789TIP3    H168858   0.176   0.842  21.351  1.0575 -0.5794 -2.1162
15789TIP3    H268859   0.174   0.697  21.393  1.9004 -0.0979 -0.3171
15790TIP3   OH268860   0.012   0.475  59.157 -0.2558  0.0737  0.0060
15790TIP3    H168861   0.099   0.476  59.196  0.5101 -0.8526 -1.5538
15790TIP3    H268862   0.001   0.563  59.122  0.6490 -0.1665 -0.9407
15791TIP3   OH268863   1.459   0.325  51.328  0.6743  0.0901  0.1186
15791TIP3    H168864   1.471   0.394  51.262 -0.0511  1.4149  1.3019
15791TIP3    H268865   1.516   0.352  51.401  0.2236 -0.4362  0.6817
15792TIP3   OH268866   2.545   2.587   2.967 -0.0705  0.5815  0.1525
15792TIP3    H168867   2.622   2.632   3.003  0.8342 -1.6356  1.2025
15792TIP3    H268868   2.477   2.599   3.033  0.8649 -1.4231  1.5876
15793TIP3   OH268869   1.655   3.084  42.594 -0.2452  0.0687  0.1948
15793TIP3    H168870   1.685   3.174  42.582 -0.2748  0.1138  0.4481
15793TIP3    H268871   1.572   3.080  42.545 -0.8620  0.5293  1.1624
15794TIP3   OH268872   1.037   3.065  54.838  0.4684 -0.0303  0.0380
15794TIP3    H168873   1.043   3.062  54.933 -0.7968  1.8831  0.2474
15794TIP3    H268874   1.123   3.094  54.809  0.5051  0.5458  0.7059
15795TIP3   OH268875   1.140   0.119  47.278  0.4081 -0.2003  0.6785
15795TIP3    H168876   1.102   0.032  47.294  0.3636 -0.0272  1.5791
15795TIP3    H268877   1.102   0.175  47.346  3.2180 -0.3010  2.5214
15796TIP3   OH268878   1.936   1.796  51.262  0.5391  0.4780 -0.1264
15796TIP3    H168879   1.842   1.803  51.242  0.9112  1.3860 -1.7599
15796TIP3    H268880   1.965   1.719  51.214  0.6119  0.1314  0.4715
15797TIP3   OH268881   2.671   0.351   8.650  0.0332 -0.8690 -0.7400
15797TIP3    H168882   2.739   0.399   8.697 -0.5495 -0.8077  0.0624
15797TIP3    H268883   2.694   0.360   8.558  0.0637  0.7836 -0.6052
15798TIP3   OH268884   0.383   1.923  18.740  0.3934  0.1942 -0.1459
15798TIP3    H168885   0.354   1.832  18.741 -0.2732  0.3976  1.1809
15798TIP3    H268886   0.304   1.973  18.720  0.9129  0.4603 -1.6552
15799TIP3   OH268887   2.146   2.657  51.166 -0.2612  0.4968 -0.1093
15799TIP3    H168888   2.158   2.750  51.184 -0.2045  0.5566 -0.4514
15799TIP3    H268889   2.052   2.648  51.149 -0.0369  0.7839 -1.6819
15800TIP3   OH268890   2.393   3.353  49.807  0.2581  0.3236  0.2303
15800TIP3    H168891   2.424   3.376  49.719 -2.6605  2.9507 -0.2800
15800TIP3    H268892   2.329   3.284  49.792  0.6272 -0.0759  0.4635
15801TIP3   OH268893   1.847   1.128   1.712  0.0610 -0.4372  0.7723
15801TIP3    H168894   1.799   1.186   1.771  0.5986 -0.2702  1.0527
15801TIP3    H268895   1.780   1.067   1.679 -1.0055  1.6983 -1.3039
15802TIP3   OH268896   1.741   0.879  10.294  0.2535  0.8414 -0.1394
15802TIP3    H168897   1.735   0.874  10.198  0.5964  2.6885 -0.2951
15802TIP3    H268898   1.828   0.843  10.314  0.3250  0.7791 -0.5507
15803TIP3   OH268899   1.143   0.353  38.898  0.5647 -0.1028  0.0777
15803TIP3    H168900   1.106   0.375  38.983 -2.2775  1.6006 -1.4538
15803TIP3    H268901   1.094   0.276  38.869 -0.0027  0.5914 -0.8651
15804TIP3   OH268902   1.105   0.397  51.361  0.2329  0.2364  0.1540
15804TIP3    H168903   1.143   0.447  51.289 -1.1410  0.3319 -0.5253
15804TIP3    H268904   1.152   0.314  51.359  0.0128  0.1233 -1.0468
15805TIP3   OH268905   2.519   2.683  10.409 -0.0321  0.2990 -0.8169
15805TIP3    H168906   2.468   2.739  10.350  0.2825  1.8178  0.3030
15805TIP3    H268907   2.597   2.735  10.430 -0.5850  0.2544  1.6886
15806TIP3   OH268908   2.760   1.367  67.234 -1.0224 -0.5206 -0.2843
15806TIP3    H168909   2.833   1.423  67.208 -1.6848  0.5722  0.1393
15806TIP3    H268910   2.685   1.399  67.183 -1.7301 -0.0598  1.0011
15807TIP3   OH268911   3.126   0.163  56.799  0.4136  0.1789 -0.2660
15807TIP3    H168912   3.035   0.163  56.827 -0.6444  0.4209 -3.3429
15807TIP3    H268913   3.159   0.248  56.827 -0.7067  0.6067 -0.1844
15808TIP3   OH268914   0.713   3.219   0.345 -0.2742 -0.0054  0.0811
15808TIP3    H168915   0.683   3.157   0.411  0.0777  0.3548  0.5879
15808TIP3    H268916   0.699   3.174   0.262  1.6147 -1.5183  0.5066
15809TIP3   OH268917   0.488   3.060  64.039 -0.9744  0.0301 -0.5025
15809TIP3    H168918   0.477   3.134  63.980  1.0433  0.3340 -0.5992
15809TIP3    H268919   0.502   3.101  64.125  2.6544  0.0314 -0.9391
15810TIP3   OH268920   1.725   2.128  51.478  0.4251  0.3268  0.2040
15810TIP3    H168921   1.774   2.190  51.532  2.4264  0.5331 -1.7285
15810TIP3    H268922   1.633   2.151  51.493  1.0023  1.9094  1.6459
15811TIP3   OH268923   1.122   1.495  13.738  0.2094  0.2023 -0.1229
15811TIP3    H168924   1.098   1.533  13.823 -1.4585  0.6798 -0.7754
15811TIP3    H268925   1.196   1.548  13.708 -0.0020  0.8498  0.4669
15812TIP3   OH268926   0.972   0.284   2.547 -0.1655 -0.1324  0.4363
15812TIP3    H168927   1.038   0.351   2.530  0.5547 -1.1065 -0.7378
15812TIP3    H268928   1.015   0.201   2.525 -1.8273 -0.7919 -0.5433
15813TIP3   OH268929   0.121   1.883  56.009 -0.0329  0.4689 -0.2606
15813TIP3    H168930   0.127   1.930  56.092  0.2727 -1.1329  0.6670
15813TIP3    H268931   0.043   1.828  56.017  0.4440 -0.3011 -0.6836
15814TIP3   OH268932   2.060   2.406   6.209 -0.4124  0.4314  0.5452
15814TIP3    H168933   2.089   2.497   6.199 -1.9028  0.8786  0.0562
15814TIP3    H268934   2.138   2.354   6.189 -0.1020  1.5585 -1.5253
15815TIP3   OH268935   2.880   2.208  46.924  0.4632 -0.5807  0.1323
15815TIP3    H168936   2.935   2.191  46.848  0.9472 -0.7201  0.5113
15815TIP3    H268937   2.929   2.271  46.976 -0.0058 -0.2490  0.1791
15816TIP3   OH268938   2.906   1.312  13.698 -0.2853 -0.2212  0.1853
15816TIP3    H168939   2.853   1.313  13.618 -0.3277 -0.0906  0.2151
15816TIP3    H268940   2.876   1.234  13.745 -3.2989  1.8823  2.1114
15817TIP3   OH268941   1.284   2.839  37.297 -0.3981  0.9006 -0.4688
15817TIP3    H168942   1.300   2.828  37.204  0.2050  1.0080 -0.3840
15817TIP3    H268943   1.213   2.779  37.317  0.4524 -0.2255 -0.7108
15818TIP3   OH268944   0.033   0.739  56.446  0.3274 -0.1672 -0.3393
15818TIP3    H168945   0.094   0.665  56.455  0.4336 -0.2253 -1.4045
15818TIP3    H268946   0.042   0.787  56.528  0.6155 -1.0723  0.1821
15819TIP3   OH268947   1.820   3.111  17.391 -0.4816 -0.0135  0.4073
15819TIP3    H168948   1.908   3.084  17.418 -0.1716  1.3815  0.8655
15819TIP3    H268949   1.821   3.103  17.295  1.0342  2.3744  0.1382
15820TIP3   OH268950   2.259   0.783   4.751 -0.1466 -0.1491  0.0912
15820TIP3    H168951   2.266   0.873   4.780 -1.4070  0.3945 -1.1735
15820TIP3    H268952   2.183   0.748   4.797 -1.4923  0.3907 -1.6314
15821TIP3   OH268953   3.336   0.954   8.249  0.0000  0.4786 -0.6200
15821TIP3    H168954   3.432   0.952   8.251  0.0108 -0.5056 -1.5911
15821TIP3    H268955   3.310   0.862   8.261 -0.8184  0.6893 -0.7369
15822TIP3   OH268956   0.255   1.663  56.951 -0.2605 -0.2788 -0.0800
15822TIP3    H168957   0.308   1.674  56.872 -0.1901  0.3598  0.0491
15822TIP3    H268958   0.206   1.745  56.959 -0.0993 -0.2472  0.6669
15823TIP3   OH268959   0.299   1.941  12.685  0.6308 -0.4813  0.3832
15823TIP3    H168960   0.206   1.929  12.667  0.6144 -0.3164  0.3568
15823TIP3    H268961   0.318   2.029  12.655  1.2273 -1.1711 -1.3918
15824TIP3   OH268962   1.096   0.064  22.590  0.0058 -0.1805  0.0238
15824TIP3    H168963   1.065   0.131  22.529  0.5282  1.5874  1.6290
15824TIP3    H268964   1.016   0.027  22.627 -0.2827 -0.5171 -0.8847
15825TIP3   OH268965   2.430   2.970  49.839  0.3083 -0.0498 -0.1678
15825TIP3    H168966   2.496   3.025  49.880 -0.6654  1.6011 -0.7000
15825TIP3    H268967   2.380   2.933  49.911  0.4173  0.5168  0.2038
15826TIP3   OH268968   1.080   0.141  49.759 -0.8370 -0.2078 -0.4117
15826TIP3    H168969   1.071   0.116  49.851  1.0595  1.3677  0.2908
15826TIP3    H268970   1.128   0.069  49.719 -1.3387 -0.7336 -0.0672
15827TIP3   OH268971   3.293   1.236  10.454  0.1587  0.1717  0.3088
15827TIP3    H168972   3.363   1.253  10.392 -0.5866  0.4843 -0.4654
15827TIP3    H268973   3.310   1.147  10.486  0.2471 -0.2005 -0.7559
15828TIP3   OH268974   0.288   1.039  15.614  0.4767  0.1267 -0.1169
15828TIP3    H168975   0.234   1.044  15.535  0.5020 -1.1452 -0.2369
15828TIP3    H268976   0.228   1.015  15.684  0.0372  3.3589  0.7635
15829TIP3   OH268977   3.118   2.463  58.656 -0.3368 -0.0316 -0.0122
15829TIP3    H168978   3.089   2.395  58.595 -0.1126 -0.6834  0.5997
15829TIP3    H268979   3.048   2.468  58.721  0.9363 -1.7182  1.5580
15830TIP3   OH268980   1.250   2.387   3.884  0.2945 -0.2058 -0.2436
15830TIP3    H168981   1.315   2.455   3.900 -0.5793  1.1902 -2.2591
15830TIP3    H268982   1.185   2.399   3.953 -0.2491  1.5852 -1.0093
15831TIP3   OH268983   1.857   2.557  13.757  0.7748 -0.3306 -1.0809
15831TIP3    H168984   1.914   2.505  13.701  2.2501 -0.3643  0.3693
15831TIP3    H268985   1.781   2.501  13.773  2.0172 -1.8308 -0.1119
15832TIP3   OH268986   0.573   1.359   8.807  0.0304  0.1816  0.5125
15832TIP3    H168987   0.595   1.430   8.748  0.5465 -0.9885 -0.7451
15832TIP3    H268988   0.501   1.394   8.861 -0.9408  1.0512 -1.2665
15833TIP3   OH268989   0.398   0.807  44.578 -0.0916 -0.4918 -0.1021
15833TIP3    H168990   0.364   0.728  44.537 -0.2189 -0.0933 -0.7821
15833TIP3    H268991   0.324   0.842  44.627  0.0773 -1.0012  0.5284
15834TIP3   OH268992   3.203   1.299  63.166  0.3687 -0.0767  0.4661
15834TIP3    H168993   3.124   1.247  63.177 -0.2516  0.4845 -1.0874
15834TIP3    H268994   3.209   1.351  63.246 -0.0280 -1.1543  1.2226
15835TIP3   OH268995   3.064   3.024  52.029  0.2230  0.4959 -0.4214
15835TIP3    H168996   3.091   3.077  51.954 -0.5758  1.3912 -0.1007
15835TIP3    H268997   3.000   3.079  52.075 -0.2981 -0.5772  0.1634
15836TIP3   OH268998   2.244   2.441  67.398  0.5681  0.0605 -0.3547
15836TIP3    H168999   2.168   2.431  67.455  0.2159 -0.3120 -0.8776
15836TIP3    H269000   2.288   2.356  67.402  1.3488  0.4890  0.4790
15837TIP3   OH269001   3.259   2.277  65.972 -0.5457  0.0987 -0.0483
15837TIP3    H169002   3.247   2.296  65.879 -1.2421 -0.5975 -0.1189
15837TIP3    H269003   3.186   2.322  66.015  0.8297  2.0111  0.3957
15838TIP3   OH269004   2.677   3.431  56.341  0.5161  0.2373  0.5478
15838TIP3    H169005   2.721   3.498  56.395 -0.8229  0.1822  1.7497
15838TIP3    H269006   2.718   3.349  56.368 -0.2838  0.1851  1.6592
15839TIP3   OH269007   2.456   2.852  60.424 -0.1792 -1.0266  0.1332
15839TIP3    H169008   2.478   2.941  60.454  1.0691 -0.9936 -0.7742
15839TIP3    H269009   2.387   2.866  60.359  0.2817 -0.6605 -0.2939
15840TIP3   OH269010   0.444   0.273  45.669  0.3731  0.0128 -0.5975
15840TIP3    H169011   0.481   0.351  45.627  3.3582 -1.4740 -0.9419
15840TIP3    H269012   0.455   0.289  45.763  2.4425 -0.5862 -0.7044
15841TIP3   OH269013   2.442   0.387  61.003  0.3004 -0.3876  0.2747
15841TIP3    H169014   2.450   0.424  60.914  3.1073 -0.4214  0.4295
15841TIP3    H269015   2.492   0.447  61.058  0.1472 -1.3929  1.5460
15842TIP3   OH269016   1.169   3.274  52.640  0.3038 -0.4239  0.2990
15842TIP3    H169017   1.236   3.303  52.578  0.5739 -0.3171  0.6363
15842TIP3    H269018   1.096   3.334  52.627 -0.0561 -1.0647 -0.6601
15843TIP3   OH269019   2.059   3.230  16.396 -0.5717 -0.1669 -0.5016
15843TIP3    H169020   2.134   3.178  16.366  0.5436  0.8190  0.4444
15843TIP3    H269021   1.991   3.215  16.331  1.1802  0.6137 -2.6074
15844TIP3   OH269022   1.567   2.047  35.990 -0.0246 -0.1666 -0.1462
15844TIP3    H169023   1.625   2.086  35.925 -0.5999 -0.4807 -0.8584
15844TIP3    H269024   1.624   1.996  36.047  0.6554  1.1163  0.3699
15845TIP3   OH269025   1.460   2.254  36.224 -0.1418 -0.0974 -0.7592
15845TIP3    H169026   1.374   2.228  36.258 -0.9350  2.2801 -0.8095
15845TIP3    H269027   1.463   2.349  36.234  4.0520 -0.2995  2.8293
15846TIP3   OH269028   0.110   0.035  52.772 -0.4507  0.2243  0.4541
15846TIP3    H169029   0.090  -0.057  52.792 -1.3571  0.3343  0.1129
15846TIP3    H269030   0.180   0.058  52.833  1.4616 -1.3746 -1.0169
15847TIP3   OH269031   3.419   3.381  53.142  0.3230 -0.3295 -0.3166
15847TIP3    H169032   3.477   3.330  53.086  0.1453  1.4995 -2.3091
15847TIP3    H269033   3.333   3.374  53.101 -0.7223 -2.0666  1.9595
15848TIP3   OH269034   3.102   0.469  56.351  0.0752  0.2535 -0.1041
15848TIP3    H169035   3.026   0.501  56.400 -1.0309  0.6979 -2.0223
15848TIP3    H269036   3.140   0.548  56.311  0.5925 -0.1673 -0.4519
15849TIP3   OH269037   1.056   0.470  17.406  0.0616 -0.5177  0.7963
15849TIP3    H169038   1.037   0.382  17.372  0.5262 -0.9425  1.6140
15849TIP3    H269039   1.002   0.528  17.353  1.9015 -0.9817 -1.7728
15850TIP3   OH269040   3.098   1.984  19.069 -0.0992 -0.7952 -0.3261
15850TIP3    H169041   3.120   2.072  19.099  1.2377 -0.8249 -1.1097
15850TIP3    H269042   3.153   1.926  19.122  2.4440 -0.8349 -2.7747
15851TIP3   OH269043   2.155   3.211  43.583 -0.4259  0.0194 -0.1373
15851TIP3    H169044   2.088   3.162  43.631 -1.2580  1.1981 -0.0414
15851TIP3    H269045   2.106   3.278  43.534  0.6929  1.0603  0.1013
15852TIP3   OH269046   0.932   2.135  61.673 -0.1796 -0.3722 -0.8911
15852TIP3    H169047   1.024   2.124  61.650  0.4523  2.0538  0.1083
15852TIP3    H269048   0.899   2.197  61.608 -0.8645 -0.5289 -0.7001
15853TIP3   OH269049   1.871   1.800  60.968 -0.6705 -0.4463  0.1129
15853TIP3    H169050   1.915   1.726  61.011 -0.5879  0.1239  1.0362
15853TIP3    H269051   1.779   1.789  60.990 -0.6865 -0.3820  0.0784
15854TIP3   OH269052   1.372   2.823  44.836  0.1539  0.4984  0.1983
15854TIP3    H169053   1.402   2.875  44.911  0.7872  1.9661 -1.0291
15854TIP3    H269054   1.392   2.733  44.861 -0.3043  0.8689  2.0843
15855TIP3   OH269055   1.238   1.897  21.175 -0.2904  0.0001  0.2256
15855TIP3    H169056   1.325   1.935  21.175 -0.3768  0.2084 -0.5310
15855TIP3    H269057   1.184   1.958  21.225 -0.2770  0.5310 -0.3977
15856TIP3   OH269058   0.997   1.826  44.789 -0.3981  0.1832 -0.1508
15856TIP3    H169059   0.972   1.735  44.804 -0.2268  0.3315  1.1238
15856TIP3    H269060   1.004   1.864  44.876  0.3914  1.1900 -0.6283
15857TIP3   OH269061   0.443   0.568  21.208  0.9398  0.4890  0.0364
15857TIP3    H169062   0.508   0.530  21.149 -0.2447  1.9934 -2.3499
15857TIP3    H269063   0.460   0.662  21.207 -1.0989  0.9011 -0.4720
15858TIP3   OH269064   1.738   2.285  15.342  0.0320 -0.2316 -0.4306
15858TIP3    H169065   1.646   2.306  15.352  0.3529  1.1222 -0.0835
15858TIP3    H269066   1.741   2.216  15.276 -1.1367  0.5445 -1.3188
15859TIP3   OH269067   3.390   2.354  56.920 -0.1460 -0.2793  0.5061
15859TIP3    H169068   3.352   2.403  56.993 -0.0098 -0.4576  0.6968
15859TIP3    H269069   3.401   2.419  56.851 -1.5995 -0.4033  0.1369
15860TIP3   OH269070   1.697   0.826  49.657  0.4171 -0.1466  0.4968
15860TIP3    H169071   1.691   0.906  49.604  0.0815 -0.9249 -0.6650
15860TIP3    H269072   1.728   0.759  49.596 -0.6473 -1.2264  1.1143
15861TIP3   OH269073   0.182   1.784  10.900  0.4307  0.2412 -0.1511
15861TIP3    H169074   0.263   1.833  10.883  0.6682 -0.2245 -0.3820
15861TIP3    H269075   0.199   1.697  10.864  0.2587 -0.2162  0.8620
15862TIP3   OH269076   1.007   1.081  45.540  0.3815  0.2496 -0.3203
15862TIP3    H169077   0.953   1.009  45.570  1.4280  0.0421  1.1470
15862TIP3    H269078   0.945   1.152  45.521 -0.4622 -0.2479  0.5432
15863TIP3   OH269079   0.348   0.780  44.923  0.2590  0.2828 -0.0952
15863TIP3    H169080   0.289   0.722  44.971  2.2499  0.0103  2.2086
15863TIP3    H269081   0.423   0.724  44.902  0.3008  0.9374 -1.8503
15864TIP3   OH269082   1.376   3.166  48.273 -0.2410 -0.6758 -0.2746
15864TIP3    H169083   1.306   3.227  48.292  0.5677  0.2512 -0.2016
15864TIP3    H269084   1.406   3.137  48.360 -1.5852 -2.3597 -0.3044
15865TIP3   OH269085   3.203   1.467  16.060  0.7865 -0.3256  0.3713
15865TIP3    H169086   3.239   1.415  15.988  0.8740  1.0560 -0.6276
15865TIP3    H269087   3.109   1.470  16.043  0.2776 -2.7504  2.2012
15866TIP3   OH269088   1.475   0.696  54.035  0.1147  0.1010  0.1125
15866TIP3    H169089   1.439   0.724  53.951  1.6848 -0.1743 -0.6696
15866TIP3    H269090   1.568   0.716  54.031  0.1603  0.5283  1.9911
15867TIP3   OH269091   1.139   0.220  66.884 -0.5250 -0.1983  0.2650
15867TIP3    H169092   1.156   0.189  66.795 -0.2473  0.6115  0.0218
15867TIP3    H269093   1.053   0.185  66.905  0.2179 -2.0296  0.4351
15868TIP3   OH269094   1.069   2.207  50.845  0.1671 -0.2106  0.4272
15868TIP3    H169095   1.061   2.162  50.760  1.9063 -0.3452  0.2920
15868TIP3    H269096   0.982   2.202  50.883 -1.0352  1.0592 -1.9415
15869TIP3   OH269097   0.962   1.333  18.213 -0.2438 -0.0889  0.4038
15869TIP3    H169098   0.943   1.273  18.142 -2.3121 -0.7545  1.4295
15869TIP3    H269099   0.971   1.419  18.170 -3.5450 -0.0777 -0.5800
15870TIP3   OH269100   0.596   3.055  60.476  0.2162  0.5059 -0.0020
15870TIP3    H169101   0.643   3.113  60.536  1.7227 -1.5488  0.9400
15870TIP3    H269102   0.597   2.969  60.520 -1.4788 -0.3688 -1.5357
15871TIP3   OH269103   1.656   0.068  22.213  0.0397 -0.1888  0.3269
15871TIP3    H169104   1.716   0.096  22.282  0.2398 -2.2014  1.0551
15871TIP3    H269105   1.575   0.048  22.258 -0.3267 -0.0602 -0.2627
15872TIP3   OH269106   1.305   2.991  59.269  0.4669 -0.0415  0.0830
15872TIP3    H169107   1.357   2.933  59.325  0.5219 -0.0704  0.0020
15872TIP3    H269108   1.220   2.998  59.312  0.5912  0.1340  0.3006
15873TIP3   OH269109   1.861   0.918  13.000 -0.5430  0.6187  0.0359
15873TIP3    H169110   1.908   0.836  13.018 -0.8277  0.3922 -0.2453
15873TIP3    H269111   1.798   0.925  13.071  0.0469  1.0274  0.5290
15874TIP3   OH269112   0.910   0.840  49.459  0.2898 -0.5595  0.2283
15874TIP3    H169113   0.966   0.843  49.536  1.9817  0.3658 -0.9885
15874TIP3    H269114   0.821   0.837  49.494  0.9689  0.7570  2.2093
15875TIP3   OH269115   2.843   0.710  45.784 -0.5968  0.0357 -0.5609
15875TIP3    H169116   2.841   0.804  45.766  1.3305  0.2272 -0.0095
15875TIP3    H269117   2.924   0.679  45.744 -0.0926 -0.9469  1.0916
15876TIP3   OH269118   0.775   2.400  15.872  0.3641 -0.6882 -0.0968
15876TIP3    H169119   0.838   2.456  15.826 -0.5971  0.6313  0.1571
15876TIP3    H269120   0.829   2.342  15.925  1.3587  1.1355  0.9589
15877TIP3   OH269121   1.153   3.371  44.625 -0.3770 -0.6633  0.1458
15877TIP3    H169122   1.193   3.284  44.625  1.1974  0.0164  1.2606
15877TIP3    H269123   1.068   3.358  44.666  0.8755 -1.2963  2.7902
15878TIP3   OH269124   1.923   1.380  55.515 -0.1415 -0.0679 -0.0148
15878TIP3    H169125   1.986   1.439  55.474 -0.3622  0.4485  0.3789
15878TIP3    H269126   1.871   1.436  55.573 -2.3918 -0.0524 -1.8958
15879TIP3   OH269127   2.420   0.314  51.105 -0.6437  0.2492 -0.3312
15879TIP3    H169128   2.435   0.222  51.082  1.5751  0.4303  0.1967
15879TIP3    H269129   2.377   0.310  51.191 -1.8608 -0.2798 -0.9368
15880TIP3   OH269130   2.380   2.772  27.447 -0.0806  0.7552  0.1389
15880TIP3    H169131   2.363   2.804  27.358  0.6898  1.6918  0.3265
15880TIP3    H269132   2.359   2.846  27.504  0.6812  0.5895  0.6497
15881TIP3   OH269133   1.901   2.480  36.136 -0.2544  0.4221 -0.3071
15881TIP3    H169134   1.923   2.541  36.206 -1.7978 -1.4424  1.9562
15881TIP3    H269135   1.894   2.395  36.179 -1.0269 -0.8906 -2.8006
15882TIP3   OH269136   1.978   2.683  62.705  0.0086  0.2291  0.2003
15882TIP3    H169137   2.009   2.773  62.710  0.9712 -0.1449  1.4444
15882TIP3    H269138   2.054   2.632  62.676 -0.8942 -0.0481 -1.9443
15883TIP3   OH269139   2.668   1.370  61.827 -0.2590 -0.0949  0.5297
15883TIP3    H169140   2.745   1.325  61.862  0.5200  0.8354  0.0864
15883TIP3    H269141   2.692   1.390  61.736  0.9311  4.2583  1.5650
15884TIP3   OH269142   0.590   1.925  61.662  0.1242 -0.0081  0.4574
15884TIP3    H169143   0.519   1.915  61.725 -0.5068 -1.3433 -0.4400
15884TIP3    H269144   0.599   2.020  61.651 -0.6195  0.2083  1.5661
15885TIP3   OH269145   2.078   2.268  65.505  0.2962 -0.4259 -0.0503
15885TIP3    H169146   1.986   2.245  65.519 -0.3090  1.3246 -0.8931
15885TIP3    H269147   2.122   2.237  65.584 -0.7982 -2.2875 -0.1029
15886TIP3   OH269148   1.755   2.268  53.739 -0.2424 -0.3679  0.1068
15886TIP3    H169149   1.800   2.190  53.770 -0.3777  0.2269  1.8950
15886TIP3    H269150   1.801   2.291  53.658  1.3044 -0.9794  0.7700
15887TIP3   OH269151   1.705   1.931  52.167  0.2407  0.2287  0.3849
15887TIP3    H169152   1.730   1.874  52.239  0.4501 -1.4316 -0.9466
15887TIP3    H269153   1.612   1.914  52.154  0.3835 -0.0832 -0.2486
15888TIP3   OH269154   0.870   1.577  21.703  0.1136 -0.1861  0.2022
15888TIP3    H169155   0.899   1.496  21.745  1.4888 -1.0829 -2.2292
15888TIP3    H269156   0.898   1.647  21.761 -0.7196 -1.3913  2.1576
15889TIP3   OH269157   0.266   0.715  57.485 -0.1560  0.5476  0.2585
15889TIP3    H169158   0.247   0.638  57.538 -1.8017  1.7711  1.5857
15889TIP3    H269159   0.266   0.683  57.395 -2.0551 -0.8299  0.6831
15890TIP3   OH269160   0.666   3.153  43.689 -0.1646 -0.1398  0.1104
15890TIP3    H169161   0.584   3.109  43.668 -0.0763 -0.5863  0.6890
15890TIP3    H269162   0.702   3.103  43.762  1.2443 -0.7406 -0.9376
15891TIP3   OH269163   1.453   0.812   1.064  0.5756 -0.3183 -0.0695
15891TIP3    H169164   1.473   0.722   1.089 -0.9755 -0.5809  0.3155
15891TIP3    H269165   1.366   0.828   1.100  0.5974  1.1560 -0.6130
15892TIP3   OH269166   1.243   0.869  46.779  0.2778 -0.3857 -0.2515
15892TIP3    H169167   1.157   0.830  46.763  0.3291 -0.1903 -1.0120
15892TIP3    H269168   1.304   0.796  46.772  0.1279 -0.6549  0.9411
15893TIP3   OH269169   1.883   3.111  51.601 -0.0932  0.2645  0.3072
15893TIP3    H169170   1.967   3.081  51.637  0.2024  0.3781 -0.2741
15893TIP3    H269171   1.817   3.066  51.653  0.3329  0.0936  0.7062
15894TIP3   OH269172   2.596   1.974  59.201 -0.1519  0.4140  0.4673
15894TIP3    H169173   2.550   1.937  59.277 -0.0287 -2.2491 -0.6436
15894TIP3    H269174   2.549   2.055  59.182 -0.2799  1.1148  3.2432
15895TIP3   OH269175   0.726   0.986  62.792 -0.3014  0.1298 -0.4172
15895TIP3    H169176   0.806   0.995  62.740 -0.5357 -0.3575 -0.8721
15895TIP3    H269177   0.663   1.045  62.750  0.1044  1.2649  0.5370
15896TIP3   OH269178   2.666   2.072  64.875  0.2463  0.4089 -0.4119
15896TIP3    H169179   2.585   2.054  64.828  0.2773  0.4390 -0.4730
15896TIP3    H269180   2.687   1.990  64.919  1.4994 -0.3895 -2.3780
15897TIP3   OH269181   1.041   0.851  16.531  0.2146 -0.2142 -0.0542
15897TIP3    H169182   0.986   0.826  16.456  0.0612 -0.8521  0.2596
15897TIP3    H269183   1.046   0.771  16.584  1.6882 -0.2660 -0.2246
15898TIP3   OH269184   1.555   1.696  14.583 -0.8276  0.2819 -0.2052
15898TIP3    H169185   1.503   1.749  14.522  0.2870  0.6855 -0.8205
15898TIP3    H269186   1.589   1.624  14.528  0.8061  1.0642 -0.2608
15899TIP3   OH269187   2.772   2.328  21.850  0.2831  0.3455 -0.1780
15899TIP3    H169188   2.836   2.397  21.834 -0.0513  0.8358  0.5640
15899TIP3    H269189   2.693   2.374  21.878 -0.9687 -0.1202 -2.6563
15900TIP3   OH269190   0.570   1.047  13.203 -0.2431  0.3412 -0.1078
15900TIP3    H169191   0.553   1.025  13.295  0.3495 -1.3468 -0.3625
15900TIP3    H269192   0.665   1.041  13.194 -0.3069  0.3837 -0.8638
15901TIP3   OH269193   0.404   2.772  11.183  0.0509  0.3529 -0.1122
15901TIP3    H169194   0.472   2.834  11.159 -0.7049  1.4924  0.5617
15901TIP3    H269195   0.405   2.771  11.279 -2.0432  1.8073 -0.0048
15902TIP3   OH269196   1.587   1.556   4.372 -0.1809 -0.1537 -0.2210
15902TIP3    H169197   1.677   1.553   4.339  0.1079  0.9046  0.4136
15902TIP3    H269198   1.597   1.545   4.467 -0.7372 -0.1220 -0.1586
15903TIP3   OH269199   1.204   3.057  47.713 -0.0614 -0.3566 -0.4544
15903TIP3    H169200   1.173   3.036  47.625  0.3663 -2.7225 -0.1132
15903TIP3    H269201   1.130   3.102  47.754 -0.7626 -0.4241 -1.5880
15904TIP3   OH269202   3.440   2.135  18.177  0.4613 -0.0116  0.6651
15904TIP3    H169203   3.370   2.138  18.111  0.5186  0.1839  0.6133
15904TIP3    H269204   3.471   2.225  18.183  0.0509  0.0890  1.3926
15905TIP3   OH269205   2.113   1.637  48.937  0.4551 -0.2750  0.3599
15905TIP3    H169206   2.139   1.726  48.915  2.0044 -1.1134 -1.4073
15905TIP3    H269207   2.027   1.626  48.897  0.0698  0.5227  0.9370
15906TIP3   OH269208   1.055   1.347  67.099  0.3067  0.1298 -0.1962
15906TIP3    H169209   1.150   1.346  67.110  0.3086  1.8059  0.3020
15906TIP3    H269210   1.040   1.317  67.010  1.1552 -2.0576  0.3499
15907TIP3   OH269211   1.258   0.854  54.522  0.4952  0.0123  0.2726
15907TIP3    H169212   1.251   0.851  54.617 -1.4182  0.0782  0.1550
15907TIP3    H269213   1.295   0.941  54.504 -1.6065  1.0952  0.8792
15908TIP3   OH269214   3.404   2.252  58.450  0.0945  0.5240 -0.0928
15908TIP3    H169215   3.367   2.318  58.392 -1.1132 -1.7495 -2.0682
15908TIP3    H269216   3.335   2.234  58.514  0.6045  1.4583  0.7508
15909TIP3   OH269217   0.873   2.642  14.225 -0.1434 -0.1891 -0.4579
15909TIP3    H169218   0.886   2.673  14.314 -0.9592  1.0053 -0.7248
15909TIP3    H269219   0.785   2.672  14.202  0.1913 -0.1507 -1.7879
15910TIP3   OH269220   1.516   0.751  37.234 -0.2662 -0.4440 -0.3210
15910TIP3    H169221   1.583   0.707  37.182 -1.2628 -1.7200 -0.5868
15910TIP3    H269222   1.548   0.743  37.324  0.5362  0.0802 -0.5469
15911TIP3   OH269223   1.199   0.225  42.672  0.4989 -0.1537  0.8934
15911TIP3    H169224   1.274   0.217  42.732  1.3007 -0.6096 -0.1233
15911TIP3    H269225   1.220   0.164  42.601 -1.0238 -0.5454  0.7647
15912TIP3   OH269226   1.786   1.515  59.021 -0.1182  0.3241  0.7330
15912TIP3    H169227   1.734   1.471  59.089 -1.7556  2.1991  0.7847
15912TIP3    H269228   1.800   1.448  58.954 -0.8980 -0.7865  1.6451
15913TIP3   OH269229   1.683   3.433  49.608 -0.9005 -0.5423  0.4182
15913TIP3    H169230   1.675   3.528  49.600  0.8941 -0.3838  0.1191
15913TIP3    H269231   1.725   3.420  49.693 -0.3026 -1.0121  0.0532
15914TIP3   OH269232   0.164   3.256   7.199 -0.4336  0.6057 -0.5422
15914TIP3    H169233   0.258   3.254   7.180 -0.4644 -1.7604 -0.6602
15914TIP3    H269234   0.152   3.335   7.252  1.8648  0.2236  0.6459
15915TIP3   OH269235   1.956   2.658  64.872 -0.2264  0.0703 -0.3754
15915TIP3    H169236   1.893   2.586  64.870  0.1376 -0.2485 -0.5758
15915TIP3    H269237   1.903   2.737  64.885 -0.6469 -0.2116 -0.3789
15916TIP3   OH269238   0.343   1.080  42.180  0.3556  0.4602 -0.2896
15916TIP3    H169239   0.285   1.037  42.117 -0.4868 -0.5299  1.1047
15916TIP3    H269240   0.424   1.029  42.177 -0.3707 -0.8300  0.7957
15917TIP3   OH269241   3.369   2.749  22.878 -0.3857 -0.5096  0.3422
15917TIP3    H169242   3.410   2.738  22.964  0.4107 -0.1319  0.0223
15917TIP3    H269243   3.399   2.673  22.828  0.2475 -0.0396 -0.0088
15918TIP3   OH269244   2.379   2.626  20.816 -0.5552 -0.6780 -0.4275
15918TIP3    H169245   2.284   2.642  20.816 -0.3971  0.4801 -1.8341
15918TIP3    H269246   2.395   2.578  20.898 -2.1627  0.1982  0.4598
15919TIP3   OH269247   3.317   2.821  60.825 -0.1806 -0.0128 -0.2261
15919TIP3    H169248   3.294   2.775  60.906 -0.5171  1.4013  0.5167
15919TIP3    H269249   3.365   2.757  60.773  0.4805 -0.8068  1.3111
15920TIP3   OH269250   3.115   0.964  64.440 -0.0143 -0.7366 -0.5927
15920TIP3    H169251   3.203   1.002  64.430 -0.6549  1.2268  0.6351
15920TIP3    H269252   3.097   0.923  64.355  0.9984  1.2284 -1.8461
15921TIP3   OH269253   2.062   1.898   9.326 -0.5716  0.5411 -0.1237
15921TIP3    H169254   2.047   1.891   9.420 -1.1014 -1.2320 -0.3031
15921TIP3    H269255   1.987   1.854   9.286  0.9912 -1.2311 -1.2872
15922TIP3   OH269256   3.430   3.073  53.908  0.5114 -0.6727 -0.2215
15922TIP3    H169257   3.377   3.015  53.963  0.3664 -0.8141 -0.5075
15922TIP3    H269258   3.435   3.027  53.824 -3.7235  1.8317 -2.1935
15923TIP3   OH269259   1.534   2.297  62.927  0.3608 -0.1494 -0.9103
15923TIP3    H169260   1.580   2.373  62.891  0.7410 -0.5556 -1.2954
15923TIP3    H269261   1.447   2.301  62.887  0.1732  0.4071 -0.4722
15924TIP3   OH269262   1.761   1.793  66.942 -0.0093  0.1056 -0.0832
15924TIP3    H169263   1.798   1.716  66.898 -0.3572  0.3108 -0.7472
15924TIP3    H269264   1.676   1.763  66.974 -0.3197  0.3169 -0.6938
15925TIP3   OH269265   2.086   2.604  66.393  0.3457 -0.5120  0.3630
15925TIP3    H169266   2.171   2.561  66.396  0.7562  0.2503 -0.1989
15925TIP3    H269267   2.036   2.563  66.464  1.2199 -0.8790  0.7778
15926TIP3   OH269268   1.336   0.729  64.020 -0.1186 -0.5744 -0.1727
15926TIP3    H169269   1.277   0.667  63.977 -0.4970 -0.7602  0.5863
15926TIP3    H269270   1.421   0.712  63.982 -0.0521 -2.1605  0.6004
15927TIP3   OH269271   2.858   1.914   6.110  0.8308 -0.2154 -0.0977
15927TIP3    H169272   2.932   1.857   6.092 -0.2506 -1.0304 -2.4053
15927TIP3    H269273   2.793   1.891   6.043 -1.5380  0.4085  1.8369
15928TIP3   OH269274   1.837   1.793  55.950 -1.0931  0.4572  0.5909
15928TIP3    H169275   1.873   1.877  55.922 -0.8428  0.5645  1.2201
15928TIP3    H269276   1.903   1.729  55.923 -1.8414  0.3050 -1.0065
15929TIP3   OH269277   3.432   0.038  16.723 -0.5284 -0.4320  0.6277
15929TIP3    H169278   3.399   0.064  16.809  0.4540  0.7865  0.6594
15929TIP3    H269279   3.460   0.120  16.682 -2.0482 -0.8035 -1.3478
15930TIP3   OH269280   3.293   0.070  30.276  0.1541 -0.2148 -0.3510
15930TIP3    H169281   3.306  -0.023  30.257  2.1938  0.0927 -0.7557
15930TIP3    H269282   3.382   0.104  30.288 -0.5531  1.6801 -0.1971
15931TIP3   OH269283   0.504   0.849   6.359 -0.2013  0.0370  0.2496
15931TIP3    H169284   0.445   0.897   6.300 -1.0429  1.3362  2.0449
15931TIP3    H269285   0.592   0.875   6.331 -0.4833 -0.7990 -1.5539
15932TIP3   OH269286   2.105   3.245  11.291  0.3382 -0.1135  0.2863
15932TIP3    H169287   2.085   3.167  11.239 -0.0192  0.7558 -0.9501
15932TIP3    H269288   2.023   3.264  11.337 -0.0919  0.4209 -0.6607
15933TIP3   OH269289   2.285   1.983  22.888  0.3265  0.1581 -0.3681
15933TIP3    H169290   2.316   2.052  22.947 -0.6853 -0.7711  1.3356
15933TIP3    H269291   2.351   1.914  22.897 -0.7892 -0.7633  1.2396
15934TIP3   OH269292   2.354   1.663  54.729 -0.5661 -0.5848 -0.0183
15934TIP3    H169293   2.431   1.686  54.678  1.1471 -0.1277  2.5636
15934TIP3    H269294   2.385   1.594  54.789 -1.9641  0.0433  1.5037
15935TIP3   OH269295   2.041   1.077  50.584  0.5343 -0.3223  0.0802
15935TIP3    H169296   2.020   1.041  50.497  2.3860  2.0801 -1.5046
15935TIP3    H269297   1.985   1.153  50.592  2.2115  1.0296 -0.3032
15936TIP3   OH269298   1.316   3.353  16.184 -0.1532  0.4262 -0.4805
15936TIP3    H169299   1.264   3.286  16.229  0.7718 -0.6498 -0.9553
15936TIP3    H269300   1.403   3.313  16.175 -0.2243  0.6573 -2.9962
15937TIP3   OH269301   3.357   3.422  50.958 -0.1347 -0.5569  0.1935
15937TIP3    H169302   3.342   3.446  50.867  0.6699  0.5348  0.3183
15937TIP3    H269303   3.431   3.361  50.955 -1.1647 -1.8279  0.0018
15938TIP3   OH269304   2.973   2.103  64.475  0.2437  0.1715 -0.4242
15938TIP3    H169305   2.927   2.043  64.417 -2.0714  0.1917  1.2154
15938TIP3    H269306   3.062   2.069  64.481 -0.8534 -2.9466  0.1387
15939TIP3   OH269307   0.264   2.198  48.324 -0.3698 -0.4121  0.6349
15939TIP3    H169308   0.194   2.233  48.379 -1.9658  0.4614 -1.7525
15939TIP3    H269309   0.284   2.268  48.263  1.5850 -1.1908  0.3025
15940TIP3   OH269310   0.257   3.279  56.280  0.4692  0.4464  0.1603
15940TIP3    H169311   0.312   3.250  56.207  0.4858  0.4108  0.1867
15940TIP3    H269312   0.189   3.331  56.238 -0.4794 -0.9264 -0.0595
15941TIP3   OH269313   2.763   0.303  10.938  0.0767  0.9941  0.2729
15941TIP3    H169314   2.705   0.367  10.898  1.9583  1.5578 -1.7000
15941TIP3    H269315   2.844   0.351  10.956  0.5309 -0.1448  1.4894
15942TIP3   OH269316   3.436   2.404  50.507  1.0979 -0.1747  0.3423
15942TIP3    H169317   3.450   2.486  50.556  0.9482 -0.4036  0.7685
15942TIP3    H269318   3.482   2.338  50.559 -2.3575 -1.1852  2.4081
15943TIP3   OH269319   2.662   2.967  12.579  0.0284 -0.1795  0.1095
15943TIP3    H169320   2.681   3.061  12.576  1.5057 -0.4495 -3.0852
15943TIP3    H269321   2.744   2.927  12.606  0.8801 -0.7226 -2.9716
15944TIP3   OH269322   3.122   1.134   5.371 -0.6268  0.1068  0.7164
15944TIP3    H169323   3.217   1.142   5.379 -0.7829  2.9003  0.7514
15944TIP3    H269324   3.107   1.120   5.277 -0.1885 -0.3486  0.7124
15945TIP3   OH269325   2.554   2.593  20.609  0.7577 -0.3698 -0.3694
15945TIP3    H169326   2.629   2.536  20.624  1.4779  0.4836 -0.6500
15945TIP3    H269327   2.508   2.594  20.693 -1.0981 -3.8502 -1.1648
15946TIP3   OH269328   3.053   3.021  63.803  0.0883  0.3118 -0.1041
15946TIP3    H169329   3.096   2.936  63.801  0.2814  0.4209 -0.9696
15946TIP3    H269330   2.959   3.001  63.800  0.1245  0.1454 -3.6577
15947TIP3   OH269331   1.615   0.558   1.530  0.0324 -0.2066  0.0899
15947TIP3    H169332   1.524   0.531   1.518  0.6863 -1.4009 -2.8983
15947TIP3    H269333   1.625   0.633   1.471  1.2950 -0.9229 -0.6362
15948TIP3   OH269334   3.123   1.521   0.124  0.0015  0.6467  0.4425
15948TIP3    H169335   3.031   1.513   0.101  0.3015 -0.8819 -0.3503
15948TIP3    H269336   3.125   1.517   0.219 -0.6680 -0.4556  0.4201
15949TIP3   OH269337   1.750   2.582   3.120  0.0069 -0.6807 -0.1592
15949TIP3    H169338   1.694   2.658   3.134  0.8331  0.1892 -1.3242
15949TIP3    H269339   1.692   2.516   3.084 -0.7646 -0.6791  1.0422
15950TIP3   OH269340   2.572   1.759  16.727  0.2354  0.3395 -0.3638
15950TIP3    H169341   2.650   1.774  16.780 -1.5091  0.6546  2.2452
15950TIP3    H269342   2.532   1.680  16.764 -1.7104  1.2935 -0.3176
15951TIP3   OH269343   2.724   0.824  42.688  0.2241  1.5122  0.6290
15951TIP3    H169344   2.713   0.916  42.664  1.5911  1.2302 -1.2684
15951TIP3    H269345   2.817   0.815  42.705  0.3053  0.2038 -0.4297
15952TIP3   OH269346   1.715   0.472  12.038  0.0480  0.7153  0.0396
15952TIP3    H169347   1.747   0.386  12.010 -2.3048  0.0350 -0.8192
15952TIP3    H269348   1.787   0.510  12.087  2.4761 -0.2905 -2.5012
15953TIP3   OH269349   0.961   0.596  38.874 -0.5081 -1.0990 -0.1237
15953TIP3    H169350   0.929   0.613  38.963  0.1907  1.4572 -0.2941
15953TIP3    H269351   0.938   0.505  38.858 -1.9728 -1.2128  2.1271
15954TIP3   OH269352   0.007   2.707  54.892 -0.0602  0.3959 -0.0439
15954TIP3    H169353   0.030   2.698  54.984 -2.1555  1.8188  0.7061
15954TIP3    H269354  -0.031   2.622  54.868  1.1924 -0.2373  0.1385
15955TIP3   OH269355   2.731   0.872   6.520  0.2364 -0.5639  0.0962
15955TIP3    H169356   2.804   0.932   6.502 -0.6510  0.0915 -1.4241
15955TIP3    H269357   2.662   0.929   6.554  0.3979 -1.1876  1.5423
15956TIP3   OH269358   0.787   1.914  14.865 -0.6762  0.2614 -0.2759
15956TIP3    H169359   0.785   1.843  14.800 -0.5139  0.1354 -0.1445
15956TIP3    H269360   0.766   1.871  14.948  1.0185  0.0666  0.0767
15957TIP3   OH269361   2.657   2.418  50.272 -0.2148  0.0985  0.2726
15957TIP3    H169362   2.749   2.429  50.295 -0.0346  1.6857 -1.0058
15957TIP3    H269363   2.658   2.365  50.192 -0.4331 -0.0070  0.3392
15958TIP3   OH269364   0.360   0.114  42.298  0.7217 -0.4263 -0.5895
15958TIP3    H169365   0.330   0.065  42.221 -0.5743 -0.0926 -0.3268
15958TIP3    H269366   0.439   0.068  42.327 -0.7374 -2.7590 -0.0130
15959TIP3   OH269367   2.681   0.227  52.637  0.0683 -0.0535 -0.3330
15959TIP3    H169368   2.611   0.162  52.647 -0.1126  0.4721  2.4754
15959TIP3    H269369   2.760   0.175  52.622 -0.8294 -0.6454 -3.9649
15960TIP3   OH269370   2.447   0.812  51.576 -0.1956  0.1193  0.5622
15960TIP3    H169371   2.448   0.849  51.488  0.9458  3.0283  1.6678
15960TIP3    H269372   2.365   0.842  51.615  0.6006  1.4053  1.3654
15961TIP3   OH269373   0.871   2.697  57.011  0.1914 -0.2220  0.1196
15961TIP3    H169374   0.937   2.766  57.022 -0.8747  0.7518  0.6808
15961TIP3    H269375   0.844   2.705  56.920 -1.1514  1.3032  0.6013
15962TIP3   OH269376   2.711   1.144  63.810 -0.0079  0.3376  0.8344
15962TIP3    H169377   2.770   1.106  63.745  0.8086 -0.2233  1.8661
15962TIP3    H269378   2.675   1.222  63.768  1.2005  0.4913  0.0480
15963TIP3   OH269379   0.186   1.563   7.976  0.1267 -0.4457 -0.2012
15963TIP3    H169380   0.205   1.595   7.888 -0.4524 -0.4872 -0.3451
15963TIP3    H269381   0.162   1.471   7.963  0.7079 -0.6438  0.0829
15964TIP3   OH269382   2.184   0.535   7.414  0.3186 -0.2215  0.7724
15964TIP3    H169383   2.199   0.487   7.496  1.7084  0.4968  0.9709
15964TIP3    H269384   2.221   0.622   7.429 -0.7665  0.4305 -0.1158
15965TIP3   OH269385   2.376   1.411  49.285  0.1470  0.8285  0.2117
15965TIP3    H169386   2.462   1.375  49.308 -0.7737 -2.4543 -0.8753
15965TIP3    H269387   2.390   1.458  49.203  0.8669 -0.0731 -0.1951
15966TIP3   OH269388   0.117   0.980  56.618 -0.5596  0.6864 -0.6255
15966TIP3    H169389   0.057   1.032  56.671  2.2201  1.9467  1.5561
15966TIP3    H269390   0.134   1.034  56.541 -1.4253  0.7619 -0.7694
15967TIP3   OH269391   3.347   1.615  44.956 -0.0053  0.5863  0.7798
15967TIP3    H169392   3.418   1.616  45.021 -0.3100 -2.2239  1.2696
15967TIP3    H269393   3.392   1.597  44.873 -0.0905 -1.7330  1.1655
15968TIP3   OH269394   1.081   1.695  67.507  0.3545 -0.4792 -0.2272
15968TIP3    H169395   1.082   1.640  67.429  0.6441  0.1930 -0.7108
15968TIP3    H269396   1.009   1.756  67.493  0.8231  0.0753 -0.2873
15969TIP3   OH269397   2.098   3.052  63.022 -0.4322 -0.3005  0.8088
15969TIP3    H169398   2.008   3.081  63.012 -0.4250  0.4599  2.5924
15969TIP3    H269399   2.140   3.073  62.938 -1.9391 -0.8987 -0.1331
15970TIP3   OH269400   3.207   1.167  17.832 -0.4199 -0.0292 -0.4911
15970TIP3    H169401   3.222   1.073  17.822 -0.5151 -0.2374  1.0385
15970TIP3    H269402   3.280   1.208  17.787  1.0749 -0.9038  1.0178
15971TIP3   OH269403   1.592   0.149  61.276 -0.2928  0.2050 -0.1025
15971TIP3    H169404   1.499   0.134  61.289  0.0682 -1.4237  0.9492
15971TIP3    H269405   1.598   0.240  61.247 -2.0494  1.0289  1.8643
15972TIP3   OH269406   0.009   0.559  16.483  0.0189 -0.2071 -0.1294
15972TIP3    H169407   0.069   0.604  16.542  0.9838  0.5245 -1.6097
15972TIP3    H269408   0.044   0.471  16.475 -1.0963 -0.8838  1.6883
15973TIP3   OH269409   2.089   0.214  57.451 -0.3898  0.2561 -0.3156
15973TIP3    H169410   2.179   0.197  57.423  0.1857 -0.9330  1.9875
15973TIP3    H269411   2.091   0.304  57.484 -0.3134  0.5709 -1.1529
15974TIP3   OH269412   0.978   1.717  66.801 -0.0030  0.3575  0.3764
15974TIP3    H169413   0.948   1.655  66.868  0.9164 -0.0161  0.4572
15974TIP3    H269414   0.984   1.665  66.721 -2.3740  1.0862 -0.3661
15975TIP3   OH269415   0.179   2.274   9.051 -0.2243  0.1665 -0.0966
15975TIP3    H169416   0.119   2.297   8.980  0.7885  0.4784 -0.8727
15975TIP3    H269417   0.204   2.357   9.090  1.3898  0.2551 -1.2088
15976TIP3   OH269418   0.630   0.472  43.097  0.2594  0.4143 -0.9505
15976TIP3    H169419   0.556   0.501  43.044  0.4610  1.5867 -0.6280
15976TIP3    H269420   0.594   0.408  43.157 -0.4534  0.8347 -0.9265
15977TIP3   OH269421   3.435   1.773  66.760 -0.1846  0.0215  0.4134
15977TIP3    H169422   3.524   1.774  66.723 -0.1636 -1.4543  0.3522
15977TIP3    H269423   3.394   1.695  66.721 -1.2942  0.3273  0.9369
15978TIP3   OH269424   2.043   2.468  63.960  0.2085  0.9688 -0.2113
15978TIP3    H169425   2.113   2.486  63.898 -0.7132 -0.7716 -1.8810
15978TIP3    H269426   1.967   2.447  63.905 -0.7600 -0.2926  1.4791
15979TIP3   OH269427   2.336   3.400  48.213 -0.1712 -0.0644  0.2657
15979TIP3    H169428   2.384   3.320  48.191  0.7414 -0.1275  2.2013
15979TIP3    H269429   2.364   3.464  48.148 -0.3467 -1.1042 -0.8632
15980TIP3   OH269430   1.201   0.653  49.710  0.0572  0.5388 -0.5093
15980TIP3    H169431   1.167   0.568  49.737 -1.0317  1.2963  0.6263
15980TIP3    H269432   1.201   0.706  49.790  2.0189  1.2141 -0.8986
15981TIP3   OH269433   2.380   0.840  11.689 -0.0184  0.7226  0.2038
15981TIP3    H169434   2.334   0.906  11.637 -0.5643  0.1920  0.0071
15981TIP3    H269435   2.339   0.846  11.776  1.0934  1.8145  0.6799
15982TIP3   OH269436   0.810   0.697  44.838  0.1311  0.0983  0.5997
15982TIP3    H169437   0.842   0.781  44.870  1.6926 -0.8332  1.6470
15982TIP3    H269438   0.808   0.706  44.743 -2.5967  2.2501  0.7232
15983TIP3   OH269439   1.087   0.624   6.945  0.4973  0.0061  0.2600
15983TIP3    H169440   1.004   0.639   6.989  0.5601 -0.0821  0.4077
15983TIP3    H269441   1.143   0.696   6.974  0.1805  0.5995 -0.5705
15984TIP3   OH269442   1.882   1.213  50.852  0.7149  0.2115  0.0982
15984TIP3    H169443   1.840   1.158  50.918 -0.2972  0.1430 -0.5866
15984TIP3    H269444   1.845   1.184  50.769  0.9591  1.2181 -0.3778
15985TIP3   OH269445   1.820   3.321  48.734  0.2414 -0.1248  0.7183
15985TIP3    H169446   1.786   3.256  48.672  0.2718 -0.3020  0.8846
15985TIP3    H269447   1.752   3.388  48.738  0.6892  0.4089 -0.2966
15986TIP3   OH269448   0.477   0.267  49.138  0.3916  0.4214  0.4964
15986TIP3    H169449   0.491   0.360  49.159 -0.9098  0.5546  0.8667
15986TIP3    H269450   0.407   0.268  49.072 -0.7720 -0.3573  1.6816
15987TIP3   OH269451   1.670   1.303  53.359  0.1124  0.0516  0.3019
15987TIP3    H169452   1.741   1.332  53.302 -1.2413  0.3186 -1.3181
15987TIP3    H269453   1.662   1.372  53.425  1.3003  0.0367  0.4832
15988TIP3   OH269454   0.536   1.423   7.982  0.5593 -0.1540  0.6176
15988TIP3    H169455   0.627   1.398   7.995  0.1694 -1.4768  0.8998
15988TIP3    H269456   0.521   1.494   8.044  1.7053  0.8623 -0.2316
15989TIP3   OH269457   0.155   1.299  30.498  0.0076 -0.2971  0.3779
15989TIP3    H169458   0.189   1.343  30.420 -0.9687 -0.4854 -0.1795
15989TIP3    H269459   0.075   1.347  30.519  0.4925  0.0285  1.5442
15990TIP3   OH269460   2.289   0.880  44.416  0.1178  0.8124  0.8389
15990TIP3    H169461   2.242   0.958  44.444  0.2843  0.3963  2.3919
15990TIP3    H269462   2.228   0.834  44.359  0.1975  2.2940 -0.4806
15991TIP3   OH269463   2.640   1.708  13.990  0.7432  0.3368 -0.3749
15991TIP3    H169464   2.706   1.743  14.050  1.0235 -0.8977  0.0778
15991TIP3    H269465   2.688   1.644  13.937  0.2190  0.4968 -1.0605
15992TIP3   OH269466   1.971   1.440   4.686  0.0736  0.4234 -0.5050
15992TIP3    H169467   1.906   1.396   4.630 -0.3818 -0.6075  0.7728
15992TIP3    H269468   1.919   1.491   4.748  0.5830  1.9709 -1.2827
15993TIP3   OH269469   3.349   0.127  49.230 -0.3560 -0.1317 -0.5366
15993TIP3    H169470   3.285   0.197  49.224  0.0468  0.2003 -0.9910
15993TIP3    H269471   3.307   0.053  49.186  0.3460  0.6678 -2.7011
15994TIP3   OH269472   2.039   2.082  18.339  0.0065  0.5797  0.5441
15994TIP3    H169473   1.993   2.043  18.264 -1.4942  2.1664  0.5784
15994TIP3    H269474   2.117   2.123  18.300  0.9435 -1.2842  0.3464
15995TIP3   OH269475   3.197   0.410  11.265 -0.5777  0.4497  0.8911
15995TIP3    H169476   3.287   0.383  11.247  0.1934  2.2062  1.8055
15995TIP3    H269477   3.164   0.345  11.327 -0.9605 -1.7870 -1.4932
15996TIP3   OH269478   1.357   2.923   9.456  0.3299  0.2864  0.6708
15996TIP3    H169479   1.447   2.920   9.422  0.5440  0.6219  1.1888
15996TIP3    H269480   1.319   3.001   9.416 -0.1555 -0.5333 -0.5412
15997TIP3   OH269481   1.007   3.397  42.637  0.2742 -0.1689  0.2105
15997TIP3    H169482   0.996   3.483  42.596 -0.5934  0.1299  1.0412
15997TIP3    H269483   0.919   3.370  42.661  0.5703 -1.1690  0.2255
15998TIP3   OH269484   3.307   2.174   2.901  0.0448  0.6643 -0.1472
15998TIP3    H169485   3.340   2.086   2.882  0.7526  0.9534 -0.2987
15998TIP3    H269486   3.294   2.174   2.996  0.6486  0.5916 -0.0584
15999TIP3   OH269487   1.015   0.072  50.945  0.0223 -0.1891 -0.3052
15999TIP3    H169488   0.998  -0.021  50.955 -0.7902 -0.1015 -0.7173
15999TIP3    H269489   1.109   0.078  50.927 -0.1101 -1.0256 -1.3714
16000TIP3   OH269490   2.090   2.595  13.963  0.1772 -0.0320 -0.1580
16000TIP3    H169491   2.019   2.593  13.898  0.0197  0.2317  0.0049
16000TIP3    H269492   2.157   2.650  13.923 -0.2083  0.7051  0.1944
16001TIP3   OH269493   0.708   3.078  21.033 -0.1633  0.6763 -0.0427
16001TIP3    H169494   0.737   3.148  20.974  0.3112  0.6123  0.1122
16001TIP3    H269495   0.717   3.115  21.121 -0.5203  0.6427  0.0115
16002TIP3   OH269496   0.870   2.974  49.021  0.7545 -0.0575 -0.7539
16002TIP3    H169497   0.804   3.016  49.075  0.2360 -0.8966 -0.7144
16002TIP3    H269498   0.937   3.042  49.006  1.1871  0.0449  1.3699
16003TIP3   OH269499   1.658   0.397   2.311  0.0052  0.0451 -0.3581
16003TIP3    H169500   1.749   0.365   2.317 -0.2112 -0.7707 -1.1116
16003TIP3    H269501   1.640   0.396   2.217 -0.5028  1.0397 -0.2738
16004TIP3   OH269502   1.147   2.325  66.153  0.0755 -0.7761 -0.1421
16004TIP3    H169503   1.211   2.370  66.208  0.1604 -1.7136  0.5699
16004TIP3    H269504   1.070   2.382  66.155  0.1727 -0.6476  0.7452
16005TIP3   OH269505   2.693   0.704  19.742 -0.1536  0.7376  0.7084
16005TIP3    H169506   2.773   0.668  19.704  0.6596  0.3160  2.7229
16005TIP3    H269507   2.625   0.642  19.718 -0.0889  1.4695 -1.6492
16006TIP3   OH269508   1.291   0.415  44.166  0.4078 -0.0686 -0.4432
16006TIP3    H169509   1.203   0.377  44.155  0.2725  0.2662 -0.5250
16006TIP3    H269510   1.349   0.339  44.170  0.2195 -0.2692 -1.3239
16007TIP3   OH269511   1.637   1.000  27.407 -0.0940  0.1589  0.5904
16007TIP3    H169512   1.682   0.926  27.364 -0.0041  0.8554 -0.5687
16007TIP3    H269513   1.707   1.046  27.454 -0.2776 -0.8992  1.9768
16008TIP3   OH269514   0.888   2.523   8.909 -0.3539 -0.0608  0.1114
16008TIP3    H169515   0.871   2.538   8.816 -1.8514  0.8170  0.4863
16008TIP3    H269516   0.982   2.540   8.919 -0.4132  1.1469 -1.0090
16009TIP3   OH269517   3.432   0.108  46.995 -0.2928 -0.5737  0.4484
16009TIP3    H169518   3.507   0.086  46.940  0.9067  0.6869  1.4853
16009TIP3    H269519   3.458   0.082  47.084 -0.2515  1.5204  1.1275
16010TIP3   OH269520   2.770   1.710   9.568  0.4271  0.1468 -0.1449
16010TIP3    H169521   2.780   1.780   9.634 -0.0273  0.8303 -0.7899
16010TIP3    H269522   2.851   1.659   9.576  0.0749 -0.2395  1.4485
16011TIP3   OH269523   3.346   1.738  22.309  0.2321  0.0753  0.3332
16011TIP3    H169524   3.301   1.681  22.372 -0.2687 -0.7992 -0.7896
16011TIP3    H269525   3.439   1.728  22.331  0.2220 -1.7853 -0.3038
16012TIP3   OH269526   2.680   1.775  19.397 -0.1091 -0.2237  0.2473
16012TIP3    H169527   2.606   1.834  19.386 -0.7031 -0.6025  1.9040
16012TIP3    H269528   2.669   1.710  19.328  0.3686  1.3457 -1.3917
16013TIP3   OH269529   1.033   1.050   7.979 -0.0622  0.1318  0.1222
16013TIP3    H169530   1.109   0.993   7.990 -0.8010 -0.5072  2.4729
16013TIP3    H269531   1.022   1.091   8.065 -0.7778  2.3079 -0.9358
16014TIP3   OH269532   0.543   2.964  42.364  0.3809 -0.3481  0.5501
16014TIP3    H169533   0.568   2.951  42.273 -3.6283  2.1793 -1.2002
16014TIP3    H269534   0.595   3.039  42.393 -0.9805  1.3747 -1.1497
16015TIP3   OH269535   0.831   0.861   5.468  0.4717  0.2025 -0.0351
16015TIP3    H169536   0.739   0.883   5.486  0.7796  1.8880 -0.4103
16015TIP3    H269537   0.881   0.914   5.530  1.2183 -0.3187 -0.1817
16016TIP3   OH269538   1.230   0.287   6.419  0.5801 -0.0621  0.2867
16016TIP3    H169539   1.268   0.373   6.404 -2.7787  1.1708 -2.7445
16016TIP3    H269540   1.173   0.273   6.343 -1.0408 -3.8303  1.9525
16017TIP3   OH269541   3.448   3.182   0.769  0.0859  0.4311 -0.3860
16017TIP3    H169542   3.524   3.182   0.711  0.2263  0.8726 -0.2033
16017TIP3    H269543   3.453   3.099   0.816 -0.2552 -0.1263 -1.3003
16018TIP3   OH269544   2.640   2.644   7.048  0.2749  0.3339 -0.2803
16018TIP3    H169545   2.632   2.733   7.015 -0.3987  1.8243  3.3995
16018TIP3    H269546   2.731   2.638   7.077  0.5138 -0.4692 -1.1626
16019TIP3   OH269547   2.335   1.068   0.355 -0.1260  0.0537  0.0384
16019TIP3    H169548   2.285   0.988   0.341 -0.9160  0.6903 -0.9449
16019TIP3    H269549   2.287   1.135   0.305  0.5310  1.1266  0.8111
16020TIP3   OH269550   0.511   3.415  48.248 -0.8172 -0.1642 -0.1783
16020TIP3    H169551   0.429   3.410  48.297  0.2456  1.7205  1.9950
16020TIP3    H269552   0.576   3.375  48.306  0.3991  1.6679 -0.1908
16021TIP3   OH269553   3.451   1.235   6.386 -0.0458  0.0363 -0.0350
16021TIP3    H169554   3.452   1.159   6.444 -2.3596 -0.5837 -0.7076
16021TIP3    H269555   3.465   1.199   6.299 -1.4485  0.3010 -0.3928
16022TIP3   OH269556   2.745   1.359  10.235 -0.5548 -0.5044  0.1370
16022TIP3    H169557   2.778   1.298  10.300  0.3976 -0.6292 -0.4454
16022TIP3    H269558   2.757   1.314  10.151  0.6341  0.6520 -0.3468
16023TIP3   OH269559   1.491   0.122  11.979  0.3410 -0.7108  0.0559
16023TIP3    H169560   1.569   0.168  11.948 -0.8752 -0.1563 -2.4956
16023TIP3    H269561   1.467   0.167  12.059  2.2393 -0.4618  0.5321
16024TIP3   OH269562   0.399   3.043  51.687 -0.1327 -0.0380  0.5352
16024TIP3    H169563   0.319   2.992  51.677 -0.7321  0.8217  0.8500
16024TIP3    H269564   0.373   3.120  51.737  1.6037 -1.4552  3.9041
16025TIP3   OH269565   0.610   0.522  49.694 -0.2232  0.5814 -0.1825
16025TIP3    H169566   0.534   0.523  49.753 -0.8421 -2.1466 -0.7798
16025TIP3    H269567   0.573   0.506  49.607  0.9667 -0.1447 -0.5790
16026TIP3   OH269568   1.019   0.572   2.297  0.0428  0.0439 -0.1270
16026TIP3    H169569   1.077   0.606   2.229  0.7278 -0.5366  0.1611
16026TIP3    H269570   0.997   0.483   2.268 -0.6902  0.2514 -0.2248
16027TIP3   OH269571   0.366   2.741  47.961 -0.6328  0.3563  0.4059
16027TIP3    H169572   0.272   2.754  47.974 -0.7473 -1.2222  1.3629
16027TIP3    H269573   0.378   2.747  47.866 -1.0330  4.4323  0.4394
16028TIP3   OH269574   1.787   2.775  66.912 -0.0542  0.3633 -0.2571
16028TIP3    H169575   1.785   2.681  66.893 -1.6328  0.5283 -1.1473
16028TIP3    H269576   1.702   2.807  66.880 -0.2101  1.8267  1.4623
16029TIP3   OH269577   2.352   3.293  15.905 -0.2162 -0.3675 -0.4897
16029TIP3    H169578   2.329   3.289  15.812 -0.1927 -1.6945 -0.4597
16029TIP3    H269579   2.427   3.235  15.913 -1.3376 -1.7291  0.6703
16030TIP3   OH269580   2.877   0.993  48.141 -0.1446 -0.3794  0.1772
16030TIP3    H169581   2.930   0.970  48.216  1.0776 -2.0859 -1.1451
16030TIP3    H269582   2.936   1.042  48.083 -0.4673 -0.8826 -0.5905
16031TIP3   OH269583   1.792   0.789  21.257  0.4149 -0.2606  0.1281
16031TIP3    H169584   1.797   0.884  21.250  0.8323 -0.3495 -0.9282
16031TIP3    H269585   1.698   0.770  21.251  0.3504  0.0585  0.0917
16032TIP3   OH269586   1.059   1.268  55.380 -0.2359 -0.2725 -0.0727
16032TIP3    H169587   1.085   1.200  55.442 -0.0320 -0.7882 -0.7197
16032TIP3    H269588   0.969   1.290  55.405  0.7125  1.5008  2.1676
16033TIP3   OH269589   1.830   2.441  57.499  0.0529 -0.4390 -0.3208
16033TIP3    H169590   1.824   2.365  57.556  0.3657 -2.9722 -3.4182
16033TIP3    H269591   1.748   2.440  57.449  0.9425 -0.0145 -1.8531
16034TIP3   OH269592   3.135   0.753  19.114  0.1786 -0.1601 -0.6296
16034TIP3    H169593   3.189   0.694  19.166  1.5971  0.7484 -1.0082
16034TIP3    H269594   3.151   0.840  19.152 -1.5459  0.0827 -0.3379
16035TIP3   OH269595   1.167   3.145  53.860  0.8059  0.0790  0.0525
16035TIP3    H169596   1.081   3.186  53.861  1.2559  1.0486  1.3637
16035TIP3    H269597   1.212   3.180  53.937  2.4641 -0.2156 -0.7312
16036TIP3   OH269598   2.815   1.810  57.269 -0.1819 -0.5143 -0.4187
16036TIP3    H169599   2.890   1.831  57.213 -0.7857 -0.0129 -1.0637
16036TIP3    H269600   2.850   1.810  57.358  0.1420  2.0972 -0.4607
16037TIP3   OH269601   2.833   3.081  61.258  0.1711 -0.9426 -0.4357
16037TIP3    H169602   2.831   3.068  61.163  2.1831 -0.2878 -0.6156
16037TIP3    H269603   2.758   3.032  61.290  0.0225 -2.0294 -2.2689
16038TIP3   OH269604   3.067   1.301  16.815 -0.1893 -0.5166 -0.2766
16038TIP3    H169605   3.093   1.262  16.899 -0.2602 -0.1074 -0.0612
16038TIP3    H269606   3.149   1.308  16.766 -0.0370 -0.1078  0.0343
16039TIP3   OH269607   1.540   1.946  43.760 -0.0930  0.0334 -0.4864
16039TIP3    H169608   1.491   2.025  43.784 -0.4945 -0.2069 -0.4972
16039TIP3    H269609   1.618   1.949  43.815 -0.6057 -0.0901  0.2716
16040TIP3   OH269610   1.293   1.641  35.505  0.1468 -0.2210  0.2328
16040TIP3    H169611   1.222   1.690  35.546 -0.8354 -2.3527  1.2389
16040TIP3    H269612   1.367   1.702  35.503 -0.6216  0.8938  2.5711
16041TIP3   OH269613   0.657   0.052  33.829  0.6619 -0.3111 -0.1846
16041TIP3    H169614   0.739   0.101  33.828  1.2754 -1.3213 -1.1736
16041TIP3    H269615   0.652   0.016  33.918  0.4842  1.0286  0.3700
16042TIP3   OH269616   0.724   0.084  37.959 -0.0451  0.0894  0.0369
16042TIP3    H169617   0.691   0.043  37.879 -0.2023 -0.8133  0.5540
16042TIP3    H269618   0.745   0.174  37.932  1.4974 -0.6486 -1.4433
16043TIP3   OH269619   3.096   0.018  62.435 -0.1646  0.2147 -0.5027
16043TIP3    H169620   3.041   0.089  62.402 -0.7190 -1.2451 -2.9710
16043TIP3    H269621   3.166   0.009  62.369  1.0759 -0.2058  0.8213
16044TIP3   OH269622   0.129   2.069   5.435 -0.2463  0.1722  0.2559
16044TIP3    H169623   0.059   2.132   5.421  0.0541  0.2010 -1.2988
16044TIP3    H269624   0.085   1.990   5.467 -1.0970 -0.0014 -1.2524
16045TIP3   OH269625   2.138   3.086  44.174  0.0766  0.2499  0.0510
16045TIP3    H169626   2.072   3.155  44.184  1.2975  1.1530  3.5836
16045TIP3    H269627   2.218   3.133  44.149 -0.0589 -0.5490 -2.0269
16046TIP3   OH269628   1.717   1.273  10.942  0.4448  0.1518 -0.1651
16046TIP3    H169629   1.636   1.276  10.994  1.0227  2.4046  0.7570
16046TIP3    H269630   1.688   1.285  10.852 -0.2523  1.6706  0.2242
16047TIP3   OH269631   0.404   2.731   0.072  0.6401 -0.0162  0.6623
16047TIP3    H169632   0.482   2.700   0.119  0.3346 -1.0302  0.5409
16047TIP3    H269633   0.333   2.679   0.109  0.0238  0.8669  0.7380
16048TIP3   OH269634   1.625   1.005  35.516  0.1926 -0.5926  0.4595
16048TIP3    H169635   1.621   0.965  35.603 -1.3490 -0.7533  0.3454
16048TIP3    H269636   1.653   1.095  35.532 -1.5386 -0.1752  1.2915
16049TIP3   OH269637   3.292   3.306  47.091  0.2749  0.0518 -0.1924
16049TIP3    H169638   3.319   3.217  47.071 -0.6390  0.1408 -2.0418
16049TIP3    H269639   3.295   3.351  47.006  0.1924  1.6324  0.6155
16050TIP3   OH269640   1.328   2.592  13.980  0.7017 -0.2881  0.2771
16050TIP3    H169641   1.235   2.600  13.996  0.6959 -0.2518  0.2232
16050TIP3    H269642   1.350   2.503  14.008  0.5795 -0.4253 -0.0561
16051TIP3   OH269643   1.561   0.151  52.066 -0.0947 -0.3210 -0.2251
16051TIP3    H169644   1.548   0.239  52.030 -0.6931 -0.7370 -1.0716
16051TIP3    H269645   1.492   0.142  52.132  1.2571  0.5944  1.3741
16052TIP3   OH269646   2.181   0.023  44.329  0.6154  0.5042  1.3726
16052TIP3    H169647   2.262   0.061  44.364  1.2654 -0.1068  0.5698
16052TIP3    H269648   2.187  -0.070  44.350  0.8314  0.1930  0.0149
16053TIP3   OH269649   2.917   0.976  12.311  0.0988  0.0955 -0.3653
16053TIP3    H169650   2.926   0.915  12.238  1.0048 -0.3004  0.0653
16053TIP3    H269651   2.991   1.036  12.301  0.7223 -0.4743  0.6889
16054TIP3   OH269652   0.305   0.007  46.131 -0.0415 -0.5417 -0.3390
16054TIP3    H169653   0.272  -0.075  46.094  2.0479 -1.0746 -1.1454
16054TIP3    H269654   0.371  -0.020  46.194 -0.2853  0.5185  0.3980
16055TIP3   OH269655   3.107   2.134   3.927 -0.4217 -0.3818 -0.6525
16055TIP3    H169656   3.035   2.075   3.905 -0.9093 -0.3891  0.8728
16055TIP3    H269657   3.174   2.078   3.964  0.7043 -0.4735 -2.6848
16056TIP3   OH269658   2.651   2.484  16.629  0.3817  0.7462  0.5245
16056TIP3    H169659   2.576   2.536  16.602  0.3993  0.8505  0.6799
16056TIP3    H269660   2.614   2.407  16.670  0.3091 -0.1768 -1.1621
16057TIP3   OH269661   0.536   0.865  15.439 -0.4019  0.5979 -0.3760
16057TIP3    H169662   0.537   0.922  15.517 -0.0281  1.9090 -1.3116
16057TIP3    H269663   0.446   0.834  15.434 -0.1076 -0.7584  1.4262
16058TIP3   OH269664   1.089   3.155   2.292 -0.4681  0.3020  0.2738
16058TIP3    H169665   1.130   3.069   2.302  1.9966  1.2040 -1.2406
16058TIP3    H269666   1.106   3.199   2.375 -0.7507 -0.2535  0.6372
16059TIP3   OH269667   2.430   3.112  49.550  0.2442  0.5711 -0.5831
16059TIP3    H169668   2.340   3.145  49.539  0.9400  2.3722 -1.1465
16059TIP3    H269669   2.436   3.092  49.644 -0.2967  1.8728 -0.2417
16060TIP3   OH269670   0.435   3.086  16.866  0.2269  0.6607 -0.1723
16060TIP3    H169671   0.431   2.995  16.836 -1.3792  0.3663  0.8502
16060TIP3    H269672   0.517   3.091  16.915 -0.3336 -0.6415  0.9613
16061TIP3   OH269673   2.570   2.458  21.958 -0.7021  0.1242 -0.2832
16061TIP3    H169674   2.582   2.427  22.047 -0.5971  1.2812  0.1122
16061TIP3    H269675   2.479   2.438  21.938 -1.0040  0.7523  0.4395
16062TIP3   OH269676   2.109   2.054  49.854 -0.0060 -0.1071  0.0768
16062TIP3    H169677   2.169   2.013  49.915  0.8281  0.8565 -0.0704
16062TIP3    H269678   2.135   2.146  49.852  0.4043 -0.2024 -2.1627
16063TIP3   OH269679   2.283   2.781  47.482 -0.0990 -0.5863 -0.6954
16063TIP3    H169680   2.369   2.822  47.490  0.3696 -1.4627 -1.0735
16063TIP3    H269681   2.291   2.699  47.532 -0.7441 -0.6268 -0.6498
16064TIP3   OH269682   0.601   1.603   7.060  0.2861 -0.4393 -0.1158
16064TIP3    H169683   0.644   1.612   7.145  1.0157 -0.4672 -0.4759
16064TIP3    H269684   0.673   1.586   6.998 -0.2476 -0.5427 -0.7165
16065TIP3   OH269685   0.173   0.354   0.972  0.1657 -0.0979 -0.3734
16065TIP3    H169686   0.155   0.399   0.890  0.4626 -2.5799 -1.8988
16065TIP3    H269687   0.126   0.405   1.039 -0.8682  1.4343 -2.1840
16066TIP3   OH269688   2.608   3.402  17.823 -0.2465 -0.2131  0.2332
16066TIP3    H169689   2.546   3.346  17.870 -0.2310 -0.5483 -0.1389
16066TIP3    H269690   2.576   3.402  17.733  0.7058 -0.9621 -0.1117
16067TIP3   OH269691   2.601   2.093   5.857 -0.5254  0.2727  0.0484
16067TIP3    H169692   2.662   2.130   5.920  0.1540  0.1543 -0.5219
16067TIP3    H269693   2.532   2.159   5.848 -0.0785  0.7551  0.1274
16068TIP3   OH269694   2.094   2.992  64.437  0.0503 -0.0459  0.3692
16068TIP3    H169695   2.164   3.013  64.375 -0.0040  2.6760  1.1065
16068TIP3    H269696   2.129   3.018  64.522 -0.9031 -1.1540  1.1268
16069TIP3   OH269697   2.410   0.293  17.054 -0.0538  0.4790 -0.1002
16069TIP3    H169698   2.444   0.335  17.133  1.6341 -0.9554 -0.0053
16069TIP3    H269699   2.483   0.295  16.993 -0.1432 -1.6295 -0.3382
16070TIP3   OH269700   1.120   1.314  64.920  0.4742 -0.0176 -0.0351
16070TIP3    H169701   1.085   1.336  64.833  3.0070 -1.4129 -1.5382
16070TIP3    H269702   1.212   1.294  64.904  0.6017 -2.1595  2.6821
16071TIP3   OH269703   0.407   2.021  45.945  0.1465  0.7015  0.2591
16071TIP3    H169704   0.352   1.947  45.968 -1.2893  1.6587  0.0621
16071TIP3    H269705   0.372   2.052  45.861  2.8512 -0.3992 -1.4107
16072TIP3   OH269706   2.787   0.250  15.895  0.0978  0.0737 -0.0199
16072TIP3    H169707   2.762   0.162  15.868  1.1045 -0.0591 -0.5785
16072TIP3    H269708   2.720   0.276  15.958 -1.2136 -0.3682 -1.1972
16073TIP3   OH269709   1.609   3.223  43.204  0.0726 -0.0038  0.4894
16073TIP3    H169710   1.596   3.164  43.279  0.6996  0.3592  0.8949
16073TIP3    H269711   1.537   3.203  43.145  0.3136 -1.2282  0.5862
16074TIP3   OH269712   1.018   0.067   5.848  0.4886  0.3860  0.3189
16074TIP3    H169713   0.996   0.109   5.765 -1.0576  1.0443  1.0153
16074TIP3    H269714   1.113   0.078   5.856  0.9424 -1.0880 -2.0616
16075TIP3   OH269715   3.203   2.324  59.943  0.2591  0.1256 -0.3619
16075TIP3    H169716   3.291   2.313  59.979  0.5099  0.5127 -0.8572
16075TIP3    H269717   3.208   2.404  59.890 -0.4327  0.2424 -0.2580
16076TIP3   OH269718   1.528   1.030  13.396 -0.1149 -0.0802 -0.3155
16076TIP3    H169719   1.526   1.125  13.393  2.2340  0.0409  0.1010
16076TIP3    H269720   1.441   1.003  13.365 -1.6417  2.1920  1.5732
16077TIP3   OH269721   0.508   0.746  53.756 -0.0552  0.1601 -0.4431
16077TIP3    H169722   0.468   0.679  53.701 -0.9308  0.2033  0.1236
16077TIP3    H269723   0.490   0.828  53.711 -3.6302  0.5753  1.3966
16078TIP3   OH269724   3.003   1.013  14.416 -0.2797  0.4943  0.0327
16078TIP3    H169725   3.051   0.942  14.372 -0.1481 -0.2609  1.3461
16078TIP3    H269726   3.036   1.012  14.506 -2.1165  0.5239  0.7522
16079TIP3   OH269727   0.572   0.450  20.980 -0.1048 -0.0384  0.1425
16079TIP3    H169728   0.488   0.438  20.936  0.8068  0.6682 -1.9040
16079TIP3    H269729   0.616   0.366  20.969  0.3267  0.2990 -0.8035
16080TIP3   OH269730   1.702   2.786  58.017 -0.0835  0.3612  0.0614
16080TIP3    H169731   1.773   2.793  58.081  0.0384  1.5205 -0.1624
16080TIP3    H269732   1.720   2.856  57.955 -0.0322 -0.9408 -1.4320
16081TIP3   OH269733   0.728   0.277  34.080 -0.6856 -0.7235  0.4057
16081TIP3    H169734   0.741   0.325  33.999  1.7467 -0.1890  1.0201
16081TIP3    H269735   0.653   0.319  34.122  0.3023  1.4340  0.1085
16082TIP3   OH269736   1.747   1.028  20.820  0.7017 -0.0457 -0.2288
16082TIP3    H169737   1.723   0.994  20.733 -0.1935 -0.4364  0.1631
16082TIP3    H269738   1.727   0.956  20.880  1.4670  0.1637  0.2939
16083TIP3   OH269739   2.043   0.719  56.703 -0.3658 -0.6810 -0.3415
16083TIP3    H169740   2.074   0.639  56.659 -0.8248 -1.6684  1.0589
16083TIP3    H269741   2.048   0.698  56.796 -0.1800  1.0691  0.0615
16084TIP3   OH269742   1.822   0.115  46.739  0.5802 -0.6642 -0.5249
16084TIP3    H169743   1.887   0.170  46.695  0.6066 -1.0913 -1.0354
16084TIP3    H269744   1.825   0.142  46.830  1.4386 -0.6332 -0.5502
16085TIP3   OH269745   3.309   1.970  14.184  0.3936  0.2367  0.5172
16085TIP3    H169746   3.347   1.974  14.271  0.0176  0.3072  0.6796
16085TIP3    H269747   3.313   1.877  14.160  1.4275  0.3610  0.1891
16086TIP3   OH269748   3.157   0.346   0.572 -0.0958  0.0486 -0.0499
16086TIP3    H169749   3.148   0.387   0.486  1.3019  3.2483  1.2008
16086TIP3    H269750   3.234   0.290   0.564 -1.0210 -1.1224 -1.3066
16087TIP3   OH269751   1.221   2.556  35.358  0.2127 -0.2717  0.2305
16087TIP3    H169752   1.313   2.566  35.384 -0.0960 -1.7160  2.0758
16087TIP3    H269753   1.208   2.461  35.353 -1.8271 -0.2059  2.6092
16088TIP3   OH269754   0.725   1.925  18.238  0.3616 -0.2511  0.8306
16088TIP3    H169755   0.700   1.934  18.330 -1.5984  0.1477  0.3206
16088TIP3    H269756   0.642   1.935  18.190  1.5669  1.3971 -1.0872
16089TIP3   OH269757   0.081   2.282   8.249 -0.2123  0.2302  0.2617
16089TIP3    H169758   0.164   2.314   8.284  1.0859 -1.7419 -0.8013
16089TIP3    H269759   0.090   2.290   8.154 -1.3194  0.1013  0.1248
16090TIP3   OH269760   3.308   0.376  57.978  0.5677 -0.1841 -0.3314
16090TIP3    H169761   3.392   0.331  57.976  1.3635  1.2100 -2.4551
16090TIP3    H269762   3.280   0.378  57.886 -0.7392  1.2189  0.0507
16091TIP3   OH269763   1.689   1.322  48.406 -0.5221 -0.2982  0.2748
16091TIP3    H169764   1.656   1.310  48.317  2.3705  0.3755 -0.9993
16091TIP3    H269765   1.684   1.235  48.446  0.3118 -1.1492 -1.3827
16092TIP3   OH269766   2.514   1.709   2.642  0.7664 -0.0476 -0.1246
16092TIP3    H169767   2.606   1.715   2.616  1.0998  1.0372  1.2141
16092TIP3    H269768   2.466   1.713   2.559  1.8398  1.8173 -0.7065
16093TIP3   OH269769   2.927   2.209  59.410 -0.7469  0.4571  0.4058
16093TIP3    H169770   2.930   2.115  59.426 -0.0505  0.5977  1.1725
16093TIP3    H269771   2.847   2.222  59.360 -1.2111 -0.4641  0.8787
16094TIP3   OH269772   3.091   3.126  58.400  0.0782  0.6873  0.0725
16094TIP3    H169773   3.187   3.127  58.398  0.0697  0.3994 -0.5905
16094TIP3    H269774   3.066   3.045  58.356 -0.5139  1.8158 -1.7841
16095TIP3   OH269775   2.193   2.638  49.197 -0.2003  0.3340 -0.0569
16095TIP3    H169776   2.227   2.559  49.238  1.5746  0.9559 -0.2199
16095TIP3    H269777   2.099   2.623  49.189  0.0631 -1.6527  0.1054
16096TIP3   OH269778   1.174   1.526  57.769  0.3735  0.1166  0.4773
16096TIP3    H169779   1.216   1.611  57.781 -1.5729  1.0215  1.3807
16096TIP3    H269780   1.181   1.509  57.675 -0.1452  1.8373  0.0874
16097TIP3   OH269781   1.568   0.883  26.863 -0.5513  0.3028  0.2020
16097TIP3    H169782   1.502   0.834  26.912  0.6988 -1.7464 -0.0779
16097TIP3    H269783   1.574   0.967  26.909 -1.4910 -0.4498  1.7934
16098TIP3   OH269784   1.590   2.084   4.044 -0.1799 -0.5594 -0.0908
16098TIP3    H169785   1.521   2.151   4.044  0.5680  0.2515 -1.5221
16098TIP3    H269786   1.655   2.117   4.106  1.2883  1.3100 -2.4614
16099TIP3   OH269787   0.087   3.172  10.995  0.0592 -0.1620  0.1203
16099TIP3    H169788   0.044   3.146  11.077  0.0596 -0.9983 -0.1270
16099TIP3    H269789   0.149   3.101  10.977 -0.5457 -0.4260 -1.0366
16100TIP3   OH269790   1.075   3.120   2.967 -0.3111 -0.5925 -0.1766
16100TIP3    H169791   0.986   3.115   3.001 -0.8382 -1.8522 -1.6564
16100TIP3    H269792   1.081   3.208   2.928 -0.5144 -0.0963  0.8561
16101TIP3   OH269793   0.136   0.432  43.765 -0.4190 -0.4021  0.1542
16101TIP3    H169794   0.154   0.353  43.817 -2.5369 -0.3766  1.0342
16101TIP3    H269795   0.210   0.490  43.782  0.4884 -1.6455  0.6004
16102TIP3   OH269796   0.698   1.777  41.963 -0.1983  0.7326 -0.0950
16102TIP3    H169797   0.782   1.762  42.006 -0.8534 -0.8026  0.7401
16102TIP3    H269798   0.636   1.722  42.011 -1.3548  0.4970 -1.7555
16103TIP3   OH269799   2.825   1.218  21.464  0.4501  0.1604 -0.2298
16103TIP3    H169800   2.834   1.127  21.492 -1.1178  0.1146  0.2066
16103TIP3    H269801   2.914   1.254  21.470  1.3621 -1.6688 -1.6728
16104TIP3   OH269802   1.455   1.048  54.537  0.0537 -0.1391  0.3316
16104TIP3    H169803   1.498   1.129  54.564 -0.8662  0.7865 -0.8828
16104TIP3    H269804   1.512   0.978  54.570  0.1925  0.9341  2.5602
16105TIP3   OH269805   2.677   0.982  27.205 -0.7089 -0.2732  0.2345
16105TIP3    H169806   2.591   0.976  27.163 -0.1458  0.1504 -1.0309
16105TIP3    H269807   2.677   1.067  27.249 -0.5909  0.1755 -0.6095
16106TIP3   OH269808   0.804   1.412  56.926 -0.0340  0.6518  0.6867
16106TIP3    H169809   0.710   1.398  56.924  0.1281 -0.4777  0.8137
16106TIP3    H269810   0.823   1.462  56.847 -0.6453  0.2931  0.3140
16107TIP3   OH269811   2.080   3.272  59.735  0.1037  0.0941 -0.2994
16107TIP3    H169812   2.023   3.195  59.743  0.6017 -0.1742  0.8963
16107TIP3    H269813   2.027   3.337  59.688 -0.2989 -0.9845 -1.3976
16108TIP3   OH269814   3.067   2.524   9.735  0.1163 -0.0599 -0.8060
16108TIP3    H169815   2.989   2.504   9.683 -0.3500 -0.2470 -0.0571
16108TIP3    H269816   3.134   2.547   9.671 -1.1629  2.3651 -1.4244
16109TIP3   OH269817   0.745   0.802  21.101 -0.1762 -0.2093  0.2049
16109TIP3    H169818   0.741   0.893  21.070 -0.9112 -1.2170 -3.1546
16109TIP3    H269819   0.657   0.784  21.134 -0.0041  0.3026  0.9568
16110TIP3   OH269820   2.303   2.580  18.320 -0.6347 -0.8202 -0.0900
16110TIP3    H169821   2.219   2.556  18.280 -0.8643 -0.8890  0.4211
16110TIP3    H269822   2.366   2.575  18.249 -1.0100 -1.0951 -0.4064
16111TIP3   OH269823   2.306   2.573  50.519  0.4017  0.4828  0.2695
16111TIP3    H169824   2.278   2.492  50.563  1.1382 -0.4601 -0.9413
16111TIP3    H269825   2.353   2.622  50.587 -0.2266 -0.0042  1.0717
16112TIP3   OH269826   1.036   2.251  18.669 -0.6008  0.7064 -0.0137
16112TIP3    H169827   0.955   2.248  18.618 -0.2445  2.1880 -0.7196
16112TIP3    H269828   1.096   2.302  18.615  0.6973 -0.0669  0.6584
16113TIP3   OH269829   0.911   1.162  62.373 -0.1743  0.5464 -0.6807
16113TIP3    H169830   0.864   1.086  62.338 -0.2014 -0.3219  1.1455
16113TIP3    H269831   0.860   1.238  62.345 -2.0533 -0.3098  0.2960
16114TIP3   OH269832   1.506   3.434  62.121  0.2285 -0.1283  0.5066
16114TIP3    H169833   1.433   3.427  62.059  0.8379 -0.3560 -0.1885
16114TIP3    H269834   1.503   3.524  62.151  0.7131  0.3563 -0.8338
16115TIP3   OH269835   2.567   0.154  58.299  0.0337  0.8542  0.1160
16115TIP3    H169836   2.533   0.070  58.269 -0.4626  1.2662 -0.5080
16115TIP3    H269837   2.633   0.131  58.365  1.3199 -0.0894 -1.4309
16116TIP3   OH269838   1.498   1.491  57.356 -0.6455 -0.0616  0.1156
16116TIP3    H169839   1.572   1.435  57.379 -0.3911  0.7008  1.1952
16116TIP3    H269840   1.422   1.447  57.394 -1.3891 -2.6243 -3.6818
16117TIP3   OH269841   0.191   0.399   1.556  0.1329 -0.1486 -0.1190
16117TIP3    H169842   0.210   0.309   1.580 -0.3238  0.1144  1.2967
16117TIP3    H269843   0.278   0.439   1.543  0.3406 -0.7160 -0.5539
16118TIP3   OH269844   1.912   0.920  22.048  0.3915  0.7204 -0.2107
16118TIP3    H169845   1.832   0.867  22.044  0.1679  1.1207 -2.0826
16118TIP3    H269846   1.904   0.968  22.131 -1.6217  1.1920 -0.6039
16119TIP3   OH269847   0.414   0.393  15.675 -0.2640  0.5854  0.5070
16119TIP3    H169848   0.407   0.313  15.623  0.7150  0.4829  0.5167
16119TIP3    H269849   0.501   0.389  15.714 -0.1529  1.7043  0.4129
16120TIP3   OH269850   1.732   0.890  60.057  0.5938 -0.1895  0.0075
16120TIP3    H169851   1.787   0.859  59.985  0.5437 -1.4548  0.4848
16120TIP3    H269852   1.733   0.818  60.120 -0.7950  0.1622  0.4686
16121TIP3   OH269853   1.134   1.670  36.299 -0.4775  0.7014  0.5882
16121TIP3    H169854   1.213   1.647  36.349  0.1257 -3.3551 -1.7505
16121TIP3    H269855   1.167   1.723  36.226  0.0768 -0.4794 -0.0493
16122TIP3   OH269856   0.796   1.815  54.307 -0.6826  0.0486  0.2001
16122TIP3    H169857   0.860   1.819  54.378 -1.1201 -1.3489  0.7125
16122TIP3    H269858   0.815   1.891  54.253  0.0641  0.8070  1.4735
16123TIP3   OH269859   2.416   2.493   7.061  0.1538  0.4634 -0.3487
16123TIP3    H169860   2.418   2.450   6.975  0.8977 -0.8723  0.3111
16123TIP3    H269861   2.495   2.547   7.062 -0.1937  1.0012 -0.7329
16124TIP3   OH269862   2.213   3.136   9.450  0.1878  0.1722  0.1690
16124TIP3    H169863   2.195   3.095   9.535 -0.3028 -1.5744 -0.7518
16124TIP3    H269864   2.294   3.096   9.421 -1.4165 -1.9294 -1.7545
16125TIP3   OH269865   1.021   1.481  47.259  0.1682  0.6883 -0.2393
16125TIP3    H169866   1.098   1.453  47.211  2.0044 -0.3221  2.9988
16125TIP3    H269867   1.050   1.555  47.312 -1.5651  1.3906 -0.1794
16126TIP3   OH269868   1.577   0.517  15.677  0.2072  0.4899  0.2768
16126TIP3    H169869   1.644   0.463  15.636 -0.9787 -0.5056 -0.4515
16126TIP3    H269870   1.545   0.464  15.750 -0.3238  0.5819  0.1196
16127TIP3   OH269871   3.077   2.437   6.343 -0.0751 -0.1549  0.1334
16127TIP3    H169872   3.172   2.434   6.330 -0.1496 -1.5067 -0.2858
16127TIP3    H269873   3.046   2.352   6.311 -1.4083  0.1984  0.4286
16128TIP3   OH269874   2.915   2.423  12.796  0.6087 -0.2743  0.2954
16128TIP3    H169875   2.840   2.462  12.751  1.8237 -0.6607 -2.2694
16128TIP3    H269876   2.987   2.485  12.782  1.1744 -0.6643  1.3102
16129TIP3   OH269877   0.755   0.148  50.979  0.3718 -0.5547  0.0636
16129TIP3    H169878   0.833   0.119  50.933  0.6291 -0.3139  0.3478
16129TIP3    H269879   0.684   0.139  50.915  1.0564  1.9158 -1.1516
16130TIP3   OH269880   2.233   0.485  56.817 -0.3567 -0.1576 -0.1962
16130TIP3    H169881   2.196   0.546  56.881  0.3982 -2.8794  3.0967
16130TIP3    H269882   2.326   0.506  56.814 -0.6205  0.9659 -1.7160
16131TIP3   OH269883   1.121   3.034  66.033 -0.0230  0.0745 -0.3069
16131TIP3    H169884   1.114   3.115  66.083  1.6163  0.2864 -0.3488
16131TIP3    H269885   1.031   3.004  66.021 -0.8427  2.8275 -1.8773
16132TIP3   OH269886   2.904   1.141  47.225 -0.0206  0.1544  0.4573
16132TIP3    H169887   2.924   1.168  47.136  0.7199  0.8984  0.8372
16132TIP3    H269888   2.952   1.202  47.281  1.5700 -1.7718  1.3629
16133TIP3   OH269889   1.918   3.241  10.618 -0.0608 -0.2305  0.1212
16133TIP3    H169890   1.863   3.248  10.696  0.5267  0.4783  0.4851
16133TIP3    H269891   1.973   3.319  10.620 -0.2755 -0.0130 -1.2037
16134TIP3   OH269892   0.048   2.578  48.179  0.0998 -0.4884 -0.1706
16134TIP3    H169893   0.050   2.577  48.083 -0.1874 -0.1811 -0.1825
16134TIP3    H269894   0.136   2.606  48.204 -0.0102  0.0393 -0.3593
16135TIP3   OH269895   3.219   2.294  53.413  0.5704  0.1101 -0.0352
16135TIP3    H169896   3.259   2.211  53.440  0.5395  0.1339  0.0832
16135TIP3    H269897   3.140   2.302  53.466  0.7882  0.4121  0.2492
16136TIP3   OH269898   1.515   1.288  58.801  0.1299  0.1530  0.1952
16136TIP3    H169899   1.508   1.247  58.715  0.9006 -1.5034  0.8756
16136TIP3    H269900   1.609   1.284  58.822  0.1127  1.5553  0.6454
16137TIP3   OH269901   0.007   0.173  49.494 -0.6356 -0.6519  0.0869
16137TIP3    H169902  -0.043   0.163  49.413 -0.4585 -1.7372  0.0952
16137TIP3    H269903   0.010   0.267  49.510 -0.7480 -0.4370 -1.1222
16138TIP3   OH269904   1.271   1.286  52.141  0.2007  0.0600 -0.4129
16138TIP3    H169905   1.306   1.268  52.228  1.3536  2.9822 -0.1323
16138TIP3    H269906   1.176   1.273  52.150  0.3322  0.0369  1.2109
16139TIP3   OH269907   1.094   1.071  17.823  0.5915  0.0070  0.3701
16139TIP3    H169908   1.083   1.147  17.765 -0.7903  0.3813  1.0818
16139TIP3    H269909   1.167   1.023  17.785 -0.3756  0.1329 -1.8065
16140TIP3   OH269910   0.773   2.804   0.918  0.3076 -0.0357  0.1599
16140TIP3    H169911   0.692   2.825   0.964 -0.1797 -0.0841 -0.6557
16140TIP3    H269912   0.842   2.842   0.972 -0.1363 -1.1119  1.5474
16141TIP3   OH269913   2.333   1.043  55.784 -0.0798 -0.6051  0.1309
16141TIP3    H169914   2.272   1.074  55.716  0.0150  0.3693  0.4705
16141TIP3    H269915   2.302   0.955  55.805 -0.1768 -0.8843 -1.0987
16142TIP3   OH269916   1.949   1.826  15.690  0.2775  0.3437  0.0078
16142TIP3    H169917   1.896   1.767  15.636  1.8990 -1.9660  0.7572
16142TIP3    H269918   1.964   1.777  15.771  0.5163  2.4257  1.2924
16143TIP3   OH269919   0.096   1.397  53.624 -0.1939  0.4363 -0.0514
16143TIP3    H169920   0.148   1.406  53.704 -0.0506  1.8114 -0.2769
16143TIP3    H269921   0.006   1.389  53.655 -0.1802  1.3041  0.2622
16144TIP3   OH269922   0.681   0.089  64.813  0.1891 -0.7545  0.4833
16144TIP3    H169923   0.652  -0.000  64.794  0.7461 -0.8427  0.0298
16144TIP3    H269924   0.600   0.138  64.826 -0.1542 -1.0782 -0.3611
16145TIP3   OH269925   0.086   1.151  60.239 -0.1247  0.0973  0.0379
16145TIP3    H169926   0.019   1.175  60.303  0.6816 -0.4694  1.1205
16145TIP3    H269927   0.048   1.077  60.192 -1.3934  1.5019 -1.3064
16146TIP3   OH269928   3.438   2.225  21.050 -0.1661  0.4991 -0.3148
16146TIP3    H169929   3.406   2.139  21.078 -0.3840  0.7537  0.2461
16146TIP3    H269930   3.400   2.286  21.113 -0.5361  1.0840 -1.0864
16147TIP3   OH269931   1.174   0.731  58.592  0.7970 -0.7439 -0.1972
16147TIP3    H169932   1.081   0.749  58.578  0.7675  0.9827  1.7247
16147TIP3    H269933   1.217   0.759  58.511 -0.1462  0.6449 -0.2531
16148TIP3   OH269934   0.893   1.244  19.368 -0.3552 -0.1973  0.0902
16148TIP3    H169935   0.945   1.208  19.440  0.3983  0.3076 -0.2010
16148TIP3    H269936   0.923   1.196  19.291  0.2943  0.6888 -0.2181
16149TIP3   OH269937   3.320   2.894  19.222  0.4066  0.0542 -0.4073
16149TIP3    H169938   3.226   2.910  19.229  0.4521  0.4390 -0.6150
16149TIP3    H269939   3.337   2.821  19.281  0.3844  1.5638  1.5937
16150TIP3   OH269940   3.125   1.615  60.799 -0.2147  0.2069 -0.2810
16150TIP3    H169941   3.175   1.687  60.837 -0.2801 -0.2716  0.7524
16150TIP3    H269942   3.177   1.587  60.724  0.3466  0.6484 -0.0689
16151TIP3   OH269943   1.205   0.471  46.713  0.1531 -0.0922 -0.7571
16151TIP3    H169944   1.208   0.448  46.806  0.1935 -0.8176 -0.9307
16151TIP3    H269945   1.135   0.416  46.677  1.1448 -0.9252 -1.4435
16152TIP3   OH269946   2.239   3.272  50.974  0.2715  0.1650 -0.3920
16152TIP3    H169947   2.247   3.361  50.941  2.2391 -0.2914 -1.2743
16152TIP3    H269948   2.284   3.274  51.058  2.3843 -0.4604 -1.4467
16153TIP3   OH269949   0.223   0.074  18.175 -0.3984  0.3461  0.1633
16153TIP3    H169950   0.241  -0.007  18.224  0.4586  0.4790  0.0883
16153TIP3    H269951   0.268   0.061  18.091  1.4346  1.6621  0.8754
16154TIP3   OH269952   2.632   1.917  49.886 -0.3088 -0.2238 -0.3455
16154TIP3    H169953   2.709   1.899  49.941 -3.0163 -2.2133  3.1603
16154TIP3    H269954   2.625   1.841  49.829 -0.4161 -0.6759  0.2661
16155TIP3   OH269955   0.712   1.802   1.602  0.7007 -0.0478  0.0343
16155TIP3    H169956   0.743   1.890   1.621  2.6486 -0.2849 -1.6618
16155TIP3    H269957   0.687   1.805   1.510 -0.8160 -0.8683  0.3911
16156TIP3   OH269958   0.566   1.674  21.371  0.4361 -0.2710 -0.1828
16156TIP3    H169959   0.598   1.602  21.426 -1.0103  0.2943  1.5055
16156TIP3    H269960   0.550   1.633  21.286  0.8942 -1.6386  0.3512
16157TIP3   OH269961   2.674   1.946  53.003  0.2926  0.1670 -0.0481
16157TIP3    H169962   2.757   1.928  53.046 -0.1475  0.0518  0.7593
16157TIP3    H269963   2.697   2.005  52.931  1.1671 -0.4165 -0.2577
16158TIP3   OH269964   1.255   3.194  18.426  0.1212  0.2816 -0.0730
16158TIP3    H169965   1.173   3.233  18.456 -0.3511 -1.6205  1.2872
16158TIP3    H269966   1.273   3.237  18.342 -1.3425  1.9656  0.4236
16159TIP3   OH269967   2.816   1.758  55.290 -0.0203 -0.0599 -1.1554
16159TIP3    H169968   2.768   1.720  55.216  1.0304 -0.0388 -1.8623
16159TIP3    H269969   2.901   1.714  55.289  0.7756  1.4135 -1.2331
16160TIP3   OH269970   1.122   0.860  63.634  0.2914 -0.2267  0.0211
16160TIP3    H169971   1.065   0.847  63.710  0.6546 -1.5262  0.1026
16160TIP3    H269972   1.184   0.928  63.661  0.6809 -0.9663  1.0678
16161TIP3   OH269973   1.368   3.099  57.606 -0.6969  0.5725 -0.4532
16161TIP3    H169974   1.439   3.156  57.635 -0.6087  0.2838 -0.0897
16161TIP3    H269975   1.366   3.109  57.511 -0.3170  0.7562 -0.4436
16162TIP3   OH269976   3.299   2.002  49.719 -0.4875 -0.6365 -0.3589
16162TIP3    H169977   3.246   2.075  49.753 -0.0397  0.0623 -1.1186
16162TIP3    H269978   3.335   2.035  49.637 -0.7379 -1.9390 -1.0124
16163TIP3   OH269979   1.051   2.750  14.038  0.0959 -0.0325  0.5196
16163TIP3    H169980   0.980   2.729  14.099 -1.7853 -0.1113 -1.5488
16163TIP3    H269981   1.093   2.828  14.075 -2.3053  1.1683  0.9062
16164TIP3   OH269982   1.458   2.178  54.652 -0.0740 -0.0894  0.9377
16164TIP3    H169983   1.516   2.196  54.726 -0.6688  1.8477  0.9920
16164TIP3    H269984   1.514   2.187  54.574  0.0754  0.0931  1.0651
16165TIP3   OH269985   2.657   3.276  57.781  0.3122 -0.5573 -0.3073
16165TIP3    H169986   2.568   3.280  57.814  0.8236 -0.8738  1.2237
16165TIP3    H269987   2.704   3.222  57.845  1.6748 -0.0973 -0.8677
16166TIP3   OH269988   2.791   3.154  60.955  0.6829  0.2698  0.4963
16166TIP3    H169989   2.706   3.198  60.952  1.1331  1.1340 -0.0241
16166TIP3    H269990   2.853   3.221  60.926  1.1967 -1.2663 -2.2691
16167TIP3   OH269991   3.235   0.098   3.468 -0.5111 -0.3532  0.5412
16167TIP3    H169992   3.233   0.127   3.560  1.9169 -1.3736  0.9933
16167TIP3    H269993   3.213   0.005   3.473 -1.3049 -0.1986 -0.0405
16168TIP3   OH269994   1.385   1.709   4.595 -0.0289  0.2202 -0.4682
16168TIP3    H169995   1.454   1.683   4.533 -0.6748  0.3070 -1.2350
16168TIP3    H269996   1.407   1.799   4.618  0.0335  0.2991 -0.8294
16169TIP3   OH269997   2.477   1.153  13.028  0.2431 -0.0063  0.3282
16169TIP3    H169998   2.396   1.202  13.042  0.1865  0.3344 -1.0276
16169TIP3    H269999   2.546   1.213  13.055  0.1008  0.2264  0.1823
16170TIP3   OH270000   0.145   0.008  65.606 -1.1611  0.2552  0.1388
16170TIP3    H170001   0.147  -0.027  65.695 -0.6036  0.0115  0.0351
16170TIP3    H270002   0.237   0.009  65.579 -1.2639  0.9759 -0.1878
16171TIP3   OH270003   2.402   0.925  55.403 -0.0408  0.1344  0.9549
16171TIP3    H170004   2.423   0.844  55.450 -0.2617 -1.3817 -1.3960
16171TIP3    H270005   2.482   0.947  55.356  0.4111  2.0392  2.4977
16172TIP3   OH270006   3.024   0.778  52.947 -0.2522 -0.1926 -0.1534
16172TIP3    H170007   2.969   0.793  53.024  0.1268  0.5916 -0.0204
16172TIP3    H270008   3.056   0.865  52.924 -0.8685 -0.3186 -1.5876
16173TIP3   OH270009   3.084   0.867  67.320 -0.2066  0.1872 -0.2056
16173TIP3    H170010   3.134   0.948  67.308  0.6114 -0.1149  1.0517
16173TIP3    H270011   3.064   0.838  67.230 -1.9498  2.6227 -0.7181
16174TIP3   OH270012   3.057   3.368  53.210  0.1767  0.3090  0.6599
16174TIP3    H170013   2.962   3.357  53.216  0.1777 -0.1818 -0.0597
16174TIP3    H270014   3.069   3.454  53.170  0.0239  0.2253  0.4293
16175TIP3   OH270015   3.022   0.004  62.906  0.8023  0.8898 -0.0755
16175TIP3    H170016   3.066  -0.072  62.944  0.1922  0.7349  0.3252
16175TIP3    H270017   2.998  -0.024  62.817  1.5697  1.0033 -0.3242
16176TIP3   OH270018   3.354   3.366   1.920 -0.1366 -0.1170 -0.1419
16176TIP3    H170019   3.290   3.323   1.863 -0.2391 -0.9844  0.5991
16176TIP3    H270020   3.396   3.431   1.864  0.1087 -1.2780 -1.3470
16177TIP3   OH270021   0.931   1.805  33.696  0.2942 -0.4787 -0.8318
16177TIP3    H170022   0.874   1.729  33.692  0.5120 -0.7380  0.4396
16177TIP3    H270023   0.972   1.799  33.782  0.4585  0.9717 -0.7827
16178TIP3   OH270024   1.703   2.715  15.246  0.3655 -0.1174 -0.3468
16178TIP3    H170025   1.694   2.807  15.221 -0.8321  0.1786  1.0385
16178TIP3    H270026   1.684   2.714  15.340  2.0604 -1.5393  0.0362
16179TIP3   OH270027   1.793   3.363  65.151 -0.5104 -0.3597 -0.3869
16179TIP3    H170028   1.731   3.345  65.221 -0.2508 -1.0215 -0.3225
16179TIP3    H270029   1.776   3.454  65.127 -0.1985  0.0793  0.9514
16180TIP3   OH270030   0.772   2.820   3.766 -0.3440  0.3335  0.2632
16180TIP3    H170031   0.820   2.761   3.708 -0.3692 -0.6350  1.1958
16180TIP3    H270032   0.707   2.862   3.709  0.5353  0.4724 -0.6826
16181TIP3   OH270033   0.743   0.591  63.904  0.3910  0.2596 -0.2686
16181TIP3    H170034   0.795   0.602  63.983 -0.8617 -0.1788  0.6509
16181TIP3    H270035   0.696   0.509  63.917  1.8587 -1.0655 -2.4902
16182TIP3   OH270036   1.005   0.151  52.331 -0.7410  0.3399 -0.1493
16182TIP3    H170037   1.008   0.235  52.376 -0.0155  0.4332 -0.3540
16182TIP3    H270038   1.071   0.158  52.262 -0.4909 -0.4853 -0.0103
16183TIP3   OH270039   3.172   1.787  48.320  0.2558 -0.3940 -0.0465
16183TIP3    H170040   3.209   1.863  48.275  5.1422 -0.1074  3.6815
16183TIP3    H270041   3.109   1.825  48.382 -1.7833 -0.2252 -2.0472
16184TIP3   OH270042   2.900   0.790  48.831  0.3462 -0.0513 -0.4673
16184TIP3    H170043   2.879   0.842  48.908  1.8728 -0.5133  0.3040
16184TIP3    H270044   2.819   0.746  48.808 -0.3657  0.8175  0.3016
16185TIP3   OH270045   1.094   2.050  19.947  0.2026  0.4265 -0.5852
16185TIP3    H170046   1.170   2.026  19.894  1.4189 -0.7036  1.5374
16185TIP3    H270047   1.121   2.128  19.995 -0.4238  0.7136 -0.6852
16186TIP3   OH270048   1.801   2.841  61.107 -0.4428  0.4398 -1.0856
16186TIP3    H170049   1.796   2.761  61.055 -0.3131  0.7923 -1.6474
16186TIP3    H270050   1.884   2.881  61.081 -0.5623  0.8175 -0.8960
16187TIP3   OH270051   1.022   0.996  47.675  0.3932  0.0983 -0.0010
16187TIP3    H170052   1.083   0.977  47.604  0.4320 -1.1009  0.3317
16187TIP3    H270053   1.044   1.085  47.702  0.7759  0.3476 -1.0924
16188TIP3   OH270054   0.163   1.424  64.667 -0.2676 -0.1353 -0.0771
16188TIP3    H170055   0.211   1.492  64.619 -1.8995  1.0458 -0.1277
16188TIP3    H270056   0.158   1.351  64.606  0.3980  0.1787 -0.5150
16189TIP3   OH270057   2.010   1.317  59.795 -0.4796 -0.0587  0.6612
16189TIP3    H170058   1.949   1.332  59.723  0.1264  0.5727  0.2648
16189TIP3    H270059   1.979   1.236  59.836 -0.7027 -0.5575 -0.4453
16190TIP3   OH270060   2.207   1.562  54.347 -0.5355 -0.2612 -0.2393
16190TIP3    H170061   2.157   1.483  54.365 -2.0916  0.2812 -1.8559
16190TIP3    H270062   2.142   1.633  54.351  0.6077  0.8170  0.0972
16191TIP3   OH270063   2.965   3.258  14.195  0.1336  0.5543  0.1986
16191TIP3    H170064   3.002   3.344  14.218  0.7098  0.3821 -0.0744
16191TIP3    H270065   3.041   3.205  14.171 -0.1807 -0.1544  0.7379
16192TIP3   OH270066   2.598   3.005  57.460 -0.0657 -0.1246  0.5325
16192TIP3    H170067   2.613   2.934  57.397 -0.1251  1.2644 -1.1144
16192TIP3    H270068   2.576   2.960  57.541  2.6302 -2.0720  0.3330
16193TIP3   OH270069   2.023   0.961   9.980  0.1496  0.4200 -0.4054
16193TIP3    H170070   2.025   0.952  10.075  1.2151  1.4342 -0.3009
16193TIP3    H270071   2.092   1.026   9.961 -0.9080  1.2033 -1.7421
16194TIP3   OH270072   2.190   2.920  51.206  0.1493 -0.1172  0.2216
16194TIP3    H170073   2.112   2.944  51.256 -0.1751  1.4673 -0.9571
16194TIP3    H270074   2.260   2.974  51.243  0.0212  0.6643 -0.6349
16195TIP3   OH270075   2.309   3.448  63.968  0.1342 -0.0783 -0.3781
16195TIP3    H170076   2.341   3.358  63.963 -0.9644 -0.5653  0.7958
16195TIP3    H270077   2.374   3.494  64.021  0.4805 -0.2713 -0.6292
16196TIP3   OH270078   0.893   0.127   4.456  0.1206  0.6484 -0.8064
16196TIP3    H170079   0.946   0.070   4.400 -0.1081 -1.0288  0.5737
16196TIP3    H270080   0.941   0.209   4.459  0.5059  0.5520 -2.8310
16197TIP3   OH270081   2.331   2.465  58.784 -0.4423 -0.5253 -0.3646
16197TIP3    H170082   2.368   2.381  58.812 -2.4050 -0.7615  1.8019
16197TIP3    H270083   2.294   2.446  58.697 -0.1093 -1.6641 -0.2762
16198TIP3   OH270084   0.889   1.672  53.549 -0.2839  0.1915  0.0319
16198TIP3    H170085   0.875   1.763  53.523 -1.6785 -0.0974 -0.3283
16198TIP3    H270086   0.949   1.677  53.624  0.5410  1.3143 -0.6779
16199TIP3   OH270087   1.084   1.680  48.508 -0.3990  0.2949  0.1828
16199TIP3    H170088   0.991   1.674  48.531 -0.2828  0.9783  0.8794
16199TIP3    H270089   1.110   1.768  48.537  0.3330  0.3105 -0.4936
16200TIP3   OH270090   3.342   2.851  20.876 -0.0665  0.3581  0.2194
16200TIP3    H170091   3.307   2.764  20.856  1.0962 -0.0301 -0.1696
16200TIP3    H270092   3.376   2.844  20.965  1.1698  0.0341 -0.2620
16201TIP3   OH270093   2.131   2.390  19.594 -0.0308  0.1842 -0.2789
16201TIP3    H170094   2.164   2.389  19.684  1.5955  1.2067 -0.8076
16201TIP3    H270095   2.039   2.366  19.601  0.2969 -0.7169  1.5481
16202TIP3   OH270096   1.928   2.891  66.690 -0.2633  0.2819 -0.2597
16202TIP3    H170097   1.892   2.849  66.768 -1.0052 -0.3982 -0.9493
16202TIP3    H270098   1.855   2.893  66.628  0.6463 -0.3910 -1.3984
16203TIP3   OH270099   2.560   1.251  59.257  0.1582  0.7292  0.3687
16203TIP3    H170100   2.502   1.285  59.189 -0.2157  1.0197  0.8255
16203TIP3    H270101   2.620   1.324  59.276  0.8801  0.3249 -0.3191
16204TIP3   OH270102   2.233   3.254   7.204 -0.6405 -0.0212 -0.2172
16204TIP3    H170103   2.266   3.342   7.217  0.0628 -0.2209 -0.5997
16204TIP3    H270104   2.151   3.266   7.155  1.0649  0.3143 -3.2917
16205TIP3   OH270105   2.474   0.139   6.434 -0.2977 -0.8162  0.2966
16205TIP3    H170106   2.460   0.216   6.380 -0.8720 -1.1978 -0.1020
16205TIP3    H270107   2.454   0.168   6.523  1.7962  0.1438  0.5160
16206TIP3   OH270108   1.373   2.662  62.276 -0.4556 -0.0993  0.8320
16206TIP3    H170109   1.338   2.576  62.250 -0.1650 -0.0878  0.4082
16206TIP3    H270110   1.356   2.719  62.201  0.6396 -0.1388  0.5475
16207TIP3   OH270111   1.314   0.875  42.887  0.3330 -0.0032  0.5232
16207TIP3    H170112   1.243   0.896  42.826  0.6550 -0.0785  0.1243
16207TIP3    H270113   1.340   0.960  42.923  0.7784  0.1497 -0.1501
16208TIP3   OH270114   2.515   2.532  11.565  0.2242  0.0320 -0.6873
16208TIP3    H170115   2.507   2.627  11.556 -0.7711  0.0277  0.0017
16208TIP3    H270116   2.492   2.498  11.479 -1.0697  0.3502 -0.4810
16209TIP3   OH270117   1.881   0.062   8.334  0.6122  0.4241  0.0575
16209TIP3    H170118   1.901   0.082   8.426  0.7879  0.2696  0.0554
16209TIP3    H270119   1.907  -0.029   8.324  0.2545  0.3344 -0.0531
16210TIP3   OH270120   0.420   2.547  63.247 -0.1628 -0.3902 -0.5482
16210TIP3    H170121   0.437   2.541  63.341  1.2547  0.1382 -0.7403
16210TIP3    H270122   0.383   2.634  63.235 -1.5170 -0.9157 -0.3454
16211TIP3   OH270123   2.879   1.437  28.272 -0.1689 -0.0489  0.0750
16211TIP3    H170124   2.869   1.532  28.267 -1.7965 -0.2331 -0.7801
16211TIP3    H270125   2.974   1.423  28.276  0.2859  1.5354 -2.6821
16212TIP3   OH270126   3.207   2.586  53.783 -0.3174  0.6391  0.2432
16212TIP3    H170127   3.131   2.529  53.782 -1.2702  1.8809  0.3233
16212TIP3    H270128   3.173   2.673  53.803  0.6574  1.8967 -2.9128
16213TIP3   OH270129   0.476   1.115  45.963  0.0156 -0.7225 -0.3248
16213TIP3    H170130   0.520   1.098  45.880  0.0921 -1.2914 -0.1723
16213TIP3    H270131   0.517   1.195  45.996 -2.3169  1.5026 -2.4189
16214TIP3   OH270132   1.627   0.565  49.946 -0.1139 -0.2193  0.2989
16214TIP3    H170133   1.713   0.594  49.976  0.0669  0.1905 -0.5753
16214TIP3    H270134   1.602   0.496  50.008  0.8567 -0.3688  0.5449
16215TIP3   OH270135   0.481   3.032   9.509 -0.0426 -0.4527 -0.2920
16215TIP3    H170136   0.549   3.022   9.576  0.5022 -0.4764 -0.8300
16215TIP3    H270137   0.399   3.020   9.555  0.1633  2.2135  0.8992
16216TIP3   OH270138   0.473   1.080   9.837  0.3445  0.8817  0.0001
16216TIP3    H170139   0.523   1.001   9.818 -0.4148  0.5672 -0.7738
16216TIP3    H270140   0.382   1.052   9.833  0.0877  1.4213  1.4848
16217TIP3   OH270141   3.401   2.056   9.413  0.2717  0.0274 -0.0827
16217TIP3    H170142   3.416   2.030   9.322 -0.5767  0.5649 -0.3839
16217TIP3    H270143   3.428   1.979   9.464 -2.7920 -1.8256 -0.9871
16218TIP3   OH270144   0.453   0.972  67.066 -0.4029 -0.4011  0.0156
16218TIP3    H170145   0.402   0.976  67.147  0.1765  1.0081  0.3462
16218TIP3    H270146   0.454   1.062  67.034  0.1485 -0.7796 -1.0760
16219TIP3   OH270147   3.375   0.015  64.245  0.2825  0.4891 -0.1785
16219TIP3    H170148   3.465  -0.014  64.229  0.1893  1.1060 -2.1455
16219TIP3    H270149   3.355  -0.016  64.333  2.3960  0.3065  0.2933
16220TIP3   OH270150   2.584   1.996  50.209  0.4196 -0.4755 -0.2816
16220TIP3    H170151   2.518   2.039  50.155 -0.5732 -1.2304  0.3149
16220TIP3    H270152   2.644   1.956  50.147  1.6576  2.0912 -0.8889
16221TIP3   OH270153   0.364   0.854   6.863 -0.1373  0.2726  0.8253
16221TIP3    H170154   0.403   0.894   6.785 -1.2945 -0.0442  0.0716
16221TIP3    H270155   0.319   0.776   6.830 -0.2388 -0.1302  1.8890
16222TIP3   OH270156   3.023   0.044  19.963 -0.2625 -0.0898 -0.3389
16222TIP3    H170157   3.079   0.104  20.012  0.1325 -0.7362  0.0189
16222TIP3    H270158   2.994  -0.019  20.029 -1.0313 -0.0315 -0.6239
16223TIP3   OH270159   1.909   1.220   0.903 -0.2334  0.0890  0.4885
16223TIP3    H170160   1.997   1.184   0.910 -0.6715 -0.9191  1.0711
16223TIP3    H270161   1.911   1.275   0.825  0.7613 -0.3391  0.1997
16224TIP3   OH270162   3.083   2.501   1.400  0.1712  0.5655  0.0989
16224TIP3    H170163   3.052   2.589   1.380  0.5942  0.9313  0.9871
16224TIP3    H270164   3.026   2.471   1.471  0.9278  0.7026  0.7841
16225TIP3   OH270165   3.319   1.105  18.266  0.6491  0.3453  0.5608
16225TIP3    H170166   3.253   1.175  18.269  0.1608  0.0910 -1.9262
16225TIP3    H270167   3.318   1.068  18.354 -2.0203  0.8471  0.8360
16226TIP3   OH270168   1.784   0.628   9.259  0.0042  0.0715  0.5910
16226TIP3    H170169   1.761   0.655   9.170  0.5547 -0.4389  0.2905
16226TIP3    H270170   1.753   0.700   9.315 -0.5808  0.2704  0.0154
16227TIP3   OH270171   0.876   0.846  56.050 -0.0725 -0.2748 -0.6844
16227TIP3    H170172   0.850   0.922  55.999 -2.1406 -0.3193  0.2366
16227TIP3    H270173   0.800   0.824  56.103  1.1163 -1.8250  0.5051
16228TIP3   OH270174   1.250   2.438   4.826 -0.2080 -0.6359  0.9192
16228TIP3    H170175   1.333   2.469   4.789  0.5149 -2.3268  1.0289
16228TIP3    H270176   1.209   2.516   4.864  0.1500  0.7162 -1.3109
16229TIP3   OH270177   0.834   0.627   1.980 -0.1459  0.0320  0.0746
16229TIP3    H170178   0.784   0.593   2.054  0.0784 -1.0816 -0.2548
16229TIP3    H270179   0.925   0.626   2.009  0.0982 -1.6641 -0.6210
16230TIP3   OH270180   2.694   0.680  50.481 -0.1892 -0.5266 -0.2705
16230TIP3    H170181   2.663   0.619  50.548 -0.0904  0.2659  0.5246
16230TIP3    H270182   2.687   0.766  50.523  5.0187 -0.3283  0.8811
16231TIP3   OH270183   3.151   0.847   0.845  0.3872 -0.2580 -0.0006
16231TIP3    H170184   3.222   0.853   0.909 -0.3010 -1.2085  0.9001
16231TIP3    H270185   3.185   0.789   0.777  0.3930 -0.9554  0.5747
16232TIP3   OH270186   1.973   1.216  21.731  0.4933  0.3162  0.4989
16232TIP3    H170187   2.053   1.268  21.740  1.0051 -0.6378  1.7150
16232TIP3    H270188   1.908   1.278  21.696  1.1504  1.7218  1.6499
16233TIP3   OH270189   0.824   1.692  14.424  0.6315 -0.0031 -0.1021
16233TIP3    H170190   0.869   1.747  14.487  4.2688 -1.7719 -0.9079
16233TIP3    H270191   0.851   1.603  14.446 -1.8791 -1.1725 -1.2719
16234TIP3   OH270192   3.306   2.909   0.352  0.1658  0.1986 -0.0273
16234TIP3    H170193   3.388   2.941   0.314 -0.3643  1.0245 -0.5046
16234TIP3    H270194   3.269   2.852   0.284  0.2514 -0.0230  0.1116
16235TIP3   OH270195   3.358   2.763  16.292  0.2071 -0.4641 -0.2056
16235TIP3    H170196   3.363   2.669  16.280 -0.4521 -0.4542 -0.5786
16235TIP3    H270197   3.296   2.775  16.364  1.5433 -0.3760  0.9679
16236TIP3   OH270198   0.270   1.593   0.998 -0.0484 -0.1734  0.4124
16236TIP3    H170199   0.306   1.682   1.003  1.2820 -0.5785 -1.2581
16236TIP3    H270200   0.178   1.605   0.974  0.7237  0.7357 -2.3757
16237TIP3   OH270201   0.989   2.505  11.209 -0.5297  0.3147 -0.2186
16237TIP3    H170202   0.976   2.412  11.224  1.9290 -0.0310  0.3169
16237TIP3    H270203   0.972   2.546  11.293 -1.0477  0.2861 -0.3071
16238TIP3   OH270204   2.843   0.258  22.022  0.0425 -0.6316 -0.4717
16238TIP3    H170205   2.881   0.293  22.102 -1.3378 -0.7971  0.2862
16238TIP3    H270206   2.918   0.226  21.972  0.9480 -0.3228  0.6472
16239TIP3   OH270207   0.420   1.045   7.306 -0.1166 -0.2472  0.3647
16239TIP3    H170208   0.504   0.999   7.302  0.1248  0.0434  1.8107
16239TIP3    H270209   0.424   1.097   7.386 -1.6299 -0.1293  0.3971
16240TIP3   OH270210   3.146   0.807  21.026  0.3343  0.3561  0.3975
16240TIP3    H170211   3.228   0.790  20.978 -0.1977  1.2356 -0.9028
16240TIP3    H270212   3.091   0.853  20.962 -1.7056 -1.3962  0.7855
16241TIP3   OH270213   1.119   0.196  65.077  0.3753 -0.7546  0.0415
16241TIP3    H170214   1.025   0.194  65.064  0.4837 -1.6294 -0.6395
16241TIP3    H270215   1.152   0.118  65.033  1.4731 -0.1984 -0.1572
16242TIP3   OH270216   0.724   0.937   9.694  0.1843 -0.2969  0.2546
16242TIP3    H170217   0.675   0.858   9.670  1.5507 -1.2463  0.5020
16242TIP3    H270218   0.780   0.954   9.618 -0.7606  1.0155 -0.1910
16243TIP3   OH270219   1.598   1.651  64.983  0.5633 -0.1987 -0.3889
16243TIP3    H170220   1.586   1.597  65.061  0.3053 -0.2306 -0.4478
16243TIP3    H270221   1.524   1.629  64.927  0.2564  0.4736 -0.2661
16244TIP3   OH270222   1.149   2.359  15.877 -0.6824  0.0907  0.4364
16244TIP3    H170223   1.159   2.426  15.945  1.1054 -0.8068  1.1365
16244TIP3    H270224   1.141   2.277  15.925 -0.7104 -0.4198 -0.4195
16245TIP3   OH270225   1.316   1.399  65.907  0.1206  0.5638  0.2971
16245TIP3    H170226   1.273   1.463  65.963 -2.1808 -0.2205 -0.4497
16245TIP3    H270227   1.283   1.417  65.819  0.9681 -0.3995 -0.2474
16246TIP3   OH270228   1.439   0.658  55.787 -0.7483  0.2967 -0.0667
16246TIP3    H170229   1.391   0.734  55.754  0.5612  0.3161 -2.1265
16246TIP3    H270230   1.531   0.679  55.768 -0.2675 -1.3230  0.3589
16247TIP3   OH270231   2.097   1.391   5.842  0.5414 -0.9063 -0.6126
16247TIP3    H170232   2.054   1.476   5.833  0.4003 -0.9486 -0.3521
16247TIP3    H270233   2.034   1.337   5.889 -0.1770 -1.7505 -2.4730
16248TIP3   OH270234   0.050   1.225   2.921  0.6613 -0.2477 -0.1678
16248TIP3    H170235   0.022   1.314   2.903  0.8007  0.0766  1.1361
16248TIP3    H270236   0.145   1.227   2.911  0.7909  0.0453  0.9321
16249TIP3   OH270237   0.674   0.934  51.449 -0.0786 -0.2945 -0.3446
16249TIP3    H170238   0.630   0.998  51.394 -1.4999 -0.5662  0.4394
16249TIP3    H270239   0.745   0.983  51.491 -1.1949  0.8003  0.3068
16250TIP3   OH270240   0.144   3.152  51.339  0.1223 -0.9361 -0.1837
16250TIP3    H170241   0.184   3.197  51.265  0.5977 -1.3079 -0.1542
16250TIP3    H270242   0.217   3.133  51.398 -0.0794 -1.6623 -0.1550
16251TIP3   OH270243   0.042   2.633  45.257 -0.2458  0.3157 -0.3473
16251TIP3    H170244   0.040   2.594  45.170 -2.2278  2.5250 -1.4134
16251TIP3    H270245   0.082   2.719  45.244  2.3586 -0.4939  1.5736
16252TIP3   OH270246   3.192   2.080  54.921 -0.7321 -0.2356 -0.0961
16252TIP3    H170247   3.101   2.073  54.892 -0.7685  0.0107 -0.0427
16252TIP3    H270248   3.188   2.135  54.999 -0.3974  0.7395 -0.7556
16253TIP3   OH270249   1.031   2.929  58.253 -0.1215 -0.1897 -0.3409
16253TIP3    H170250   1.021   2.922  58.158  0.3469  0.4674 -0.4399
16253TIP3    H270251   1.124   2.912  58.268 -0.3558 -1.1524  0.0883
16254TIP3   OH270252   0.681   0.826  65.289  0.1157 -0.1508  0.0551
16254TIP3    H170253   0.666   0.908  65.335 -0.1762 -0.1678 -0.0105
16254TIP3    H270254   0.758   0.843  65.234 -0.0596  0.1414 -0.1066
16255TIP3   OH270255   1.075   1.475  10.280  0.1334 -0.2877 -0.0475
16255TIP3    H170256   0.994   1.499  10.325  0.3396  2.3642 -0.8898
16255TIP3    H270257   1.047   1.412  10.213 -1.1333  0.0505  0.1274
16256TIP3   OH270258   0.042   0.369  54.500  0.4757  0.5169 -0.0313
16256TIP3    H170259   0.002   0.330  54.578  1.1270  0.0050  0.0494
16256TIP3    H270260   0.102   0.435  54.534 -1.3263  2.3412 -0.1878
16257TIP3   OH270261   0.080   0.555  51.872  0.1765 -0.4767 -0.4282
16257TIP3    H170262   0.131   0.538  51.951  1.0875 -1.3604 -1.1855
16257TIP3    H270263   0.076   0.651  51.867  1.5971 -0.3898 -0.2424
16258TIP3   OH270264   1.161   2.508  35.700 -0.5871  0.1371  0.7184
16258TIP3    H170265   1.220   2.523  35.774 -0.0753 -0.3709  0.4263
16258TIP3    H270266   1.160   2.413  35.689  2.3330  0.2740 -2.2513
16259TIP3   OH270267   3.146   0.001  12.571 -0.1308 -0.6145  0.2807
16259TIP3    H170268   3.237  -0.029  12.568  0.3078  0.7258 -0.8719
16259TIP3    H270269   3.138   0.042  12.657  1.1419  1.4562 -0.5177
16260TIP3   OH270270   2.280   1.926  55.836 -0.4667  0.1407  0.0365
16260TIP3    H170271   2.328   1.914  55.918 -1.2279  1.7320  0.7723
16260TIP3    H270272   2.311   1.856  55.779  0.7054 -0.4989  1.3978
16261TIP3   OH270273   1.303   0.262  55.411 -0.2082 -0.1236 -0.5423
16261TIP3    H170274   1.213   0.239  55.389 -1.3496  3.2792  0.0432
16261TIP3    H270275   1.333   0.315  55.337  0.6187  0.4519  0.1935
16262TIP3   OH270276   0.732   2.567  18.487  0.1365 -0.6266 -0.5875
16262TIP3    H170277   0.666   2.513  18.443  0.4191  0.6313 -2.6659
16262TIP3    H270278   0.684   2.645  18.517  0.4309 -0.3004 -0.9550
16263TIP3   OH270279   1.453   0.621  35.798  0.4030 -0.2583 -0.6071
16263TIP3    H170280   1.395   0.565  35.849  1.5602 -0.7839  0.1602
16263TIP3    H270281   1.454   0.582  35.711  0.1589 -0.6460 -0.4367
16264TIP3   OH270282   2.057   1.540  43.884  0.2298  0.3870 -0.4277
16264TIP3    H170283   1.987   1.587  43.929 -0.8440 -0.4142 -1.2069
16264TIP3    H270284   2.041   1.448  43.903 -1.9490 -0.2976 -4.4900
16265TIP3   OH270285   0.772   0.570  58.317  0.2789  1.3653  0.5184
16265TIP3    H170286   0.694   0.594  58.266  1.4618  0.4668 -1.8541
16265TIP3    H270287   0.743   0.494  58.369 -0.4217  0.9360 -0.4518
16266TIP3   OH270288   0.363   0.193  17.360  0.3536  0.1192  0.2070
16266TIP3    H170289   0.403   0.241  17.287 -2.1338  2.2451  0.0968
16266TIP3    H270290   0.430   0.193  17.428  1.7605  0.4892 -1.1108
16267TIP3   OH270291   0.090   1.729  50.473 -0.2193 -0.3792 -0.0745
16267TIP3    H170292   0.000   1.718  50.504  0.1866 -0.8424  0.9993
16267TIP3    H270293   0.110   1.649  50.425 -0.9084  0.4124 -1.7712
16268TIP3   OH270294   2.002   0.378  14.806 -0.1340 -0.2561 -0.4731
16268TIP3    H170295   2.086   0.334  14.817 -0.2176 -0.7714 -1.6936
16268TIP3    H270296   2.011   0.426  14.723 -0.9423 -0.0944 -0.4789
16269TIP3   OH270297   1.633   2.569  48.783  0.1562  0.1021  0.0011
16269TIP3    H170298   1.647   2.550  48.690 -2.8264 -1.6996 -0.1933
16269TIP3    H270299   1.667   2.492  48.828 -0.6229 -0.1279  0.1987
16270TIP3   OH270300   0.586   1.435  38.763 -0.2600  0.5783 -0.3203
16270TIP3    H170301   0.628   1.462  38.845 -1.9997  1.3459  0.3723
16270TIP3    H270302   0.518   1.501  38.748 -1.7136 -0.9955 -0.9854
16271TIP3   OH270303   1.919   1.751  10.315 -0.7071  0.6598  0.0753
16271TIP3    H170304   1.983   1.777  10.381  0.4542  0.0719 -0.7873
16271TIP3    H270305   1.889   1.665  10.343 -2.2719  1.5422  1.2766
16272TIP3   OH270306   0.322   0.942  62.160 -0.7866 -0.0064  0.1118
16272TIP3    H170307   0.254   0.931  62.227  0.0481  0.0075  0.9713
16272TIP3    H270308   0.403   0.914  62.202 -0.5695 -2.2377 -1.6313
16273TIP3   OH270309   0.141   2.461  50.283  0.1660 -0.7314 -0.4320
16273TIP3    H170310   0.176   2.373  50.266  0.3932 -0.4359 -1.6320
16273TIP3    H270311   0.076   2.448  50.351 -0.5789 -2.0171 -1.3248
16274TIP3   OH270312   2.674   0.704  43.684 -0.5793  0.2398  0.1562
16274TIP3    H170313   2.766   0.718  43.661 -0.1953  0.4357  1.7114
16274TIP3    H270314   2.676   0.643  43.757 -1.6525  0.6490  0.5538
16275TIP3   OH270315   0.458   2.457  49.222  0.3689  0.6872  0.5168
16275TIP3    H170316   0.459   2.520  49.150 -0.1279  0.3804  0.2369
16275TIP3    H270317   0.454   2.371  49.180 -0.7860  0.5298  0.8979
16276TIP3   OH270318   2.852   0.435  56.736  0.6922 -0.5811 -0.9065
16276TIP3    H170319   2.803   0.503  56.782 -0.5217 -1.1897 -1.2269
16276TIP3    H270320   2.858   0.467  56.646  1.1483 -0.3801 -0.8070
16277TIP3   OH270321   1.213   0.315  54.320  0.5166  0.6778  0.2762
16277TIP3    H170322   1.265   0.249  54.276  1.4508  0.8278  1.1143
16277TIP3    H270323   1.203   0.385  54.256  0.9550  0.4430 -0.0536
16278TIP3   OH270324   1.323   2.791  11.088 -0.0181  0.9443  0.1834
16278TIP3    H170325   1.267   2.738  11.031 -2.3541  1.5377  1.7674
16278TIP3    H270326   1.346   2.867  11.036 -0.4796  0.5720 -0.5852
16279TIP3   OH270327   0.473   1.642  48.949 -0.1622 -0.1102  0.2331
16279TIP3    H170328   0.441   1.589  48.876  2.0464  1.1224 -1.7417
16279TIP3    H270329   0.444   1.731  48.929  0.0117  0.1703  1.1655
16280TIP3   OH270330   3.184   3.030  43.429  0.9038 -0.4226 -0.2826
16280TIP3    H170331   3.172   3.005  43.521 -0.1144 -1.1912 -0.5992
16280TIP3    H270332   3.219   2.952  43.387  2.7997  0.3812 -0.2961
16281TIP3   OH270333   1.061   3.211   0.939 -0.1214 -0.3185  0.0159
16281TIP3    H170334   1.107   3.133   0.969  0.6415  0.1751  0.1680
16281TIP3    H270335   1.042   3.195   0.847 -1.4299 -1.3546  0.4289
16282TIP3   OH270336   1.619   1.574  48.490  0.0268 -0.4628  0.1616
16282TIP3    H170337   1.651   1.501  48.437  1.5960 -0.2379  0.7330
16282TIP3    H270338   1.599   1.536  48.575 -2.2162 -0.7689 -0.4482
16283TIP3   OH270339   3.365   1.037  62.641  1.0484 -0.6100 -0.6042
16283TIP3    H170340   3.377   0.949  62.677  2.1042 -0.1550  0.2248
16283TIP3    H270341   3.272   1.041  62.619  0.9503 -1.8758 -0.5153
16284TIP3   OH270342   1.558   2.398  56.414 -0.0903 -0.0429  0.4431
16284TIP3    H170343   1.525   2.449  56.340 -0.9794  0.6619  1.3077
16284TIP3    H270344   1.649   2.426  56.423 -1.3073  4.0855  2.9519
16285TIP3   OH270345   1.501   3.041  59.857 -0.2638 -0.1647  0.1736
16285TIP3    H170346   1.482   3.131  59.884 -1.1076  0.2172 -1.5326
16285TIP3    H270347   1.565   3.049  59.786 -1.4226 -0.7653 -0.9946
16286TIP3   OH270348   0.394   1.774  58.741 -0.2637 -0.3298 -0.2985
16286TIP3    H170349   0.446   1.694  58.731 -0.2709 -0.3141 -0.4692
16286TIP3    H270350   0.440   1.839  58.688 -1.4950 -0.8070 -2.0535
16287TIP3   OH270351   2.397   2.258   5.292 -0.5824 -0.8029  0.1618
16287TIP3    H170352   2.368   2.271   5.382 -1.1878 -0.0108 -0.1277
16287TIP3    H270353   2.415   2.165   5.286  0.8693 -0.6406  1.4885
16288TIP3   OH270354   2.914   2.339  64.579 -0.1788  0.0106  0.5612
16288TIP3    H170355   2.961   2.261  64.550 -1.3863 -1.1032  1.4725
16288TIP3    H270356   2.932   2.405  64.512  0.4865 -1.1939 -0.4821
16289TIP3   OH270357   1.846   1.624  48.837  0.6105 -0.5492  0.1441
16289TIP3    H170358   1.845   1.697  48.774 -1.5389  1.1264  1.9588
16289TIP3    H270359   1.756   1.589  48.834  0.8712 -1.3530  1.2761
16290TIP3   OH270360   1.339   0.106   5.162 -0.5021  0.8153  0.0070
16290TIP3    H170361   1.356   0.096   5.069  1.2774  0.9144  0.2883
16290TIP3    H270362   1.253   0.067   5.176 -0.1887 -0.4612 -1.4347
16291TIP3   OH270363   2.603   2.213  51.832  0.2184  0.0808 -0.1917
16291TIP3    H170364   2.581   2.201  51.740 -0.0049  0.2243 -0.1572
16291TIP3    H270365   2.691   2.251  51.830  0.8304 -1.2547 -0.3172
16292TIP3   OH270366   3.386   0.374  53.034  0.3967 -0.3877  0.3768
16292TIP3    H170367   3.343   0.457  53.014 -1.3716 -0.8995  1.8641
16292TIP3    H270368   3.382   0.324  52.952  1.3605  0.9002 -0.4942
16293TIP3   OH270369   1.235   1.753  51.354 -0.5976  0.7054  0.0867
16293TIP3    H170370   1.307   1.814  51.367 -0.0364  0.2787 -0.9225
16293TIP3    H270371   1.185   1.756  51.436  1.1196  0.2551  1.1926
16294TIP3   OH270372   2.443   1.278  16.567 -0.0135  0.1753 -0.2621
16294TIP3    H170373   2.380   1.330  16.617 -0.9343 -0.2645 -0.9403
16294TIP3    H270374   2.414   1.285  16.476 -1.3103 -2.9907 -0.2134
16295TIP3   OH270375   0.498   0.759  17.941  0.1731  0.1235  0.1595
16295TIP3    H170376   0.589   0.746  17.971 -0.8406 -2.5979  2.5883
16295TIP3    H270377   0.446   0.745  18.020 -2.4286  0.9000 -1.3297
16296TIP3   OH270378   2.973   2.096  63.339  0.3085  0.2352  0.4232
16296TIP3    H170379   3.063   2.099  63.374  0.4842  1.5544 -0.1078
16296TIP3    H270380   2.918   2.082  63.416  0.9837 -0.9131  0.7174
16297TIP3   OH270381   3.139   0.167  54.108 -0.4121  0.1236  0.3490
16297TIP3    H170382   3.106   0.211  54.030 -0.1105  0.2210  0.2759
16297TIP3    H270383   3.144   0.075  54.083 -0.3134  0.1551  0.2525
16298TIP3   OH270384   0.175   1.777  57.581 -0.1717 -0.0609 -0.1646
16298TIP3    H170385   0.196   1.695  57.537 -1.1953 -0.2858 -0.2738
16298TIP3    H270386   0.167   1.841  57.511  3.8218  0.9808  0.0861
16299TIP3   OH270387   2.041   2.449  20.759 -0.0744 -0.6235  0.0243
16299TIP3    H170388   1.947   2.446  20.778 -0.2983 -0.9764 -1.0912
16299TIP3    H270389   2.061   2.542  20.755 -0.3498 -0.5434  0.3727
16300TIP3   OH270390   3.375   0.493   1.566 -0.1926  0.2244 -0.0525
16300TIP3    H170391   3.470   0.496   1.574  0.0377  0.6641 -2.2344
16300TIP3    H270392   3.351   0.580   1.534 -0.9408 -0.7099 -2.2898
16301TIP3   OH270393   0.425   1.719   9.695 -0.3427  0.6318  0.2053
16301TIP3    H170394   0.515   1.719   9.729  0.4299 -0.2378 -1.6795
16301TIP3    H270395   0.434   1.745   9.603 -1.8966 -0.4061 -0.2790
16302TIP3   OH270396   3.023   2.263  55.845 -0.0539  0.3601 -0.2960
16302TIP3    H170397   2.963   2.206  55.797 -0.2184  0.3100 -0.0375
16302TIP3    H270398   3.097   2.275  55.786 -0.8845  1.4734 -1.1673
16303TIP3   OH270399   0.695   0.684   6.007 -0.3487  0.2056 -0.2499
16303TIP3    H170400   0.780   0.650   5.979 -0.7555 -0.8884 -0.1859
16303TIP3    H270401   0.704   0.780   6.001  1.2057  0.1484  0.6780
16304TIP3   OH270402   0.304   2.293  12.106 -0.5771  0.3162  0.0814
16304TIP3    H170403   0.291   2.199  12.109 -0.7774  0.3356 -0.1511
16304TIP3    H270404   0.389   2.304  12.063 -0.3682  0.2299  0.4699
16305TIP3   OH270405   0.086   2.403  50.944 -0.3670 -0.1540  0.0669
16305TIP3    H170406   0.095   2.454  50.864 -2.1756  1.5931  0.8972
16305TIP3    H270407   0.160   2.432  50.999 -0.4840  0.4207 -0.0707
16306TIP3   OH270408   0.612   0.084  57.054  0.1192 -0.6035 -0.1134
16306TIP3    H170409   0.556   0.162  57.053 -0.0586 -0.7307 -0.9206
16306TIP3    H270410   0.674   0.099  56.983  1.1433 -0.4556  0.7944
16307TIP3   OH270411   1.284   1.521   0.312 -0.1392 -0.5020  0.3594
16307TIP3    H170412   1.344   1.507   0.238 -0.5716 -1.6272  0.1990
16307TIP3    H270413   1.229   1.442   0.313 -1.8037  0.6184  0.3300
16308TIP3   OH270414   0.709   1.486  65.767 -0.4350 -0.5169  0.4072
16308TIP3    H170415   0.710   1.529  65.681 -0.1503 -1.9783 -0.3440
16308TIP3    H270416   0.777   1.419  65.761 -0.4885 -0.7117  1.7485
16309TIP3   OH270417   1.596   2.088   8.411 -0.2597 -0.0325 -0.2652
16309TIP3    H170418   1.637   2.168   8.444 -1.1606  0.0090  0.8301
16309TIP3    H270419   1.635   2.074   8.325  1.2535  0.5805  0.2902
16310TIP3   OH270420   1.940   2.877  57.341  0.2031 -0.0846 -0.0193
16310TIP3    H170421   1.944   2.836  57.427  0.6873 -0.0550 -0.0273
16310TIP3    H270422   1.935   2.803  57.280 -1.0678 -0.0944  0.0726
16311TIP3   OH270423   0.360   1.328  52.276 -0.2068  0.3610 -0.1821
16311TIP3    H170424   0.450   1.333  52.244  0.0295  1.7378  0.6484
16311TIP3    H270425   0.347   1.236  52.296  0.7867  0.0376 -0.9366
16312TIP3   OH270426   0.086   2.139  57.647 -0.3923 -0.0376  0.1597
16312TIP3    H170427   0.144   2.203  57.605 -0.8545 -0.0990 -0.5778
16312TIP3    H270428   0.051   2.186  57.723 -0.6161  0.5450 -0.2927
16313TIP3   OH270429   0.856   2.716  63.304 -0.0956  0.1968  0.6336
16313TIP3    H170430   0.892   2.684  63.222 -0.4836  0.9377  0.1643
16313TIP3    H270431   0.805   2.642  63.338 -0.7107  0.1832 -0.2741
16314TIP3   OH270432   1.336   2.132   4.852  0.1440 -0.3557  0.1496
16314TIP3    H170433   1.398   2.177   4.910  0.5206  0.0466 -0.5465
16314TIP3    H270434   1.250   2.146   4.892  0.2992  0.7049  0.1308
16315TIP3   OH270435   2.838   1.805  56.576 -0.6666  0.1357  0.2697
16315TIP3    H170436   2.755   1.781  56.535  0.2329  1.2933 -2.5078
16315TIP3    H270437   2.886   1.723  56.583 -1.6191 -0.3800  0.8625
16316TIP3   OH270438   1.347   0.603  16.874 -0.2373  0.0379  0.3615
16316TIP3    H170439   1.321   0.567  16.959  1.8333 -0.0726  0.9974
16316TIP3    H270440   1.349   0.698  16.889  0.0408  0.0236  0.4285
16317TIP3   OH270441   0.265   2.977  21.085 -0.2375  0.0091 -0.2911
16317TIP3    H170442   0.265   3.071  21.103  1.1721  0.0826 -0.6031
16317TIP3    H270443   0.212   2.969  21.006 -3.3233  0.0978  1.5936
16318TIP3   OH270444   2.664   2.030  55.530 -0.1397  0.3653  0.0034
16318TIP3    H170445   2.713   2.055  55.452  0.5082 -0.0562  0.2623
16318TIP3    H270446   2.637   1.940  55.514 -3.5513  1.5247 -1.4574
16319TIP3   OH270447   1.128   2.406  39.592 -0.4350  0.9761 -0.0651
16319TIP3    H170448   1.153   2.322  39.555 -1.2371  1.0120 -0.7262
16319TIP3    H270449   1.041   2.391  39.629  0.5199  0.8144  2.2833
16320TIP3   OH270450   0.906   1.061  15.854 -0.3527 -0.2417  0.3354
16320TIP3    H170451   0.952   0.978  15.861 -0.5624 -0.2745  1.6361
16320TIP3    H270452   0.975   1.127  15.861  0.1509 -0.2217 -3.1292
16321TIP3   OH270453   2.932   0.344  67.345  0.1555 -0.2957 -0.3306
16321TIP3    H170454   2.926   0.337  67.441 -1.4222  0.1681 -0.3741
16321TIP3    H270455   2.926   0.254  67.314  0.3734 -0.4246 -0.0049
16322TIP3   OH270456   3.030   0.201  66.062 -0.4847  0.2345  0.9002
16322TIP3    H170457   2.981   0.125  66.032  0.5539 -0.0611 -0.0958
16322TIP3    H270458   3.069   0.174  66.144  0.6718 -0.6590  0.0732
16323TIP3   OH270459   0.493   0.694   8.444 -0.2022  0.0517 -0.0747
16323TIP3    H170460   0.568   0.653   8.488 -0.3028  1.3602  1.3898
16323TIP3    H270461   0.531   0.747   8.375  0.0706 -0.7302 -0.5415
16324TIP3   OH270462   2.212   3.331  22.504 -0.1852  0.0373 -0.1292
16324TIP3    H170463   2.235   3.282  22.583  0.9430 -0.0906 -0.5216
16324TIP3    H270464   2.133   3.379  22.528  1.4025  1.8586  1.9105
16325TIP3   OH270465   0.510   1.405  59.768  0.3520 -0.0481  0.1170
16325TIP3    H170466   0.525   1.489  59.811 -0.5611 -0.4791  1.3250
16325TIP3    H270467   0.545   1.341  59.830  1.6655 -0.5613 -1.0836
16326TIP3   OH270468   2.463   2.740  10.989 -0.4603  0.0198 -0.7334
16326TIP3    H170469   2.512   2.772  10.914  0.9367  2.2562  0.9936
16326TIP3    H270470   2.486   2.648  10.995  2.4091  0.6286 -0.9091
16327TIP3   OH270471   1.431   0.327   5.298 -0.7515  0.0421  0.3009
16327TIP3    H170472   1.407   0.400   5.241  0.4114  0.8546  0.8017
16327TIP3    H270473   1.399   0.249   5.253  0.0916  0.6599 -1.4592
16328TIP3   OH270474   0.852   0.177  20.925  0.4297  0.7491  0.1724
16328TIP3    H170475   0.757   0.190  20.926  0.2571 -0.2616  2.1675
16328TIP3    H270476   0.863   0.085  20.950  1.8961  0.2790 -2.0086
16329TIP3   OH270477   0.084   2.196  52.030  0.4949 -0.3169 -0.0225
16329TIP3    H170478   0.151   2.236  52.086  0.4101  0.4869 -0.4946
16329TIP3    H270479   0.075   2.255  51.956  0.0588 -0.9926 -0.5248
16330TIP3   OH270480   2.694   0.129  53.296  0.1544 -0.2557 -0.1275
16330TIP3    H170481   2.726   0.040  53.278  1.5559  0.2166 -0.1202
16330TIP3    H270482   2.771   0.184  53.283 -0.7715  0.9966 -0.4034
16331TIP3   OH270483   2.571   3.202  47.813 -0.0419 -0.2461 -0.4054
16331TIP3    H170484   2.569   3.221  47.907 -0.9670 -0.1910 -0.4261
16331TIP3    H270485   2.551   3.285  47.772  1.3117 -0.0430 -0.7062
16332TIP3   OH270486   2.758   1.276   1.333  0.8440 -0.1395  0.2271
16332TIP3    H170487   2.805   1.204   1.290  2.0627 -0.1366  1.4851
16332TIP3    H270488   2.674   1.239   1.358  1.5420 -1.2099  1.0493
16333TIP3   OH270489   0.814   3.344  45.771  0.6198  0.1554  0.0461
16333TIP3    H170490   0.718   3.349  45.767  0.6645  0.4491 -1.6941
16333TIP3    H270491   0.832   3.296  45.852 -0.9606  0.8677  0.8817
16334TIP3   OH270492   1.511   2.500  44.281  0.3703  0.1435 -0.0766
16334TIP3    H170493   1.430   2.488  44.232 -1.1620 -1.2011  2.5204
16334TIP3    H270494   1.577   2.455  44.229 -0.7731  0.2218 -1.6904
16335TIP3   OH270495   2.992   0.086   8.474  0.1136  0.1807 -0.0959
16335TIP3    H170496   3.029   0.013   8.524  2.2591 -0.0767 -1.8833
16335TIP3    H270497   2.898   0.067   8.470  0.1346 -0.7485  2.1669
16336TIP3   OH270498   2.529   0.383  54.584  0.2659 -0.4008  0.0361
16336TIP3    H170499   2.499   0.473  54.571 -2.6907 -1.2660 -0.0626
16336TIP3    H270500   2.546   0.376  54.678  2.2462  0.6763 -0.2097
16337TIP3   OH270501   1.591   0.579   4.306 -0.1605  0.0839  0.0408
16337TIP3    H170502   1.678   0.617   4.293  0.2488 -0.6423  0.5823
16337TIP3    H270503   1.581   0.575   4.401 -0.4960 -0.5021 -0.0170
16338TIP3   OH270504   1.473   0.542  62.488 -0.1941 -0.4875  0.3651
16338TIP3    H170505   1.418   0.502  62.556 -1.3283  1.5979  0.7943
16338TIP3    H270506   1.477   0.635  62.514 -1.6335  0.6622 -2.9646
16339TIP3   OH270507   3.165   3.374  50.172  0.3351 -0.6016  0.5422
16339TIP3    H170508   3.232   3.347  50.235  1.2804 -0.8686 -0.5386
16339TIP3    H270509   3.178   3.468  50.161  1.0165 -0.7635 -0.1762
16340TIP3   OH270510   2.286   3.403   8.666  0.1343 -0.0747  0.7435
16340TIP3    H170511   2.334   3.358   8.596 -1.1900 -1.5641  0.7434
16340TIP3    H270512   2.251   3.481   8.623 -1.0252 -1.1866 -0.4347
16341TIP3   OH270513   2.792   2.278   2.118 -0.0948 -0.5125  0.0847
16341TIP3    H170514   2.743   2.212   2.069 -0.4192  0.1641 -0.5378
16341TIP3    H270515   2.884   2.254   2.106 -0.1716 -0.3998 -0.8326
16342TIP3   OH270516   1.738   2.167  60.844  0.0642  0.1136  0.0262
16342TIP3    H170517   1.801   2.231  60.811  2.3882 -1.8717  0.3364
16342TIP3    H270518   1.753   2.090  60.790 -2.6709 -0.2279 -0.3459
16343TIP3   OH270519   1.081   1.702  65.469 -0.0280  0.0069 -0.4122
16343TIP3    H170520   1.049   1.674  65.384  1.9055  0.6865 -1.4369
16343TIP3    H270521   1.027   1.777  65.493  0.2405  0.6282 -1.6910
16344TIP3   OH270522   0.899   1.922  55.375  0.4025 -0.6709  1.0294
16344TIP3    H170523   0.977   1.919  55.319 -0.0392 -0.9121  0.4219
16344TIP3    H270524   0.934   1.925  55.464  1.1256  0.2308  0.7278
16345TIP3   OH270525   2.708   2.764  50.227  0.5300 -0.3709  0.0756
16345TIP3    H170526   2.671   2.772  50.139 -1.2417  0.5383  0.8470
16345TIP3    H270527   2.649   2.704  50.272  0.1840  0.7806  1.2249
16346TIP3   OH270528   2.881   2.656   6.645 -0.1136  0.5845 -0.3078
16346TIP3    H170529   2.884   2.711   6.723  0.3947  0.8416 -0.5011
16346TIP3    H270530   2.968   2.665   6.606  0.0840 -0.6117 -0.1712
16347TIP3   OH270531   1.739   2.645  16.162 -0.4748  0.3609 -0.1085
16347TIP3    H170532   1.808   2.618  16.101 -1.1976  0.5858 -1.0516
16347TIP3    H270533   1.663   2.593  16.137 -1.2984  1.7330 -0.5876
16348TIP3   OH270534   2.362   2.472  53.171 -0.2845 -0.2263 -0.6094
16348TIP3    H170535   2.413   2.516  53.239  1.1207 -1.9668 -0.4654
16348TIP3    H270536   2.411   2.489  53.090 -1.8269  1.6503 -1.2501
16349TIP3   OH270537   0.982   3.223   5.693 -0.1130  0.1868 -0.4755
16349TIP3    H170538   1.045   3.265   5.752 -0.3845  0.0454 -0.0812
16349TIP3    H270539   0.983   3.278   5.615  1.4468 -0.5315 -0.9989
16350TIP3   OH270540   1.876   1.753  20.332  0.7222 -0.5219  0.1277
16350TIP3    H170541   1.851   1.791  20.416 -1.0548 -0.3738 -0.4103
16350TIP3    H270542   1.850   1.820  20.268 -0.0219 -1.5272 -0.6579
16351TIP3   OH270543   1.327   0.439   4.776 -0.3923 -0.0232 -0.1343
16351TIP3    H170544   1.366   0.372   4.832 -2.3471 -0.5762  0.6423
16351TIP3    H270545   1.276   0.389   4.712  0.8416  0.6475 -1.7004
16352TIP3   OH270546   0.034   3.221   2.496 -0.0678  0.0603 -0.6453
16352TIP3    H170547   0.006   3.177   2.415  0.8219 -0.8501 -0.4828
16352TIP3    H270548   0.067   3.150   2.552 -0.9916  0.6219  0.6679
16353TIP3   OH270549   2.767   2.335  15.726  0.1966  0.0043 -0.3989
16353TIP3    H170550   2.817   2.280  15.666 -0.1210 -0.8344  0.0904
16353TIP3    H270551   2.833   2.381  15.778  0.4650  0.3522 -1.0286
16354TIP3   OH270552   0.869   2.290  44.404 -0.1536  0.0453 -0.0917
16354TIP3    H170553   0.916   2.365  44.442 -0.9544  1.3344 -1.5729
16354TIP3    H270554   0.800   2.271  44.467  0.7120 -0.1898  0.8276
16355TIP3   OH270555   2.061   3.021  11.145  0.7576 -0.0397 -0.0461
16355TIP3    H170556   2.024   2.994  11.061  0.3637  1.0417 -0.2342
16355TIP3    H270557   2.014   2.969  11.210 -0.7366  0.9203 -0.3221
16356TIP3   OH270558   3.168   0.955  51.255 -0.4992 -0.5433  0.5731
16356TIP3    H170559   3.220   0.992  51.184 -3.7756  0.9926 -1.2519
16356TIP3    H270560   3.212   0.983  51.335  0.5271  2.1922 -0.8249
16357TIP3   OH270561   2.993   0.935   2.074 -0.2248  0.2473 -0.0549
16357TIP3    H170562   2.935   0.888   2.133 -0.2212  0.3446  0.0247
16357TIP3    H270563   2.996   0.880   1.995 -0.0915  0.0328  0.1001
16358TIP3   OH270564   1.744   1.667   2.842  0.6602  0.1278  0.9131
16358TIP3    H170565   1.708   1.755   2.842  1.9409  0.6782  0.4914
16358TIP3    H270566   1.670   1.610   2.820  0.4355  1.3863 -1.9150
16359TIP3   OH270567   0.324   0.071  47.448  0.0498 -0.2081  0.1976
16359TIP3    H170568   0.293   0.083  47.538 -0.3503 -0.4027  0.0937
16359TIP3    H270569   0.403   0.018  47.457 -0.1547 -0.4822  0.4205
16360TIP3   OH270570   2.521   3.326  19.768 -0.4054  0.0465 -0.5547
16360TIP3    H170571   2.479   3.333  19.682 -1.3780  0.4698 -0.0613
16360TIP3    H270572   2.577   3.403  19.773 -0.8649  0.3845 -0.5409
16361TIP3   OH270573   2.001   3.451  55.713  0.3160 -0.0693 -0.6743
16361TIP3    H170574   2.009   3.543  55.739 -1.3126 -0.3667  1.0659
16361TIP3    H270575   2.081   3.410  55.744 -0.5378  0.0758  1.8999
16362TIP3   OH270576   0.781   1.800  64.536  0.6218 -0.0611 -0.1345
16362TIP3    H170577   0.738   1.859  64.475  1.6503  1.0697  0.1861
16362TIP3    H270578   0.713   1.776  64.599  0.0401  0.2988 -0.6235
16363TIP3   OH270579   2.710   2.845  67.256 -0.2313 -0.0029  0.3104
16363TIP3    H170580   2.724   2.751  67.266  0.9159  0.1161 -0.1335
16363TIP3    H270581   2.769   2.872  67.186  0.5266  1.3107  1.3980
16364TIP3   OH270582   0.181   0.007  48.767 -0.5999  0.4925 -0.3995
16364TIP3    H170583   0.218  -0.049  48.698 -0.1056  0.0578  0.2083
16364TIP3    H270584   0.232   0.088  48.761  1.9189 -0.7889  1.7158
16365TIP3   OH270585   1.949   1.889  54.831  0.4306  0.0517  0.1580
16365TIP3    H170586   1.977   1.932  54.750 -0.4743 -0.2376 -0.3144
16365TIP3    H270587   2.027   1.842  54.861  0.5126 -0.6677 -1.0949
16366TIP3   OH270588   0.810   2.821  65.530 -0.5572 -0.4463  0.0771
16366TIP3    H170589   0.805   2.911  65.499 -1.0379 -0.5104 -0.0210
16366TIP3    H270590   0.735   2.776  65.490 -0.9393 -0.6294  0.9812
16367TIP3   OH270591   1.504   2.603   8.490 -0.2472 -0.2341 -0.5221
16367TIP3    H170592   1.597   2.625   8.494 -0.3499  0.2059 -0.5010
16367TIP3    H270593   1.459   2.688   8.492 -0.6672 -0.4631  0.0385
16368TIP3   OH270594   0.300   2.960  53.487  0.0950  0.0360 -0.2307
16368TIP3    H170595   0.266   3.037  53.532 -0.8855  1.0124 -2.4942
16368TIP3    H270596   0.395   2.971  53.490  0.0071  0.6928  0.5342
16369TIP3   OH270597   2.683   1.269  52.206 -0.0903 -0.5207 -0.0168
16369TIP3    H170598   2.775   1.287  52.227  0.0980 -0.7970 -0.5838
16369TIP3    H270599   2.686   1.209  52.132 -0.7314  0.0234 -0.5004
16370TIP3   OH270600   0.684   2.489  56.771 -0.6780  0.1427  0.0130
16370TIP3    H170601   0.754   2.444  56.723 -1.7698 -0.1767 -1.3315
16370TIP3    H270602   0.687   2.450  56.859  1.0550  0.4001  0.1084
16371TIP3   OH270603   1.955   0.848  42.831 -0.2305 -0.3689  0.3945
16371TIP3    H170604   1.980   0.925  42.883  1.1157 -1.0831  0.8870
16371TIP3    H270605   1.997   0.862  42.746 -1.2490  0.1297 -0.0399
16372TIP3   OH270606   0.537   3.027  50.729 -0.4940 -0.0107  0.0098
16372TIP3    H170607   0.628   3.015  50.702 -0.9144  0.5431 -1.8029
16372TIP3    H270608   0.528   3.122  50.740 -0.9832 -0.0038 -0.3969
16373TIP3   OH270609   0.128   2.153  50.250  0.2405  0.5122  0.2834
16373TIP3    H170610   0.213   2.121  50.280 -0.6512 -0.3363  2.0879
16373TIP3    H270611   0.065   2.110  50.308 -1.7777 -1.8943 -3.3157
16374TIP3   OH270612   1.830   3.427  59.927  0.4346 -0.0513  0.1148
16374TIP3    H170613   1.894   3.442  59.858  1.5468  0.6262  1.2398
16374TIP3    H270614   1.786   3.511  59.938 -1.1108 -0.6662 -1.0538
16375TIP3   OH270615   0.706   3.194   0.036 -0.7051  0.4316 -0.4117
16375TIP3    H170616   0.704   3.274  -0.016  1.6105  0.6090 -0.3410
16375TIP3    H270617   0.728   3.125  -0.028  0.5370  0.3999  0.0209
16376TIP3   OH270618   1.408   1.796  48.580  0.3950 -0.1836  0.2505
16376TIP3    H170619   1.402   1.706  48.611 -0.5862 -0.9419 -1.9449
16376TIP3    H270620   1.331   1.840  48.617 -0.4715 -0.9264 -0.6088
16377TIP3   OH270621   2.057   2.125  12.432  0.3503 -0.3656  0.1708
16377TIP3    H170622   2.104   2.082  12.502  0.9759 -0.2300 -0.1576
16377TIP3    H270623   1.967   2.094  12.440  0.5686 -0.8946  0.5945
16378TIP3   OH270624   2.661   3.402  45.061 -0.5828  0.5641 -0.0450
16378TIP3    H170625   2.581   3.455  45.066 -0.7451  0.2122  1.7544
16378TIP3    H270626   2.676   3.373  45.151  0.8307 -0.4935 -0.5857
16379TIP3   OH270627   0.828   0.500  46.491  0.4594 -0.2555  0.2167
16379TIP3    H170628   0.793   0.497  46.402 -1.1801 -0.0190  0.8240
16379TIP3    H270629   0.835   0.408  46.518 -2.5256 -0.3229  1.0964
16380TIP3   OH270630   1.465   2.027  45.249  0.8527 -0.3567 -0.2770
16380TIP3    H170631   1.544   1.973  45.248  0.9969 -0.1888 -2.2359
16380TIP3    H270632   1.490   2.106  45.297  1.6937 -0.5582 -0.3646
16381TIP3   OH270633   1.936   2.117  20.354  0.2963  0.1168  0.3291
16381TIP3    H170634   2.029   2.093  20.350 -0.0261 -0.9912 -2.1560
16381TIP3    H270635   1.899   2.054  20.416  0.6880 -1.5368 -1.0389
16382TIP3   OH270636   2.838   2.701   2.453 -0.1425 -0.5777  0.2551
16382TIP3    H170637   2.861   2.648   2.377  1.0205  1.1455 -0.6628
16382TIP3    H270638   2.758   2.747   2.427  0.1455 -0.1376  0.1328
16383TIP3   OH270639   1.203   1.636  19.399  0.4008 -0.4061 -0.6401
16383TIP3    H170640   1.270   1.624  19.333  0.5704  1.6001 -0.9118
16383TIP3    H270641   1.248   1.679  19.472 -0.7109  2.1333 -1.3116
16384TIP3   OH270642   0.530   3.332  54.490  0.4729  0.8370 -0.4545
16384TIP3    H170643   0.457   3.333  54.552 -0.5715  1.2939 -1.6390
16384TIP3    H270644   0.601   3.289  54.537 -0.1773  1.4499  1.1553
16385TIP3   OH270645   1.386   3.402  19.711 -0.2540  0.4721 -0.2364
16385TIP3    H170646   1.402   3.443  19.626  0.9122  1.8268  0.5920
16385TIP3    H270647   1.454   3.334  19.718 -1.7298 -1.2162 -1.2896
16386TIP3   OH270648   1.473   0.683  62.911 -0.3355 -0.0104 -0.3793
16386TIP3    H170649   1.510   0.763  62.874  0.0108  0.1334  0.2551
16386TIP3    H270650   1.542   0.618  62.900 -0.8664 -0.4093 -1.5027
16387TIP3   OH270651   0.046   2.959  47.000  0.2998  0.3036  0.4660
16387TIP3    H170652  -0.049   2.950  46.995  0.4149 -0.4721 -1.5633
16387TIP3    H270653   0.064   3.047  46.966  0.3290  0.2744  0.4071
16388TIP3   OH270654   3.041   0.967  44.600 -0.0177 -0.3224  0.2044
16388TIP3    H170655   3.026   0.994  44.509 -0.1200  0.1039  0.3495
16388TIP3    H270656   3.014   0.875  44.602  0.0749 -0.3605 -0.2194
16389TIP3   OH270657   0.419   1.776  60.387  0.3736  0.1336  0.1450
16389TIP3    H170658   0.401   1.705  60.448 -0.0632 -0.7937 -1.0063
16389TIP3    H270659   0.369   1.851  60.421 -0.7451 -0.6688  0.3386
16390TIP3   OH270660   3.393   1.895  50.072  0.2926 -0.0916  0.3036
16390TIP3    H170661   3.376   1.981  50.034 -1.1507 -0.3163  0.3869
16390TIP3    H270662   3.434   1.845  50.002 -2.8523 -0.6877 -1.2426
16391TIP3   OH270663   0.531   1.618  42.140 -0.7461  0.0853  0.5311
16391TIP3    H170664   0.503   1.527  42.136  0.9479 -0.4566  0.2432
16391TIP3    H270665   0.587   1.623  42.217 -1.9909  1.2634  1.4151
16392TIP3   OH270666   3.228   0.749  46.210 -0.2068  0.2787  0.7002
16392TIP3    H170667   3.270   0.833  46.192 -2.6253  1.3876 -0.1913
16392TIP3    H270668   3.195   0.757  46.300 -1.7060  0.9201  0.1268
16393TIP3   OH270669   1.492   0.717  67.146  0.2212  0.2936 -0.0721
16393TIP3    H170670   1.566   0.729  67.205 -0.3384  0.7596  0.5537
16393TIP3    H270671   1.435   0.656  67.192  0.9531 -1.3736 -1.2697
16394TIP3   OH270672   2.319   0.516  19.025  0.0672 -0.0782 -0.0190
16394TIP3    H170673   2.347   0.457  18.955  1.6823  0.1580  0.4012
16394TIP3    H270674   2.305   0.600  18.982 -0.1006 -0.2243 -0.2516
16395TIP3   OH270675   0.626   2.877  19.749  0.4921  0.0933  0.6928
16395TIP3    H170676   0.556   2.839  19.802  2.7961 -3.0201  1.7689
16395TIP3    H270677   0.692   2.905  19.812  0.0958  3.6261 -0.2582
16396TIP3   OH270678   1.618   3.083  36.624 -0.2243 -0.6539  0.2626
16396TIP3    H170679   1.575   3.103  36.540  0.8978 -1.6506 -0.5821
16396TIP3    H270680   1.685   3.151  36.633  1.0144 -1.6765 -0.7080
16397TIP3   OH270681   3.077   0.457  63.909 -0.1195  0.6520 -0.4865
16397TIP3    H170682   3.013   0.486  63.974 -0.3550  1.4850 -1.0775
16397TIP3    H270683   3.026   0.407  63.845 -0.0293  0.5493 -0.4776
16398TIP3   OH270684   3.250   0.328  59.365  0.1385 -0.1308  0.4013
16398TIP3    H170685   3.177   0.329  59.303 -0.3386 -1.0404  0.9393
16398TIP3    H270686   3.328   0.335  59.310 -0.3548  2.4733 -0.1046
16399TIP3   OH270687   2.935   0.716  11.724  0.4386  0.1862  0.4979
16399TIP3    H170688   2.932   0.621  11.738 -0.3317  0.0072 -0.8011
16399TIP3    H270689   3.000   0.728  11.655 -1.5020  0.3076 -1.3998
16400TIP3   OH270690   2.434   1.137  22.455  0.0050 -0.4314  0.1958
16400TIP3    H170691   2.453   1.229  22.472  0.0434 -0.1543 -1.2070
16400TIP3    H270692   2.378   1.110  22.528  0.6428  0.4700  1.0465
16401TIP3   OH270693   2.445   2.827  62.834  0.5363  0.1514 -0.7489
16401TIP3    H170694   2.418   2.909  62.877  0.2408 -1.0398  1.5047
16401TIP3    H270695   2.501   2.855  62.762 -0.6875  2.3901 -0.9221
16402TIP3   OH270696   0.878   2.562   4.275 -0.0225  0.2315  0.4359
16402TIP3    H170697   0.867   2.616   4.353 -1.6890 -2.1617  2.0074
16402TIP3    H270698   0.791   2.560   4.235 -0.0605 -1.3847  0.5429
16403TIP3   OH270699   3.161   2.501   4.288  0.1400 -0.7743  0.1756
16403TIP3    H170700   3.161   2.588   4.247 -0.1837 -0.5441  0.6506
16403TIP3    H270701   3.126   2.443   4.221 -1.1974 -0.2588  0.3940
16404TIP3   OH270702   0.360   2.872  53.813  0.6638  0.3247  0.2029
16404TIP3    H170703   0.441   2.845  53.856 -0.6371 -1.7492  1.4713
16404TIP3    H270704   0.296   2.881  53.883 -0.3292  1.6368 -0.8016
16405TIP3   OH270705   0.108   1.314  61.102 -0.2521 -0.1434 -0.1199
16405TIP3    H170706   0.129   1.392  61.051 -0.4736 -1.3789 -2.2423
16405TIP3    H270707   0.058   1.346  61.176 -0.5990  1.7053 -1.0990
16406TIP3   OH270708   0.995   1.090  44.188 -0.1868 -0.5627 -0.2893
16406TIP3    H170709   1.030   1.039  44.261 -2.2291 -1.6386  0.0086
16406TIP3    H270710   1.005   1.033  44.111  0.8799  0.0967 -0.6602
16407TIP3   OH270711   2.077   1.971   6.779 -0.2745  0.1229 -0.0335
16407TIP3    H170712   2.107   1.918   6.705  1.5034  0.3646  0.4686
16407TIP3    H270713   2.096   1.918   6.856 -0.5175  0.5757  0.3453
16408TIP3   OH270714   1.853   0.226   9.453  0.8721  0.3791  0.1938
16408TIP3    H170715   1.919   0.228   9.383 -0.2023 -2.9278 -1.1497
16408TIP3    H270716   1.772   0.253   9.410  0.5207 -0.0574  0.5686
16409TIP3   OH270717   0.156   0.874  43.284  0.6016 -0.6666 -0.1050
16409TIP3    H170718   0.128   0.961  43.311 -0.8943 -0.8676 -0.8845
16409TIP3    H270719   0.224   0.850  43.346 -0.0921  0.4071  1.1195
16410TIP3   OH270720   0.031   1.909  20.905 -0.1582 -0.2050 -0.3100
16410TIP3    H170721  -0.049   1.942  20.945 -0.3714 -0.1823 -0.7453
16410TIP3    H270722   0.014   1.914  20.811  0.2672 -0.4145 -0.4003
16411TIP3   OH270723   1.068   2.765  53.233  0.3910  0.2423  0.1655
16411TIP3    H170724   1.068   2.685  53.286 -0.2227  0.0176 -0.1668
16411TIP3    H270725   0.980   2.802  53.245 -0.5761 -0.9889 -2.4239
16412TIP3   OH270726   2.740   0.304  11.392  0.6485  0.0833 -0.3273
16412TIP3    H170727   2.811   0.321  11.454  0.2935 -0.1652  0.1495
16412TIP3    H270728   2.697   0.226  11.425  0.6292 -0.2218 -1.0505
16413TIP3   OH270729   1.825   0.977  47.157 -0.4487 -0.1067  0.5004
16413TIP3    H170730   1.837   1.035  47.233  0.4958 -1.2202  1.2398
16413TIP3    H270731   1.876   1.018  47.087  0.2039 -0.0179  1.0114
16414TIP3   OH270732   3.245   1.805  61.344  0.4907 -0.1285  0.1558
16414TIP3    H170733   3.197   1.881  61.376  0.2910 -0.0179 -0.4108
16414TIP3    H270734   3.335   1.818  61.375  0.3430  0.0729  0.5045
16415TIP3   OH270735   2.458   2.060  25.703 -0.5903  0.1489  0.2209
16415TIP3    H170736   2.535   2.064  25.760 -2.6685  0.6345  3.2602
16415TIP3    H270737   2.431   2.152  25.694 -1.1186 -0.0572 -0.3202
16416TIP3   OH270738   0.770   0.817  12.366 -0.0307  0.0873 -0.6818
16416TIP3    H170739   0.708   0.817  12.293  1.1372  0.2170 -1.7153
16416TIP3    H270740   0.839   0.757  12.338 -0.4927 -1.4069  1.1886
16417TIP3   OH270741   0.368   1.856  45.146  0.7647 -0.7426  0.3409
16417TIP3    H170742   0.310   1.892  45.079 -1.0526 -1.3423  1.5071
16417TIP3    H270743   0.418   1.788  45.101 -0.5486 -1.2579 -0.3838
16418TIP3   OH270744   0.831   1.827  20.361  0.5868  0.7950  0.2760
16418TIP3    H170745   0.898   1.852  20.425  2.4529  2.0105 -1.9572
16418TIP3    H270746   0.829   1.901  20.299  0.3268 -1.0880 -2.1138
16419TIP3   OH270747   1.802   2.102   7.628  0.3713 -0.0446  0.1982
16419TIP3    H170748   1.798   2.197   7.641  0.4034  0.0807 -0.6264
16419TIP3    H270749   1.716   2.079   7.593  0.1302 -0.4319  1.0259
16420TIP3   OH270750   0.165   1.141   5.569  0.2396  0.1943 -0.1455
16420TIP3    H170751   0.179   1.153   5.663  2.0166 -0.9348 -0.2059
16420TIP3    H270752   0.190   1.225   5.530  1.4078  0.0566  0.2676
16421TIP3   OH270753   1.571   2.549   9.850 -0.5712  0.0464  0.4637
16421TIP3    H170754   1.598   2.471   9.802 -0.1297  0.7978 -0.5491
16421TIP3    H270755   1.544   2.611   9.783 -2.9825  0.0452  1.3416
16422TIP3   OH270756   2.629   2.765  13.640 -0.3635  0.0285 -0.2782
16422TIP3    H170757   2.682   2.804  13.570  0.4389  0.4180  0.5214
16422TIP3    H270758   2.549   2.817  13.641 -1.3528 -1.3102 -2.2921
16423TIP3   OH270759   1.172   0.085  64.321  0.4242  0.1177 -0.1490
16423TIP3    H170760   1.103   0.052  64.264  1.6356 -0.8377 -1.1298
16423TIP3    H270761   1.220   0.147  64.266  1.2283 -0.3380  0.0248
16424TIP3   OH270762   1.952   3.244  22.002  0.2846  0.2137  0.2478
16424TIP3    H170763   1.907   3.190  22.066  1.9877 -0.0212  1.3172
16424TIP3    H270764   2.019   3.290  22.052  0.5772  1.3290 -1.0857
16425TIP3   OH270765   2.968   2.136  11.232  0.1250 -0.0904 -0.1521
16425TIP3    H170766   2.949   2.058  11.284  0.4408 -0.8123 -1.1045
16425TIP3    H270767   3.050   2.116  11.188 -0.3426  0.3555 -1.2472
16426TIP3   OH270768   0.286   3.018  54.527  0.4001 -0.2395 -0.2740
16426TIP3    H170769   0.311   2.947  54.467 -0.8126 -1.0517  0.1420
16426TIP3    H270770   0.219   2.979  54.583  0.0512  1.1134  0.2822
16427TIP3   OH270771   0.106   1.955  19.170  0.3175  0.1320  0.2567
16427TIP3    H170772   0.061   1.893  19.112  1.0218 -0.0644 -0.0872
16427TIP3    H270773   0.114   1.908  19.253  0.1782  0.0485  0.2234
16428TIP3   OH270774   2.202   1.651  11.600  0.4010  0.3515 -0.3176
16428TIP3    H170775   2.198   1.709  11.524 -0.0024  0.7449 -0.0024
16428TIP3    H270776   2.112   1.651  11.635  0.5652  0.1241  0.1186
16429TIP3   OH270777   2.700   3.029  53.766 -0.5838 -0.0343 -0.2586
16429TIP3    H170778   2.639   2.958  53.789  0.0177 -1.0713 -1.6856
16429TIP3    H270779   2.779   3.010  53.817 -0.1404 -0.8895 -1.2204
16430TIP3   OH270780   1.303   0.171   4.390 -0.1964  0.1714 -0.5922
16430TIP3    H170781   1.269   0.159   4.302 -1.0423 -0.4204 -0.2043
16430TIP3    H270782   1.227   0.198   4.442 -0.2382 -1.6993  0.4133
16431TIP3   OH270783   0.043   3.217  20.617 -0.1575 -0.1636 -0.2772
16431TIP3    H170784   0.038   3.306  20.582  0.5110  0.1960  0.5263
16431TIP3    H270785  -0.035   3.173  20.581 -1.7064  1.3498  1.0305
16432TIP3   OH270786   0.305   0.934  54.459  0.2330  0.1739  0.0865
16432TIP3    H170787   0.397   0.924  54.435  0.0013 -0.2423 -0.6440
16432TIP3    H270788   0.276   1.014  54.414 -0.3840 -0.9751 -1.6490
16433TIP3   OH270789   3.121   0.484  67.018  0.0416  0.9420 -0.0106
16433TIP3    H170790   3.079   0.508  66.936  0.3003  0.1973 -0.3665
16433TIP3    H270791   3.122   0.388  67.018  0.4904  0.9361  0.6322
16434TIP3   OH270792   1.995   1.794  53.443  0.7250 -0.5178 -0.4113
16434TIP3    H170793   1.911   1.833  53.467  0.6958 -1.6763  1.5615
16434TIP3    H270794   2.059   1.848  53.489  1.0724  0.1548 -1.6401
16435TIP3   OH270795   2.155   2.311   3.923 -0.5282 -0.2983  0.6297
16435TIP3    H170796   2.204   2.309   3.840 -0.6224  1.0375  0.5159
16435TIP3    H270797   2.098   2.234   3.919  0.2820 -0.8880 -0.0323
16436TIP3   OH270798   0.422   0.213  44.331  0.0501  0.0956  0.4920
16436TIP3    H170799   0.466   0.297  44.316 -0.9396  0.6989  0.8545
16436TIP3    H270800   0.397   0.183  44.244 -0.8157  0.8732  0.4547
16437TIP3   OH270801   2.158   2.807  44.266 -0.3355 -0.1116  0.1254
16437TIP3    H170802   2.251   2.789  44.280 -0.6126 -1.8725 -0.0834
16437TIP3    H270803   2.152   2.902  44.265  1.1893  0.0566  1.9459
16438TIP3   OH270804   2.453   1.574  65.059 -0.1403  0.5837  0.1462
16438TIP3    H170805   2.474   1.522  64.982 -1.4107 -1.0058  0.8213
16438TIP3    H270806   2.366   1.610  65.041 -0.4650  0.1605  0.8543
16439TIP3   OH270807   0.526   1.735   6.687  0.0917 -0.2646 -0.4076
16439TIP3    H170808   0.535   1.806   6.623  1.5610 -0.3092 -0.2990
16439TIP3    H270809   0.535   1.779   6.772  1.2459 -0.5838 -0.3466
16440TIP3   OH270810   1.251   2.497  58.593  0.1983  0.1794 -0.6540
16440TIP3    H170811   1.199   2.427  58.632  0.7367  0.0777 -0.0937
16440TIP3    H270812   1.210   2.577  58.625 -1.4548  0.2029 -2.6371
16441TIP3   OH270813   1.078   2.797  61.078  0.5091 -0.3991 -0.4667
16441TIP3    H170814   1.121   2.713  61.068  0.0482 -1.0763  2.4668
16441TIP3    H270815   0.985   2.777  61.075  0.2950 -0.6019  3.0507
16442TIP3   OH270816   0.443   0.520  16.284 -0.1026  0.5333  0.3936
16442TIP3    H170817   0.363   0.469  16.298  0.5170 -0.7244 -0.5107
16442TIP3    H270818   0.504   0.489  16.351  0.2640  0.0962 -0.1340
16443TIP3   OH270819   1.371   1.442  62.367 -0.7606 -0.2769 -0.2705
16443TIP3    H170820   1.416   1.383  62.307  2.1863  0.0050  1.4693
16443TIP3    H270821   1.419   1.525  62.361 -1.2791  0.1936  1.3833
16444TIP3   OH270822   0.819   1.059  37.605  0.2400  0.5104  0.0865
16444TIP3    H170823   0.761   1.045  37.680 -0.7300  0.3912 -0.6541
16444TIP3    H270824   0.765   1.110  37.543  1.4762  1.8081  0.0256
16445TIP3   OH270825   0.445   0.386  38.469  0.2354  0.8199 -0.2836
16445TIP3    H170826   0.430   0.298  38.436 -1.9213  1.0152  0.0155
16445TIP3    H270827   0.526   0.381  38.519 -0.9337 -1.5090  1.5207
16446TIP3   OH270828   0.859   3.037   6.940 -0.0778 -0.2617  0.7492
16446TIP3    H170829   0.920   3.013   6.870 -0.3302  2.3709 -0.4880
16446TIP3    H270830   0.772   3.025   6.902 -0.2541 -0.3589  1.1799
16447TIP3   OH270831   1.568   1.296  52.276 -0.2826  0.0820 -0.6201
16447TIP3    H170832   1.497   1.272  52.336  0.5436 -0.1325  0.2972
16447TIP3    H270833   1.546   1.384  52.247 -0.2582  0.5503  0.6995
16448TIP3   OH270834   0.133   1.882  20.324  0.2713 -0.4653 -0.0715
16448TIP3    H170835   0.203   1.924  20.273  0.6926 -1.3517 -0.2410
16448TIP3    H270836   0.108   1.806  20.272 -1.1074  0.0521 -0.2016
16449TIP3   OH270837   1.756   2.567  20.705 -0.7915 -0.3328 -0.2883
16449TIP3    H170838   1.680   2.563  20.762 -0.0693  0.6094  0.7892
16449TIP3    H270839   1.720   2.560  20.617 -1.9861 -1.2654  0.2445
16450TIP3   OH270840   2.843   1.045  53.186  0.2287 -0.3854 -0.3656
16450TIP3    H170841   2.822   0.954  53.165 -0.1655 -0.1178 -1.1612
16450TIP3    H270842   2.769   1.095  53.152  0.5765  0.2576 -0.1781
16451TIP3   OH270843   2.528   3.052   5.090  0.1206  0.0406  0.0249
16451TIP3    H170844   2.541   3.008   5.006 -1.2789 -0.0204 -0.1894
16451TIP3    H270845   2.517   3.144   5.067 -0.8338 -0.0526  0.0591
16452TIP3   OH270846   0.974   1.302  10.081 -0.1248  0.2459  0.4047
16452TIP3    H170847   0.888   1.313  10.041  0.6226 -0.1916 -1.4243
16452TIP3    H270848   0.995   1.209  10.068  0.2683  0.1414  1.6120
16453TIP3   OH270849   1.370   0.963  36.404 -0.2426 -0.8002 -0.2407
16453TIP3    H170850   1.278   0.939  36.409 -0.3841 -0.3618 -0.6760
16453TIP3    H270851   1.398   0.932  36.317 -0.2796  0.0835 -0.5790
16454TIP3   OH270852   2.326   3.161  55.586 -0.3300 -0.1124  0.4692
16454TIP3    H170853   2.283   3.109  55.518  0.8370  0.1532 -0.5066
16454TIP3    H270854   2.350   3.097  55.653  0.2653 -0.6974 -0.2886
16455TIP3   OH270855   2.670   2.272  15.051 -0.2910  0.2581 -0.0424
16455TIP3    H170856   2.761   2.298  15.039 -0.4567  0.1765 -1.5690
16455TIP3    H270857   2.643   2.237  14.967 -1.5142 -0.4409  0.6143
16456TIP3   OH270858   1.399   2.905   6.859  0.3137 -0.1740  0.6153
16456TIP3    H170859   1.495   2.906   6.853  0.4125  0.1226  1.9734
16456TIP3    H270860   1.370   2.964   6.788  1.1924  0.6780  0.9408
16457TIP3   OH270861   3.224   0.274  21.767 -0.1087  0.0026 -0.1613
16457TIP3    H170862   3.193   0.256  21.856  0.7685 -2.8713 -0.3042
16457TIP3    H270863   3.177   0.211  21.713 -1.2327  2.2411 -1.9488
16458TIP3   OH270864   1.384   0.956   5.956  0.0303  0.8839 -0.3603
16458TIP3    H170865   1.382   1.050   5.972 -1.7717  0.8116  0.0480
16458TIP3    H270866   1.359   0.917   6.040  0.0436  0.0758 -0.7191
16459TIP3   OH270867   1.177   0.278  14.163 -0.0678 -0.2882  0.3024
16459TIP3    H170868   1.161   0.210  14.229 -0.7416 -1.1551 -0.7053
16459TIP3    H270869   1.178   0.230  14.080 -1.7811  1.0769 -0.5589
16460TIP3   OH270870   1.874   1.546  13.872  0.0674  0.8535 -0.3160
16460TIP3    H170871   1.894   1.465  13.920  3.2664  1.8257  0.2046
16460TIP3    H270872   1.892   1.616  13.934 -0.9576  2.0610 -1.3093
16461TIP3   OH270873   2.384   2.596  66.351 -0.1906  0.1158  0.4350
16461TIP3    H170874   2.411   2.611  66.261 -0.9361 -1.2855 -0.0708
16461TIP3    H270875   2.383   2.682  66.392  0.9694  0.6641 -0.6576
16462TIP3   OH270876   2.483   0.335  20.087  0.6081  0.0700 -0.1231
16462TIP3    H170877   2.467   0.306  20.177  0.2544 -0.6315 -0.4003
16462TIP3    H270878   2.398   0.366  20.056  0.3249 -1.2317 -0.7398
16463TIP3   OH270879   0.247   0.520  48.873  0.4092 -0.0755  0.4315
16463TIP3    H170880   0.215   0.605  48.845 -0.6680 -0.0088  1.7718
16463TIP3    H270881   0.294   0.538  48.954  1.9382 -0.5060 -0.3161
16464TIP3   OH270882   3.186   2.182   2.539 -0.1235 -0.7462 -0.1833
16464TIP3    H170883   3.139   2.116   2.589  0.2242 -1.0142 -0.2059
16464TIP3    H270884   3.118   2.228   2.489 -0.1833 -2.5250 -1.8704
16465TIP3   OH270885   2.869   2.100  16.145 -0.1602 -0.0885 -0.0448
16465TIP3    H170886   2.947   2.066  16.189  0.1957  2.1626  1.1619
16465TIP3    H270887   2.879   2.070  16.054  1.8496 -0.2746  0.1816
16466TIP3   OH270888   2.298   1.917  21.463 -0.0500  0.5523 -0.5171
16466TIP3    H170889   2.330   1.834  21.497 -2.2016  0.4804  1.5628
16466TIP3    H270890   2.371   1.952  21.412  1.2200 -2.1615 -0.7077
16467TIP3   OH270891   2.104   1.401   7.815 -0.0923  0.2362  0.3802
16467TIP3    H170892   2.087   1.483   7.769  1.7738  0.6412  0.3399
16467TIP3    H270893   2.068   1.415   7.903  0.0224  1.0380  0.3054
16468TIP3   OH270894   2.215   0.601  48.340  0.0691  0.3510  0.3287
16468TIP3    H170895   2.291   0.636  48.386  1.3814 -1.2910 -0.5016
16468TIP3    H270896   2.203   0.513  48.377 -0.6472  0.1236 -0.4245
16469TIP3   OH270897   1.184   1.150  20.924  0.4974  0.4907 -0.1718
16469TIP3    H170898   1.117   1.140  20.991  1.4284  0.3677  0.7773
16469TIP3    H270899   1.172   1.076  20.865 -0.6768  0.8968 -0.4632
16470TIP3   OH270900   3.264   1.331  18.668  0.1277 -0.7874  0.6551
16470TIP3    H170901   3.248   1.238  18.659 -2.1253 -0.3266 -0.6368
16470TIP3    H270902   3.209   1.358  18.741  0.7144 -0.4238  0.9775
16471TIP3   OH270903   2.291   0.112  49.456  0.3077 -0.4726 -0.1853
16471TIP3    H170904   2.217   0.121  49.396  2.9723  2.2912 -3.4284
16471TIP3    H270905   2.258   0.143  49.541 -1.9778  1.7780 -1.7736
16472TIP3   OH270906   1.558   2.194  42.490  0.3714 -0.1733 -0.0308
16472TIP3    H170907   1.495   2.131  42.455 -0.0273 -0.0780  0.5094
16472TIP3    H270908   1.618   2.142  42.543  0.5802 -0.2234 -0.3124
16473TIP3   OH270909   2.108   1.390  26.303  0.2309 -0.2408 -0.2265
16473TIP3    H170910   2.129   1.407  26.395  2.3106 -1.2717 -0.4555
16473TIP3    H270911   2.026   1.339  26.307 -0.3770  0.7657  0.9491
16474TIP3   OH270912   2.507   2.860  45.536  0.0494  0.1196 -0.4736
16474TIP3    H170913   2.535   2.783  45.586 -0.0028  0.0427 -0.5633
16474TIP3    H270914   2.585   2.887  45.488 -0.1438 -0.3485 -1.0499
16475TIP3   OH270915   1.401   1.652  33.912 -0.7088 -0.1715  0.2246
16475TIP3    H170916   1.373   1.725  33.857 -2.2066 -0.3176  0.7486
16475TIP3    H270917   1.351   1.577  33.879  0.6926 -0.9414 -0.2093
16476TIP3   OH270918   1.536   3.120   1.879  0.5902 -0.3838 -0.2530
16476TIP3    H170919   1.552   3.052   1.945 -1.7606 -0.3428  0.4525
16476TIP3    H270920   1.562   3.202   1.921 -0.4145 -0.4161  0.4658
16477TIP3   OH270921   0.304   0.043  16.330 -0.1266  0.2182  0.0049
16477TIP3    H170922   0.242   0.107  16.294  0.3191  0.4413 -0.3888
16477TIP3    H270923   0.279   0.033  16.421 -0.5361  0.5542 -0.0683
16478TIP3   OH270924   1.799   1.437  10.024  0.2637 -0.4603  0.0716
16478TIP3    H170925   1.881   1.486  10.020 -0.7561  1.3228 -0.0137
16478TIP3    H270926   1.822   1.355  10.068  2.1478 -0.1827 -0.3094
16479TIP3   OH270927   1.789   2.665  54.820 -0.0358 -0.4600 -0.6692
16479TIP3    H170928   1.755   2.692  54.906 -0.1474  0.2421 -0.9243
16479TIP3    H270929   1.714   2.673  54.761 -0.0776 -1.3900 -0.7491
16480TIP3   OH270930   1.389   2.372  45.766  0.1717  0.3725  0.1936
16480TIP3    H170931   1.345   2.451  45.734 -0.8656  0.0759  0.8384
16480TIP3    H270932   1.318   2.308  45.777  0.8366 -0.2804  0.7686
16481TIP3   OH270933   0.611   1.601  50.541  0.2967  0.0821 -0.3430
16481TIP3    H170934   0.698   1.572  50.513  0.7354  2.0046 -1.1662
16481TIP3    H270935   0.626   1.643  50.625 -0.4967 -2.7438  1.3517
16482TIP3   OH270936   2.200   0.707  54.681  0.4203  0.2764  0.1128
16482TIP3    H170937   2.156   0.729  54.763  0.0050  1.2351 -0.3451
16482TIP3    H270938   2.136   0.654  54.634  0.0094  1.0634 -0.2468
16483TIP3   OH270939   0.494   2.388  21.294 -0.5169  0.3809  0.2861
16483TIP3    H170940   0.449   2.461  21.335  0.3515  1.0766  0.0172
16483TIP3    H270941   0.443   2.311  21.320 -1.2864  1.0454  0.7811
16484TIP3   OH270942   3.387   0.188  66.648  0.0189  0.0103  0.6866
16484TIP3    H170943   3.313   0.229  66.603 -0.2950 -0.2170  0.9817
16484TIP3    H270944   3.347   0.141  66.721  0.2555 -1.6000 -0.1810
16485TIP3   OH270945   3.118   0.609   2.340 -0.1657  0.0324 -0.1718
16485TIP3    H170946   3.054   0.546   2.305  2.7187 -2.6001 -1.1373
16485TIP3    H270947   3.105   0.605   2.435 -3.2502  1.8121 -0.3742
16486TIP3   OH270948   3.244   2.462  20.647  0.8229  0.3419 -0.0774
16486TIP3    H170949   3.216   2.552  20.631  0.0126 -0.3599 -3.1643
16486TIP3    H270950   3.339   2.464  20.637  0.6257  0.5322 -2.4438
16487TIP3   OH270951   2.606   0.756  26.665 -0.7803 -0.2599  0.0690
16487TIP3    H170952   2.665   0.684  26.645 -0.7075 -0.1696 -0.0447
16487TIP3    H270953   2.583   0.792  26.579  3.3010  3.2103  0.1246
16488TIP3   OH270954   1.759   1.731  57.023  0.2855  0.6653  0.2852
16488TIP3    H170955   1.688   1.764  56.967  0.3025 -0.8156 -0.6584
16488TIP3    H270956   1.743   1.637  57.030  2.7282  0.0787 -0.8550
16489TIP3   OH270957   0.518   3.253   5.679  0.1161 -0.0604  0.3342
16489TIP3    H170958   0.604   3.250   5.721 -0.8997 -1.6417  2.4322
16489TIP3    H270959   0.489   3.344   5.691  1.5509  0.5648 -0.6297
16490TIP3   OH270960   1.774   2.162  13.269 -0.1580  0.2119 -0.0610
16490TIP3    H170961   1.703   2.222  13.289  0.1137  0.9535 -1.2410
16490TIP3    H270962   1.807   2.190  13.184  1.0746 -0.5691  0.1235
16491TIP3   OH270963   1.816   0.683  22.331  0.4980  0.4341 -0.6424
16491TIP3    H170964   1.873   0.720  22.399 -0.1368  1.3628 -0.5908
16491TIP3    H270965   1.734   0.733  22.339 -0.3365 -0.8709 -0.7002
16492TIP3   OH270966   3.150   1.276  65.389 -0.0708 -0.2297  0.4003
16492TIP3    H170967   3.129   1.319  65.307  0.3568  0.4511  0.6309
16492TIP3    H270968   3.130   1.183  65.374  0.2263 -0.1507 -0.5436
16493TIP3   OH270969   1.743   2.511   7.280  0.4890  0.5315 -0.6996
16493TIP3    H170970   1.660   2.468   7.300  1.0517 -1.3312 -2.0359
16493TIP3    H270971   1.754   2.576   7.349 -0.0401 -2.0440  2.0341
16494TIP3   OH270972   2.020   1.485  16.909  0.3679 -0.1919 -0.2447
16494TIP3    H170973   2.032   1.493  16.814  1.1897 -1.4853 -0.2704
16494TIP3    H270974   1.926   1.472  16.921  0.0710  1.2371 -0.7594
16495TIP3   OH270975   3.408   0.319   8.470 -0.4517  0.1234 -0.0858
16495TIP3    H170976   3.464   0.360   8.404  0.3113  0.5616  0.8067
16495TIP3    H270977   3.327   0.298   8.424  0.3529 -0.2956 -1.3445
16496TIP3   OH270978   2.103   2.874  49.508  0.4314  0.2277 -0.2874
16496TIP3    H170979   2.140   2.951  49.551  2.3702 -0.3498 -0.8105
16496TIP3    H270980   2.134   2.880  49.418  0.0709 -0.8192 -0.4944
16497TIP3   OH270981   2.781   2.364   1.534 -0.2215 -0.0881  0.1263
16497TIP3    H170982   2.809   2.453   1.558 -0.6929  0.4868 -1.3645
16497TIP3    H270983   2.721   2.339   1.604 -0.8815  1.1857  0.0500
16498TIP3   OH270984   0.284   0.141  45.274  0.1490 -0.1040 -0.6199
16498TIP3    H170985   0.360   0.198  45.259  0.5693 -0.9238 -1.8186
16498TIP3    H270986   0.240   0.179  45.350  1.6151  0.5453 -0.0491
16499TIP3   OH270987   2.954   2.251  10.044 -0.2362  0.2360  0.3891
16499TIP3    H170988   3.012   2.214   9.977 -0.3596  1.2898 -0.3145
16499TIP3    H270989   2.966   2.345  10.038 -2.8809  0.6122 -0.6170
16500TIP3   OH270990   1.870   1.858  19.939 -0.2525  0.4884 -0.0166
16500TIP3    H170991   1.835   1.904  20.015  0.1727 -0.4802  0.7886
16500TIP3    H270992   1.957   1.830  19.966 -0.5821 -0.9699 -0.4050
16501TIP3   OH270993   2.127   2.482   0.612  0.4510  0.3951 -0.4312
16501TIP3    H170994   2.068   2.461   0.684  0.0673 -1.3380 -1.2042
16501TIP3    H270995   2.127   2.578   0.608 -1.2999  0.4667  0.4104
16502TIP3   OH270996   1.368   1.804  15.218 -0.4287  0.1672 -0.2069
16502TIP3    H170997   1.328   1.735  15.166 -2.3443  1.4957 -0.6332
16502TIP3    H270998   1.385   1.875  15.155  1.4856  0.1370  0.2097
16503TIP3   OH270999   0.218   1.956   2.813  0.0622 -0.5617 -0.0736
16503TIP3    H171000   0.294   1.948   2.871 -0.1231  0.4855  0.3256
16503TIP3    H271001   0.143   1.965   2.873 -0.3259 -1.0973 -0.4700
16504TIP3   OH271002   3.254   0.922  41.842 -0.1188  0.1261  0.4317
16504TIP3    H171003   3.231   0.947  41.752 -0.8858 -0.2048  0.5259
16504TIP3    H271004   3.245   0.827  41.843  1.1682 -0.0126  0.5169
16505TIP3   OH271005   0.226   3.080  19.689  0.2278  0.2781 -0.1908
16505TIP3    H171006   0.220   3.061  19.595 -1.4155 -2.3312  0.3521
16505TIP3    H271007   0.204   3.173  19.696 -1.3012  0.1404 -2.2460
16506TIP3   OH271008   2.636   1.420  53.680 -0.5609 -0.6092  0.1943
16506TIP3    H171009   2.722   1.394  53.712 -0.7405 -0.8055  0.5223
16506TIP3    H271010   2.641   1.408  53.585 -0.0877 -0.2009  0.1666
16507TIP3   OH271011   1.611   2.615  49.435 -0.7482 -0.2197 -0.0666
16507TIP3    H171012   1.598   2.587  49.526 -1.4438 -0.2381 -0.1729
16507TIP3    H271013   1.646   2.704  49.442 -1.2055 -0.0590  0.2103
16508TIP3   OH271014   2.769   2.393   2.570  0.3059  0.3786  0.0726
16508TIP3    H171015   2.677   2.405   2.592  0.1775 -0.3930 -0.0246
16508TIP3    H271016   2.809   2.479   2.586 -0.6832  1.1014 -1.2355
16509TIP3   OH271017   2.750   2.698  64.558  0.4120  0.1753  0.5073
16509TIP3    H171018   2.740   2.748  64.640 -1.2360  0.9018 -0.0878
16509TIP3    H271019   2.686   2.628  64.565 -0.1523  0.5830 -0.3808
16510TIP3   OH271020   2.507   0.617   0.206 -0.4067 -0.1353  0.5614
16510TIP3    H171021   2.531   0.563   0.130  0.8133  2.2231 -0.8608
16510TIP3    H271022   2.436   0.673   0.174 -0.2801  0.4802  1.3342
16511TIP3   OH271023   2.366   2.851   3.365  0.7818 -0.5500 -0.0177
16511TIP3    H171024   2.378   2.817   3.454 -0.1241 -0.2464  0.2240
16511TIP3    H271025   2.427   2.924   3.360  0.2404 -0.0307  0.6545
16512TIP3   OH271026   0.813   2.278  13.604  0.1417 -0.1828 -0.5046
16512TIP3    H171027   0.728   2.323  13.604  0.7076  0.9162 -0.3002
16512TIP3    H271028   0.807   2.217  13.678 -0.4069  0.0005 -0.3906
16513TIP3   OH271029   1.408   2.306  57.700  0.0515 -0.1949 -0.0460
16513TIP3    H171030   1.367   2.391  57.718 -0.9668 -0.2056 -1.9699
16513TIP3    H271031   1.473   2.325  57.632 -0.2272 -0.9522 -0.5333
16514TIP3   OH271032   1.659   2.072  20.936  0.3213 -1.2498  0.3140
16514TIP3    H171033   1.746   2.046  20.905 -0.5624 -1.7390 -1.9707
16514TIP3    H271034   1.626   2.131  20.869 -1.0864 -1.0131  1.1727
16515TIP3   OH271035   1.528   2.661  48.215  0.3110  0.0822 -0.3831
16515TIP3    H171036   1.591   2.721  48.175  0.1726  0.5318  0.0540
16515TIP3    H271037   1.576   2.579  48.226  0.2685 -0.1465 -1.7137
16516TIP3   OH271038   2.013   2.991   8.490  0.1277 -0.5307 -0.3134
16516TIP3    H171039   1.972   3.077   8.499 -0.0303 -0.6779  0.4228
16516TIP3    H271040   2.077   2.987   8.561 -0.6167 -1.4308  0.3404
16517TIP3   OH271041   1.105   1.798  18.099 -0.2035 -0.1566  0.0610
16517TIP3    H171042   1.139   1.810  18.010  0.8449 -2.1465  0.1263
16517TIP3    H271043   1.037   1.731  18.089 -0.1877 -0.2767  0.7156
16518TIP3   OH271044   2.504   3.009  59.171  0.0915  0.6604  0.7386
16518TIP3    H171045   2.495   2.962  59.089 -0.9854  0.3441  1.0235
16518TIP3    H271046   2.446   3.085  59.163  0.1716  0.7670  1.1047
16519TIP3   OH271047   3.315   1.015  60.774  0.6278  0.2361  0.0431
16519TIP3    H171048   3.304   0.981  60.863 -1.1217 -1.8690 -0.8766
16519TIP3    H271049   3.390   0.967  60.739  0.0782 -0.4357 -0.2381
16520TIP3   OH271050   2.662   0.155  21.102 -0.1434 -0.0089 -0.2119
16520TIP3    H171051   2.654   0.159  21.198  0.7318  0.5362 -0.1552
16520TIP3    H271052   2.646   0.244  21.073  3.2943  0.7126 -0.2438
16521TIP3   OH271053   1.937   0.525  10.882 -0.1093  0.1209  0.0439
16521TIP3    H171054   2.006   0.470  10.919 -0.1195  0.2017  0.1819
16521TIP3    H271055   1.984   0.601  10.848  0.0729 -0.5677 -1.3362
16522TIP3   OH271056   2.801   3.335  14.853 -0.0615 -0.0739 -0.1055
16522TIP3    H171057   2.751   3.342  14.772 -1.0805  1.3523  0.6109
16522TIP3    H271058   2.753   3.271  14.905  0.8829 -1.3865 -0.7922
16523TIP3   OH271059   0.869   0.825  38.189  0.4879 -0.2694 -0.0234
16523TIP3    H171060   0.887   0.755  38.126  0.1140 -0.6220  0.2597
16523TIP3    H271061   0.956   0.856  38.215  0.6457 -0.0406 -0.7928
16524TIP3   OH271062   1.407   0.277  67.322  0.1797 -0.4693 -0.2670
16524TIP3    H171063   1.499   0.250  67.328 -0.1443 -1.8382 -1.0476
16524TIP3    H271064   1.364   0.206  67.274 -1.5594 -0.5068  1.2366
16525TIP3   OH271065   2.931   1.084  16.679  0.0531  0.1612  0.1720
16525TIP3    H171066   2.954   1.147  16.747 -0.8441 -1.1020  1.7060
16525TIP3    H271067   2.844   1.053  16.704 -0.1795 -0.5407 -1.4070
16526TIP3   OH271068   3.356   0.543  62.131 -0.5831 -0.4744 -1.1128
16526TIP3    H171069   3.386   0.613  62.074 -1.1687 -0.7340 -1.7547
16526TIP3    H271070   3.353   0.466  62.074  0.8319 -1.2232 -0.2391
16527TIP3   OH271071   0.534   2.953  57.189  0.5160  0.6193 -0.4447
16527TIP3    H171072   0.473   2.972  57.117  0.4512 -0.6254 -0.7496
16527TIP3    H271073   0.485   2.895  57.247  1.2330  0.0081 -0.4373
16528TIP3   OH271074   1.916   1.041  11.471 -0.5260 -0.1471  0.3683
16528TIP3    H171075   1.938   1.134  11.470  0.9862 -0.4887  0.1317
16528TIP3    H271076   1.930   1.012  11.381 -2.1212 -0.3722  0.1697
16529TIP3   OH271077   1.394   1.763  38.619  0.7110 -0.0388  0.5959
16529TIP3    H171078   1.420   1.853  38.633 -0.6138  0.2892  1.1317
16529TIP3    H271079   1.398   1.722  38.706  1.2015 -0.4643  0.3747
16530TIP3   OH271080   1.511   0.980  51.173  0.1342  0.4199 -0.4384
16530TIP3    H171081   1.479   1.050  51.231  0.6509  1.1860 -1.0447
16530TIP3    H271082   1.541   0.912  51.233  0.6008  1.1689  0.2145
16531TIP3   OH271083   1.762   0.132   3.493 -0.2591 -1.1007  0.0459
16531TIP3    H171084   1.696   0.070   3.526 -0.9605 -0.1869  0.4142
16531TIP3    H271085   1.726   0.162   3.409 -0.7104 -0.0295  0.6013
16532TIP3   OH271086   1.287   0.181  11.812 -0.2941  0.4599  0.0027
16532TIP3    H171087   1.232   0.140  11.879 -0.4067  0.2601 -0.2130
16532TIP3    H271088   1.377   0.161  11.840 -0.3286  0.7427  0.3262
16533TIP3   OH271089   1.033   2.664  60.592 -0.0949 -0.2888 -0.6326
16533TIP3    H171090   0.955   2.654  60.537 -0.0791 -0.9780 -0.5409
16533TIP3    H271091   1.020   2.601  60.663 -0.6229  1.3305  0.7681
16534TIP3   OH271092   0.452   0.978  47.271  0.5799  0.4298  0.4374
16534TIP3    H171093   0.539   0.949  47.245 -0.2794  0.1934 -2.5766
16534TIP3    H271094   0.412   0.901  47.312  0.6097 -0.6542 -1.4559
16535TIP3   OH271095   1.981   0.901   1.177 -0.0065 -0.0513 -0.0007
16535TIP3    H171096   1.991   0.809   1.204 -1.9005 -0.0291  0.9148
16535TIP3    H271097   2.028   0.906   1.094  1.9948 -1.2940  0.9821
16536TIP3   OH271098   0.770   1.731   5.191 -0.2659  0.0794 -0.1249
16536TIP3    H171099   0.819   1.805   5.153  0.4953 -1.0916 -1.5286
16536TIP3    H271100   0.697   1.718   5.131 -0.2135 -0.4948 -0.0666
16537TIP3   OH271101   1.842   1.734  44.997  0.5367  0.9011 -0.3829
16537TIP3    H171102   1.833   1.685  44.916 -1.7312 -1.9366  1.3679
16537TIP3    H271103   1.785   1.810  44.987 -1.5849 -0.6516 -0.7081
16538TIP3   OH271104   1.139   3.018  37.507  0.5624  0.1161 -0.3031
16538TIP3    H171105   1.136   3.061  37.422  2.2673 -0.8309 -0.8805
16538TIP3    H271106   1.159   2.927  37.488 -0.2901 -0.3909  1.0535
16539TIP3   OH271107   1.290   3.418  10.690 -0.1513  0.0372 -0.5757
16539TIP3    H171108   1.223   3.399  10.756  0.4778 -0.5975 -0.1012
16539TIP3    H271109   1.311   3.510  10.703 -0.1603 -0.0373 -0.0044
16540TIP3   OH271110   0.358   1.459  55.279  0.0899  0.7425  0.4734
16540TIP3    H171111   0.309   1.474  55.198  1.2234  0.1865 -0.3429
16540TIP3    H271112   0.357   1.544  55.324 -1.9371  0.6629  0.7086
16541TIP3   OH271113   0.537   2.737  58.727  0.7224 -0.1736 -0.3322
16541TIP3    H171114   0.468   2.677  58.756  0.8929 -0.2357 -0.0517
16541TIP3    H271115   0.617   2.685  58.734  0.9335  0.2309  0.3571
16542TIP3   OH271116   1.844   2.436  21.968 -0.0063 -0.2690 -0.5634
16542TIP3    H171117   1.857   2.423  21.874 -0.4302  0.7381 -0.7767
16542TIP3    H271118   1.835   2.531  21.978 -2.3571 -0.4995  0.1574
16543TIP3   OH271119   0.762   2.998  12.331 -0.4717  0.3881 -1.0029
16543TIP3    H171120   0.796   2.920  12.375 -1.4569  0.4811 -0.0339
16543TIP3    H271121   0.776   3.069  12.395 -0.1227  0.9072 -1.6382
16544TIP3   OH271122   3.388   3.193   1.406  0.3490  0.6764 -0.1714
16544TIP3    H171123   3.466   3.145   1.436  0.4714  0.4667 -0.8046
16544TIP3    H271124   3.315   3.136   1.429  0.6193 -0.9657 -2.9619
16545TIP3   OH271125   0.712   0.649  47.051  0.4540 -0.3644  0.0821
16545TIP3    H171126   0.801   0.680  47.069  0.3608  0.3942 -0.6988
16545TIP3    H271127   0.682   0.703  46.979 -0.4868 -0.9207  0.0395
16546TIP3   OH271128   2.363   2.721   8.369 -0.0641 -0.0628  0.5467
16546TIP3    H171129   2.409   2.704   8.451  0.6501 -3.0049 -0.3316
16546TIP3    H271130   2.296   2.652   8.364 -0.8257  0.7191 -0.8279
16547TIP3   OH271131   0.650   2.318  65.387  0.5392  0.4100 -0.0533
16547TIP3    H171132   0.618   2.244  65.335  2.4178 -0.0510 -0.6139
16547TIP3    H271133   0.686   2.277  65.466  0.1599  0.8761  0.3612
16548TIP3   OH271134   2.348   1.513  20.517  0.1399  0.3278  0.0534
16548TIP3    H171135   2.277   1.480  20.462 -0.6490  2.4102 -0.2855
16548TIP3    H271136   2.403   1.437  20.535  1.4297 -0.2758 -5.0317
16549TIP3   OH271137   0.429   1.699  43.765  0.1486  0.1161  0.0597
16549TIP3    H171138   0.371   1.758  43.813  0.2352 -0.4246  0.8363
16549TIP3    H271139   0.371   1.659  43.699  0.1703  1.3291 -0.7502
16550TIP3   OH271140   0.285   0.914  65.268 -0.1073  0.6316 -0.5431
16550TIP3    H171141   0.193   0.919  65.296  0.1162  0.3119  0.2808
16550TIP3    H271142   0.296   0.988  65.209 -0.8155  0.8506 -0.4144
16551TIP3   OH271143   2.209   1.207   3.360  0.5938 -0.0553  0.1757
16551TIP3    H171144   2.281   1.143   3.353  1.6947  1.1388  0.1593
16551TIP3    H271145   2.212   1.254   3.276 -1.1337 -0.9015 -0.3954
16552TIP3   OH271146   0.534   0.061  54.960  0.2585 -0.0458  0.2129
16552TIP3    H171147   0.605  -0.001  54.947 -0.2335 -0.4113 -0.8549
16552TIP3    H271148   0.546   0.126  54.890 -0.1565  0.1610  0.3283
16553TIP3   OH271149   0.550   3.413  55.512  0.3853  0.2915 -0.3171
16553TIP3    H171150   0.499   3.490  55.487 -0.8296 -0.4034 -0.0507
16553TIP3    H271151   0.538   3.352  55.439 -0.1134 -0.3129  0.2631
16554TIP3   OH271152   1.705   1.011  54.325  0.4297  0.2481  0.1154
16554TIP3    H171153   1.621   1.001  54.278 -0.5585  1.3949  1.5515
16554TIP3    H271154   1.727   1.103  54.315  1.9752 -0.1827 -0.8865
16555TIP3   OH271155   1.031   2.922  63.271  0.5173  0.8498 -0.1818
16555TIP3    H171156   0.995   2.946  63.185 -0.2733  1.9528  0.4415
16555TIP3    H271157   0.980   2.845  63.297  0.3945  0.8347 -0.4606
16556TIP3   OH271158   0.382   2.952   9.910  0.4925 -0.2139  0.6173
16556TIP3    H171159   0.348   3.007   9.980 -0.5692 -0.7909  0.5713
16556TIP3    H271160   0.437   3.011   9.858 -0.1731  0.6628  0.8821
16557TIP3   OH271161   2.683   0.957  56.433 -0.1967  0.4797 -0.2800
16557TIP3    H171162   2.723   0.901  56.500 -0.6292 -0.0899 -0.4896
16557TIP3    H271163   2.722   0.929  56.351 -0.0269  0.8489 -0.3263
16558TIP3   OH271164   0.797   0.078  13.208 -0.0153 -0.5242  0.0875
16558TIP3    H171165   0.820   0.156  13.258 -0.5982  0.1740 -0.7065
16558TIP3    H271166   0.800   0.007  13.272  2.0160 -0.1215  0.5062
16559TIP3   OH271167   0.849   2.009  58.390  0.1356 -0.4630  0.0053
16559TIP3    H171168   0.805   1.932  58.353 -0.3998 -1.1216  1.8858
16559TIP3    H271169   0.791   2.082  58.370 -0.2545 -0.8365 -0.2386
16560TIP3   OH271170   0.618   0.710  60.242  0.2966  0.5072 -0.0617
16560TIP3    H171171   0.525   0.696  60.258  0.3018 -1.3402 -1.3307
16560TIP3    H271172   0.624   0.802  60.215 -1.1942  0.5541 -0.3324
16561TIP3   OH271173   0.643   0.978  16.784  0.3958 -0.1156 -0.8934
16561TIP3    H171174   0.689   0.937  16.711  2.6445  1.0274 -0.2151
16561TIP3    H271175   0.629   1.068  16.756 -1.9685 -0.5292 -1.2555
16562TIP3   OH271176   1.653   1.756  18.728 -0.4830 -0.3215  0.0377
16562TIP3    H171177   1.589   1.690  18.754  2.2080 -2.7869  0.9729
16562TIP3    H271178   1.626   1.836  18.773 -2.9129 -1.2228  0.2803
16563TIP3   OH271179   1.022   1.494  19.554 -0.7731  0.0172  0.0295
16563TIP3    H171180   0.935   1.485  19.515 -0.5279 -0.4244 -0.4400
16563TIP3    H271181   1.074   1.539  19.488 -0.5793  0.0513  0.2022
16564TIP3   OH271182   1.694   2.829  44.016  0.1928  0.4178  0.5838
16564TIP3    H171183   1.638   2.797  44.087 -1.4848  1.4062 -0.2277
16564TIP3    H271184   1.716   2.919  44.041 -1.4535  1.2301 -0.6452
16565TIP3   OH271185   2.170   1.002   9.688  0.6022  0.5029  0.3821
16565TIP3    H171186   2.252   0.959   9.665  0.5351  0.3211  0.4795
16565TIP3    H271187   2.155   1.064   9.617  0.1508 -0.3945 -0.3347
16566TIP3   OH271188   2.350   0.350  21.735 -0.5508  0.4704  0.1511
16566TIP3    H171189   2.301   0.421  21.778 -0.2953  1.1346 -0.6324
16566TIP3    H271190   2.389   0.391  21.658  0.8728 -0.1493  0.5134
16567TIP3   OH271191   0.369   2.338  12.357  0.6828  0.4672  0.1256
16567TIP3    H171192   0.301   2.332  12.290  0.6097 -0.2629  0.2494
16567TIP3    H271193   0.437   2.393  12.318  1.3265 -1.1614 -1.1786
16568TIP3   OH271194   0.935   2.764  47.560 -0.3467  0.2718 -0.8128
16568TIP3    H171195   0.913   2.850  47.521  1.4357  0.6991 -0.9473
16568TIP3    H271196   0.937   2.780  47.654 -2.6149 -0.2824 -0.6144
16569TIP3   OH271197   0.699   0.225  50.273  0.9895 -0.2787 -0.6404
16569TIP3    H171198   0.668   0.188  50.191 -0.5826 -0.7055  0.0934
16569TIP3    H271199   0.758   0.159  50.309  0.6984 -0.6563 -0.8512
16570TIP3   OH271200   1.415   1.947  65.073  0.3135 -0.1101  0.0252
16570TIP3    H171201   1.475   1.939  65.147  0.7794 -0.7537 -0.4095
16570TIP3    H271202   1.331   1.915  65.107 -0.6017  3.4047  1.5187
16571TIP3   OH271203   3.360   1.480  57.924  0.8304 -0.1854  0.0284
16571TIP3    H171204   3.371   1.388  57.898  2.8803 -0.4464  1.5439
16571TIP3    H271205   3.354   1.478  58.019  0.5568  1.2355  0.0631
16572TIP3   OH271206   2.992   2.097   5.856  0.2259  0.0967 -0.0885
16572TIP3    H171207   2.914   2.122   5.906  1.8593  2.1529  1.6272
16572TIP3    H271208   3.044   2.045   5.917  0.6202 -0.5354 -0.9323
16573TIP3   OH271209   2.853   0.572  29.940  0.3756  0.0172  0.0159
16573TIP3    H171210   2.890   0.507  29.998 -0.1965  1.5237  2.1928
16573TIP3    H271211   2.760   0.574  29.962  0.3956  1.6030  0.0745
16574TIP3   OH271212   2.196   3.101  47.725 -0.2460  0.4002  0.4986
16574TIP3    H171213   2.263   3.082  47.660 -1.3816 -0.6164 -0.4291
16574TIP3    H271214   2.232   3.070  47.808  1.3864  2.0751  0.4778
16575TIP3   OH271215   3.420   2.842  52.563 -0.0447  0.3522  0.1616
16575TIP3    H171216   3.414   2.749  52.541  0.7178  0.6224 -1.2596
16575TIP3    H271217   3.424   2.887  52.479  2.1319  1.5049  0.8133
16576TIP3   OH271218   0.237   2.979  18.796 -0.5375  0.0057 -0.1952
16576TIP3    H171219   0.153   3.023  18.806  0.4326  2.5481 -2.1040
16576TIP3    H271220   0.217   2.900  18.746 -2.1117 -0.9778  1.8569
16577TIP3   OH271221   0.110   1.016  59.715 -0.1554 -0.0857 -0.1421
16577TIP3    H171222   0.145   1.105  59.711  0.9339 -0.5183 -0.5470
16577TIP3    H271223   0.149   0.979  59.794 -2.6461  0.5984  1.5270
16578TIP3   OH271224   1.770   1.365  57.286 -0.4065  0.1205  0.1460
16578TIP3    H171225   1.761   1.351  57.380 -2.2123  0.2731  0.0414
16578TIP3    H271226   1.787   1.277  57.251  1.8597  0.2721  0.7159
16579TIP3   OH271227   2.513   0.520  43.558  0.1779 -0.3322 -0.0903
16579TIP3    H171228   2.491   0.536  43.466  0.2712 -0.6481 -0.1689
16579TIP3    H271229   2.558   0.600  43.586  0.3767 -0.3373 -0.3924
16580TIP3   OH271230   0.891   2.034  52.423 -0.0168  0.2958  0.3555
16580TIP3    H171231   0.923   1.979  52.494 -0.1591  1.8697  1.7229
16580TIP3    H271232   0.862   2.114  52.467 -0.8883  1.0005 -1.4080
16581TIP3   OH271233   0.136   0.033  11.392  0.1522  0.6980 -0.2456
16581TIP3    H171234   0.201   0.024  11.322 -0.1330  0.2056 -0.4519
16581TIP3    H271235   0.177   0.091  11.456  0.9364  0.1270 -0.2136
16582TIP3   OH271236   3.205   1.131   4.734 -0.1311  0.5650  0.9265
16582TIP3    H171237   3.289   1.117   4.691 -0.8186  2.9753 -1.4434
16582TIP3    H271238   3.163   1.045   4.734  0.9742 -0.0229 -0.9003
16583TIP3   OH271239   0.132   2.099  59.735  0.0828 -0.0002 -0.3183
16583TIP3    H171240   0.201   2.112  59.800  0.7983  0.3026 -1.1237
16583TIP3    H271241   0.160   2.150  59.659 -0.6018 -0.5651 -0.9728
16584TIP3   OH271242   2.526   1.171  22.181  0.1986  0.1319  0.6841
16584TIP3    H171243   2.504   1.172  22.274 -1.2351 -0.3588  0.3691
16584TIP3    H271244   2.622   1.174  22.180  0.2950 -0.9253  2.1996
16585TIP3   OH271245   1.744   1.321  26.480  0.4324  0.8342 -0.0633
16585TIP3    H171246   1.802   1.394  26.499  1.8598  0.3087 -2.0524
16585TIP3    H271247   1.755   1.262  26.555  1.9550  1.0852 -0.0448
16586TIP3   OH271248   0.315   1.409   0.647 -0.0473 -0.3335 -0.1901
16586TIP3    H171249   0.261   1.485   0.626 -0.7022 -0.6944  0.1572
16586TIP3    H271250   0.369   1.438   0.720 -0.4235 -0.2537  0.0608
16587TIP3   OH271251   1.474   1.622  45.241  0.2833 -0.4992 -0.5075
16587TIP3    H171252   1.560   1.581  45.233 -1.2466 -3.7096 -3.1713
16587TIP3    H271253   1.447   1.639  45.151 -1.7942  0.5491  0.2558
16588TIP3   OH271254   2.425   2.081  54.055  0.4759 -0.1142  0.1664
16588TIP3    H171255   2.411   2.080  54.150  1.4596 -2.5081  0.3663
16588TIP3    H271256   2.348   2.038  54.018  0.6025 -0.1864 -0.0158
16589TIP3   OH271257   0.173   1.314  62.346  0.0929  0.1007  0.3436
16589TIP3    H171258   0.139   1.354  62.266 -0.4824  1.3471  1.1955
16589TIP3    H271259   0.261   1.350  62.355 -0.4793  1.3331  1.1903
16590TIP3   OH271260   3.149   1.482  65.604  0.5726  0.1429 -0.3816
16590TIP3    H171261   3.103   1.406  65.567  0.6971  0.3453 -0.9534
16590TIP3    H271262   3.094   1.557  65.581 -0.9199  0.0088  2.4004
16591TIP3   OH271263   1.581   1.099  19.944  0.1505 -0.5098 -0.3122
16591TIP3    H171264   1.512   1.138  19.889 -1.9852 -2.7262  0.5578
16591TIP3    H271265   1.600   1.165  20.010 -0.0032  0.7499 -1.4796
16592TIP3   OH271266   0.722   2.515   2.271 -1.1105 -0.7159 -0.2246
16592TIP3    H171267   0.806   2.552   2.245 -1.7163  1.0716  0.2209
16592TIP3    H271268   0.724   2.425   2.239  0.6094 -0.4382 -0.9794
16593TIP3   OH271269   0.610   0.218  18.085  0.0852 -0.6267  0.3732
16593TIP3    H171270   0.701   0.197  18.067  0.0114 -0.1072 -0.6653
16593TIP3    H271271   0.613   0.307  18.120 -0.0121 -0.6755  0.5082
16594TIP3   OH271272   1.529   0.879  49.369  0.5233  0.2635 -0.0884
16594TIP3    H171273   1.539   0.846  49.280 -1.1542  0.4757 -0.3837
16594TIP3    H271274   1.512   0.802  49.423 -0.3319  0.3221 -0.2689
16595TIP3   OH271275   0.501   1.147  12.934  0.4087 -0.2761 -0.8881
16595TIP3    H171276   0.553   1.096  12.872  1.9829  0.2049 -0.0336
16595TIP3    H271277   0.516   1.103  13.018  0.1968  0.4531 -0.4642
16596TIP3   OH271278   3.009   0.673  57.106  0.4214  0.0408 -0.1729
16596TIP3    H171279   2.974   0.755  57.141  3.2228  2.0370 -1.6248
16596TIP3    H271280   2.942   0.642  57.046 -0.1496  2.0710 -0.6729
16597TIP3   OH271281   1.574   2.402  48.537 -0.2239  0.5831 -0.3271
16597TIP3    H171282   1.604   2.332  48.595 -1.3130 -1.3729 -1.9781
16597TIP3    H271283   1.653   2.432  48.493  0.2912  0.5041  0.5201
16598TIP3   OH271284   2.839   0.810  18.763  0.3223  0.4119 -0.4709
16598TIP3    H171285   2.811   0.764  18.683  2.7419  0.0524 -1.2099
16598TIP3    H271286   2.887   0.886  18.730 -0.3344  1.3626  0.7093
16599TIP3   OH271287   1.585   2.247  63.177  0.6595  0.2434 -0.0006
16599TIP3    H171288   1.678   2.223  63.174  0.4198 -0.8554  0.6122
16599TIP3    H271289   1.562   2.266  63.086  0.7361 -2.6690 -0.7406
16600TIP3   OH271290   2.561   0.774  51.841  0.5592 -0.5126 -0.0452
16600TIP3    H171291   2.637   0.763  51.784  0.1415  0.2579 -0.7661
16600TIP3    H271292   2.496   0.817  51.786 -0.5583 -1.5268  0.4242
16601TIP3   OH271293   2.741   1.467   8.853 -0.2518 -0.1970 -0.1299
16601TIP3    H171294   2.714   1.423   8.934 -1.7437  1.2073  0.1958
16601TIP3    H271295   2.685   1.430   8.785 -0.8284  0.4585 -0.0275
16602TIP3   OH271296   3.365   2.328   4.343 -0.3493 -0.2005 -0.5818
16602TIP3    H171297   3.367   2.312   4.437 -2.3766 -0.4692 -0.5343
16602TIP3    H271298   3.294   2.391   4.331  2.6417  3.4047 -1.5230
16603TIP3   OH271299   3.106   3.275  66.031  0.5237 -0.0418 -0.3083
16603TIP3    H171300   3.061   3.285  65.947  1.3182  2.2802 -0.5125
16603TIP3    H271301   3.038   3.289  66.097  0.7342  2.9928 -0.6128
16604TIP3   OH271302   3.004   1.521   8.763  0.0801  0.0101 -0.5400
16604TIP3    H171303   2.932   1.495   8.821  0.6478 -0.1961  0.0860
16604TIP3    H271304   2.986   1.475   8.681 -0.1676 -0.5417 -0.1846
16605TIP3   OH271305   1.882   3.019   2.682 -0.0619 -0.0751  0.0771
16605TIP3    H171306   1.944   3.015   2.754 -0.4078  2.0998  0.5877
16605TIP3    H271307   1.927   3.069   2.614 -1.2151  1.6085  0.4903
16606TIP3   OH271308   1.408   1.152  34.270  0.1112  0.2629  0.6501
16606TIP3    H171309   1.482   1.156  34.210  0.8211 -1.0327  1.4109
16606TIP3    H271310   1.331   1.163  34.213  0.8168  0.3254 -0.3135
16607TIP3   OH271311   2.750   1.889  61.282 -0.0501  0.0878 -0.0218
16607TIP3    H171312   2.738   1.977  61.318 -2.7556  0.5573 -1.7468
16607TIP3    H271313   2.793   1.903  61.198  0.2664 -0.3332  0.0706
16608TIP3   OH271314   2.016   1.379  57.730  0.2832  0.4130 -0.1212
16608TIP3    H171315   2.062   1.308  57.684  1.3237  0.9735  0.0206
16608TIP3    H271316   2.073   1.455  57.718 -0.7445  1.1885 -0.1337
16609TIP3   OH271317   3.177   3.016  65.977 -0.2648 -0.0530  0.4584
16609TIP3    H171318   3.089   2.995  65.944  1.3093  0.2977 -5.0166
16609TIP3    H271319   3.168   3.104  66.013 -2.0774  0.2581 -0.6164
16610TIP3   OH271320   1.142   2.555   6.041 -0.2589  0.0623 -0.2021
16610TIP3    H171321   1.217   2.569   5.983 -0.1922 -1.2279 -0.4622
16610TIP3    H271322   1.067   2.586   5.991 -0.1377 -0.5616 -0.7936
16611TIP3   OH271323   2.892   1.060   1.110  0.3541  0.6917  0.7199
16611TIP3    H171324   2.846   0.987   1.152 -0.1045  0.2776 -0.4597
16611TIP3    H271325   2.978   1.061   1.151  1.1646 -1.9190 -0.6986
16612TIP3   OH271326   2.749   3.264  15.241 -0.1023  0.3194 -0.0515
16612TIP3    H171327   2.727   3.200  15.174  1.2100  0.1193 -0.3277
16612TIP3    H271328   2.791   3.214  15.311 -2.1418  0.4093  1.3296
16613TIP3   OH271329   1.443   1.099   1.191  0.1595 -0.1583  0.1430
16613TIP3    H171330   1.353   1.071   1.175  0.0558 -0.0413  0.5164
16613TIP3    H271331   1.493   1.061   1.118  0.2481 -2.3391  1.2715
16614TIP3   OH271332   0.501   0.007   9.856  0.1975 -0.4327 -1.0071
16614TIP3    H171333   0.547  -0.006   9.773  0.1429  1.2648 -1.3257
16614TIP3    H271334   0.478   0.100   9.857 -3.0084 -1.1127 -0.7630
16615TIP3   OH271335   2.548   2.663  66.126  0.0333 -0.6767  0.0924
16615TIP3    H171336   2.566   2.580  66.082  2.6117 -1.0579  1.6244
16615TIP3    H271337   2.600   2.727  66.078  0.2843 -0.4933  0.5997
16616TIP3   OH271338   2.560   2.172  51.539 -0.7307  0.3516 -0.4756
16616TIP3    H171339   2.505   2.204  51.468 -2.5097 -1.0542  0.2012
16616TIP3    H271340   2.602   2.093  51.503  1.5848  1.8268 -1.2523
16617TIP3   OH271341   2.379   2.884  53.126 -0.4836 -0.5407 -0.1476
16617TIP3    H171342   2.399   2.974  53.102 -0.8401 -0.5589 -0.5290
16617TIP3    H271343   2.308   2.892  53.190 -2.3719 -0.6196 -2.1189
16618TIP3   OH271344   2.605   3.044   2.889 -0.0285  0.2031  0.6892
16618TIP3    H171345   2.619   2.950   2.892  0.0030  0.2209  1.3018
16618TIP3    H271346   2.659   3.074   2.816 -2.4904 -0.6317 -1.6392
16619TIP3   OH271347   0.081   0.951  46.509 -0.2186  0.0274  0.2636
16619TIP3    H171348   0.116   0.864  46.490 -0.0902 -0.1654  1.3445
16619TIP3    H271349   0.121   0.977  46.592  1.0802  1.8632 -0.8472
16620TIP3   OH271350   1.072   0.662  50.933  0.3455 -0.4624 -0.0906
16620TIP3    H171351   1.105   0.576  50.905  0.1693 -0.2102 -1.1000
16620TIP3    H271352   0.980   0.663  50.906  0.1011 -0.2876  0.7103
16621TIP3   OH271353   2.099   3.152  49.320  0.5418 -0.6765  0.0828
16621TIP3    H171354   2.138   3.068  49.295 -1.9671 -1.7179 -0.7084
16621TIP3    H271355   2.095   3.201  49.238  0.4374 -0.4827  0.2047
16622TIP3   OH271356   2.427   2.635  11.852 -0.0853  0.6105  0.0351
16622TIP3    H171357   2.504   2.580  11.868  1.3967  2.5829  0.0997
16622TIP3    H271358   2.372   2.624  11.930 -1.6555 -3.4197 -1.3974
16623TIP3   OH271359   2.445   2.940   6.247  0.0058  0.0388 -0.2577
16623TIP3    H171360   2.371   2.943   6.186  0.1098 -0.0271 -0.3871
16623TIP3    H271361   2.427   2.864   6.302 -0.7901  0.8905  0.6905
16624TIP3   OH271362   0.593   3.330   0.972 -0.6482  0.0529 -0.1702
16624TIP3    H171363   0.510   3.366   0.943 -0.4969 -1.7497 -3.2329
16624TIP3    H271364   0.653   3.344   0.899  1.1395 -0.7425  1.0403
16625TIP3   OH271365   3.392   0.794  45.542 -0.2703  0.6347 -0.1397
16625TIP3    H171366   3.468   0.806  45.599 -0.5165  1.3273  0.0635
16625TIP3    H271367   3.389   0.700  45.525  0.0654  0.4781  0.6288
16626TIP3   OH271368   1.783   2.071  15.656 -0.7194 -0.2507  0.2067
16626TIP3    H171369   1.869   2.040  15.685 -1.2048 -0.6001  1.3381
16626TIP3    H271370   1.747   1.999  15.605  0.3183  0.5264 -1.7299
16627TIP3   OH271371   0.248   0.493  57.687  0.8593  0.0811  0.0933
16627TIP3    H171372   0.316   0.444  57.641  1.3669  2.3145 -1.7476
16627TIP3    H271373   0.285   0.509  57.774  0.7766 -2.4415  0.6621
16628TIP3   OH271374   0.063   0.614  59.513  0.3470 -0.7358 -0.5217
16628TIP3    H171375  -0.027   0.645  59.514  0.9906  1.4785 -2.3679
16628TIP3    H271376   0.058   0.522  59.539 -2.3238 -0.4742  0.1057
16629TIP3   OH271377   1.632   0.632  57.421  0.2991 -0.6945  0.2581
16629TIP3    H171378   1.671   0.623  57.508  0.5864  1.0615  0.3496
16629TIP3    H271379   1.702   0.607  57.361  1.4387  1.7218  0.4525
16630TIP3   OH271380   3.144   1.356   9.715  0.1189  0.1414 -0.0332
16630TIP3    H171381   3.104   1.271   9.698 -0.1796 -0.0495  1.4866
16630TIP3    H271382   3.157   1.358   9.810  2.6621  0.6671 -0.3251
16631TIP3   OH271383   3.390   1.118   5.423 -0.2210 -0.5264  0.2458
16631TIP3    H171384   3.481   1.087   5.430  0.0373  0.2139  0.2184
16631TIP3    H271385   3.386   1.193   5.483 -0.4417  0.2931 -0.7676
16632TIP3   OH271386   2.016   1.863   4.160 -0.0641 -0.3491  0.0175
16632TIP3    H171387   2.066   1.865   4.078 -0.9035 -0.9541 -0.5370
16632TIP3    H271388   2.042   1.781   4.202 -0.1918 -0.4118 -0.0230
16633TIP3   OH271389   3.251   3.325  19.915  0.5736 -0.4682 -0.5782
16633TIP3    H171390   3.287   3.367  19.993 -0.2650 -0.5342 -0.1482
16633TIP3    H271391   3.184   3.385  19.883 -1.6253 -1.9829  0.8348
16634TIP3   OH271392   2.645   1.882   7.140 -0.1951  0.5038 -0.0171
16634TIP3    H171393   2.684   1.963   7.174  1.3032 -1.2067  2.7438
16634TIP3    H271394   2.720   1.825   7.123 -1.2162 -0.3736 -1.9388
16635TIP3   OH271395   2.950   1.527  47.172 -0.1169 -0.3793  0.1693
16635TIP3    H171396   2.882   1.524  47.104  0.1992 -1.4605 -0.1255
16635TIP3    H271397   3.026   1.564  47.127 -0.5087  0.8801  0.5143
16636TIP3   OH271398   0.294   2.190  56.413 -0.2360  0.1349 -0.0872
16636TIP3    H171399   0.371   2.224  56.458 -0.9182 -0.3075  1.5046
16636TIP3    H271400   0.299   2.095  56.426  0.2367 -0.1608 -2.1413
16637TIP3   OH271401   3.399   0.286  19.481 -0.2124 -0.0189 -0.3325
16637TIP3    H171402   3.384   0.357  19.419  0.3765  0.4309  0.0367
16637TIP3    H271403   3.448   0.221  19.431  0.9948  0.7030 -0.1281
16638TIP3   OH271404   2.295   0.092  55.237  0.3709  0.1320 -0.5889
16638TIP3    H171405   2.326   0.023  55.178  0.4463 -0.3924  0.0537
16638TIP3    H271406   2.200   0.080  55.239  0.3317  0.3770 -0.8767
16639TIP3   OH271407   2.609   2.979  26.855 -0.0260  0.0646  0.0406
16639TIP3    H171408   2.605   2.995  26.761 -1.3445  1.0972  0.2395
16639TIP3    H271409   2.648   3.059  26.891 -0.5325  0.1212  0.4654
16640TIP3   OH271410   1.711   1.709  22.016 -0.8168 -0.0678 -0.3899
16640TIP3    H171411   1.792   1.728  21.969 -0.0030 -3.2283 -0.4747
16640TIP3    H271412   1.659   1.656  21.956 -0.8749 -2.0110  1.2800
16641TIP3   OH271413   2.530   0.159  19.173 -0.0183  0.1589 -0.2783
16641TIP3    H171414   2.546   0.065  19.180 -0.5752  0.0992  0.2712
16641TIP3    H271415   2.517   0.174  19.079  2.4853  0.1107 -0.7039
16642TIP3   OH271416   2.204   0.498  20.961  0.7562 -0.7629  0.4060
16642TIP3    H171417   2.201   0.573  20.901 -0.0188 -0.7781  0.4081
16642TIP3    H271418   2.297   0.486  20.980  0.8208  1.2544  1.7202
16643TIP3   OH271419   1.637   1.496  37.338 -0.0532  0.7396  0.0107
16643TIP3    H171420   1.699   1.514  37.267  0.1401  0.2187  0.0375
16643TIP3    H271421   1.629   1.578  37.385 -0.3420  1.1501 -0.7414
16644TIP3   OH271422   2.151   2.706  45.311  0.0419 -0.3371 -0.0839
16644TIP3    H171423   2.185   2.791  45.341  1.0507 -0.4598 -0.8101
16644TIP3    H271424   2.064   2.700  45.350  1.3605 -0.6694  3.1337
16645TIP3   OH271425   3.416   1.423  50.442  0.2181 -0.4676 -0.0619
16645TIP3    H171426   3.476   1.463  50.378  1.3437  0.3312  1.4427
16645TIP3    H271427   3.473   1.387  50.509 -0.9846  0.3032  1.4201
16646TIP3   OH271428   3.051   2.910  20.476  0.9191 -0.3641  0.0464
16646TIP3    H171429   2.985   2.855  20.518  1.5731 -1.5880 -0.4665
16646TIP3    H271430   3.006   2.992  20.458 -0.2366 -0.9011  0.4092
16647TIP3   OH271431   1.992   2.695   6.215  0.5500 -0.3489  0.0943
16647TIP3    H171432   1.912   2.651   6.185  0.6595  0.0892 -0.8907
16647TIP3    H271433   1.981   2.703   6.310 -0.1569 -1.1137  0.0948
16648TIP3   OH271434   1.955   2.223  13.876 -0.2153  0.6750 -0.8972
16648TIP3    H171435   1.905   2.242  13.797 -0.5684  1.6818 -0.4474
16648TIP3    H271436   2.022   2.160  13.847 -2.0607 -1.1965 -1.3951
16649TIP3   OH271437   1.136   0.359  49.508  0.8927  0.2274 -0.0026
16649TIP3    H171438   1.157   0.418  49.435  1.1796  0.0128 -0.0967
16649TIP3    H271439   1.120   0.274  49.466  3.1122 -0.4186  0.3277
16650TIP3   OH271440   1.122   1.089   4.725  0.4684 -0.0582  0.4231
16650TIP3    H171441   1.192   1.148   4.697  0.1375 -0.0382 -0.3821
16650TIP3    H271442   1.145   1.066   4.815  0.2854  1.8092  1.0059
16651TIP3   OH271443   2.953   1.583   3.420 -0.0286 -0.3277  0.0832
16651TIP3    H171444   3.002   1.516   3.467 -0.2117 -1.5117 -1.3213
16651TIP3    H271445   3.019   1.629   3.368 -0.2289 -1.3748 -1.1681
16652TIP3   OH271446   1.153   1.134  38.551  0.0284 -0.7315 -0.3620
16652TIP3    H171447   1.200   1.055  38.523 -2.7585 -1.8511 -2.4888
16652TIP3    H271448   1.150   1.189  38.473 -0.7829  0.0205  0.1824
16653TIP3   OH271449   3.136   2.552  56.841  0.3687  0.1895 -0.1452
16653TIP3    H171450   3.108   2.593  56.922 -0.6524  0.0545 -0.4146
16653TIP3    H271451   3.226   2.582  56.828 -0.1356  1.8225  0.0044
16654TIP3   OH271452   1.772   1.978   4.913  0.2875 -0.3154  0.5635
16654TIP3    H171453   1.868   1.983   4.914  0.2188  1.8771  0.2375
16654TIP3    H271454   1.746   2.009   5.000 -0.1352 -1.5030  0.8783
16655TIP3   OH271455   2.029   0.791   2.905 -0.3886  0.0814 -0.5384
16655TIP3    H171456   1.964   0.854   2.937 -0.7676  0.3739 -1.8375
16655TIP3    H271457   2.107   0.809   2.957 -1.6918 -1.1921  2.0398
16656TIP3   OH271458   3.265   1.551  22.093  0.1513 -0.6248  0.1783
16656TIP3    H171459   3.304   1.617  22.150 -1.9482  1.4605 -0.6560
16656TIP3    H271460   3.210   1.498  22.152 -1.1698  0.8452  0.3360
16657TIP3   OH271461   1.151   2.719  58.724 -0.2365  0.7232 -0.1788
16657TIP3    H171462   1.162   2.810  58.698 -4.4700  1.5416  0.1893
16657TIP3    H271463   1.087   2.721  58.795 -0.8970 -2.5506 -0.4850
16658TIP3   OH271464   2.837   1.537  17.166 -0.1991 -0.0090 -0.0460
16658TIP3    H171465   2.856   1.464  17.225  1.4684  0.4956  0.0918
16658TIP3    H271466   2.804   1.495  17.086 -2.3441 -0.7075  1.1355
16659TIP3   OH271467   1.692   2.630   7.862 -0.3856 -0.1571 -0.0999
16659TIP3    H171468   1.654   2.545   7.841 -1.3194 -0.3643  2.1703
16659TIP3    H271469   1.638   2.693   7.813 -0.8104 -0.7402 -0.3940
16660TIP3   OH271470   0.039   2.767  56.141 -1.1035  0.2381  0.3335
16660TIP3    H171471   0.063   2.675  56.132 -2.7887 -0.2091  0.1399
16660TIP3    H271472   0.110   2.805  56.193  0.1936 -0.9031 -0.5312
16661TIP3   OH271473   2.194   3.420   0.003 -0.1714 -0.1251 -0.2591
16661TIP3    H171474   2.254   3.428   0.076  0.1072 -1.8413 -0.2708
16661TIP3    H271475   2.109   3.444   0.039  0.0777 -0.2896  0.4430
16662TIP3   OH271476   0.697   2.080  47.849  0.3827  0.2284  0.1860
16662TIP3    H171477   0.692   2.052  47.757 -0.9398  1.6122 -0.2065
16662TIP3    H271478   0.668   2.004  47.899 -1.4312  0.2564 -0.7372
16663TIP3   OH271479   1.612   3.435  46.356 -0.3974 -0.2807  0.3865
16663TIP3    H171480   1.521   3.466  46.358 -0.6458 -0.9585 -0.0137
16663TIP3    H271481   1.614   3.371  46.285  0.3816 -0.3128  0.4276
16664TIP3   OH271482   2.481   0.380  14.518  0.1781  0.0618  0.4598
16664TIP3    H171483   2.569   0.407  14.544  1.3559 -0.3990 -2.6639
16664TIP3    H271484   2.485   0.284  14.519  0.5114 -0.0057 -1.7907
16665TIP3   OH271485   0.300   1.389  63.684 -0.3557 -0.6001  0.1607
16665TIP3    H171486   0.385   1.417  63.649  0.6333 -2.6192  0.7925
16665TIP3    H271487   0.236   1.441  63.635  1.2099  1.1148 -0.2172
16666TIP3   OH271488   1.231   0.535   0.153  0.2412  1.1430  0.1910
16666TIP3    H171489   1.160   0.598   0.149  0.0325  1.1269  2.6393
16666TIP3    H271490   1.218   0.479   0.076 -0.0605  3.4761 -1.5727
16667TIP3   OH271491   3.304   1.277  49.845 -0.3197 -0.2777 -0.1574
16667TIP3    H171492   3.237   1.227  49.798 -1.1170 -0.2586  0.9273
16667TIP3    H271493   3.376   1.216  49.859 -0.3703 -0.4817 -0.7682
16668TIP3   OH271494   2.596   2.592   3.551  0.2010  0.0811  0.1651
16668TIP3    H171495   2.667   2.560   3.496 -2.2620 -1.6040 -2.3298
16668TIP3    H271496   2.565   2.515   3.599  0.1175  0.8047  1.3149
16669TIP3   OH271497   0.216   1.223  44.956 -0.4171  0.4766  0.0467
16669TIP3    H171498   0.187   1.179  45.036 -0.1785  0.8314  0.3364
16669TIP3    H271499   0.260   1.303  44.987 -0.0896  0.4867 -0.4242
16670TIP3   OH271500   3.305   0.586   6.600  0.4845  0.0498  0.0211
16670TIP3    H171501   3.320   0.496   6.571 -1.2046  0.3003 -1.8421
16670TIP3    H271502   3.279   0.633   6.521 -1.0513  1.6224  1.3706
16671TIP3   OH271503   0.847   1.354  10.426 -0.6785  0.1309  0.5864
16671TIP3    H171504   0.801   1.421  10.477 -0.2185  0.0071  1.1876
16671TIP3    H271505   0.917   1.325  10.484  0.2566  0.4312 -0.3649
16672TIP3   OH271506   2.401   2.109  59.751 -0.1257 -0.2454 -0.2172
16672TIP3    H171507   2.367   2.188  59.794 -0.1083  0.0173 -0.6723
16672TIP3    H271508   2.323   2.067  59.715 -0.1191 -0.3613 -0.0927
16673TIP3   OH271509   2.026   2.203  57.410  0.2424 -0.0352  0.3765
16673TIP3    H171510   2.086   2.276  57.393  0.8119 -1.0735 -2.5011
16673TIP3    H271511   1.951   2.244  57.453  1.1798  1.9929  0.2221
16674TIP3   OH271512   2.161   1.804  67.240 -0.4698  0.1452  0.2636
16674TIP3    H171513   2.108   1.863  67.293  1.0994 -0.3420  2.5227
16674TIP3    H271514   2.124   1.717  67.256  0.3657 -0.0763  1.0949
16675TIP3   OH271515   3.321   3.268  58.117 -0.2133 -0.1846  0.4706
16675TIP3    H171516   3.356   3.295  58.201  0.5494  0.3083  0.0104
16675TIP3    H271517   3.360   3.329  58.054 -0.8704 -0.4596 -0.2224
16676TIP3   OH271518   2.365   2.393   9.947  0.3390 -0.3519  0.1931
16676TIP3    H171519   2.313   2.319   9.978  0.4724 -1.7420 -2.5865
16676TIP3    H271520   2.449   2.384   9.992 -0.2753 -0.7300  1.3056
16677TIP3   OH271521   0.316   3.441  16.038 -0.3759 -0.4798  0.0635
16677TIP3    H171522   0.272   3.356  16.027 -1.3739 -0.1823  1.4588
16677TIP3    H271523   0.343   3.442  16.130 -0.3802  0.7166  0.0634
16678TIP3   OH271524   2.166   2.432  55.952 -0.6277 -0.8354  0.1476
16678TIP3    H171525   2.173   2.367  56.021 -1.8698 -0.9532  0.1818
16678TIP3    H271526   2.115   2.389  55.883 -1.5403  0.1252  0.2072
16679TIP3   OH271527   2.501   2.017  13.419 -0.0426  0.1412 -0.1124
16679TIP3    H171528   2.575   2.023  13.480 -0.2939  1.6783  0.1035
16679TIP3    H271529   2.486   2.108  13.391  2.6472 -0.7235 -5.6786
16680TIP3   OH271530   3.068   3.371  45.420 -0.0474 -0.1168 -0.6519
16680TIP3    H171531   3.083   3.334  45.507  2.1591  1.3550 -0.3143
16680TIP3    H271532   3.078   3.297  45.360 -1.6434 -1.1561  0.3061
16681TIP3   OH271533   2.435   0.534   8.168 -0.3546  0.1751  0.1370
16681TIP3    H171534   2.360   0.532   8.107 -0.3657  0.2187  0.1488
16681TIP3    H271535   2.398   0.507   8.252 -0.1034 -1.0572 -0.1233
16682TIP3   OH271536   2.085   1.699  11.113 -0.4235  0.3695 -0.1471
16682TIP3    H171537   2.160   1.746  11.149  1.6633 -2.1571 -0.9105
16682TIP3    H271538   2.009   1.743  11.151  1.4660  1.7051  2.3895
16683TIP3   OH271539   3.414   2.246   7.058 -0.0325  0.4662 -0.8495
16683TIP3    H171540   3.323   2.266   7.035 -0.8452  1.3341  2.4626
16683TIP3    H271541   3.407   2.191   7.136  2.3247 -0.2018 -1.0363
16684TIP3   OH271542   0.381   1.429   6.968 -0.2507  0.3010 -0.1570
16684TIP3    H171543   0.438   1.504   6.979  0.7814 -0.5917  0.9015
16684TIP3    H271544   0.346   1.412   7.056 -2.4838  1.0395 -0.8315
16685TIP3   OH271545   1.323   2.093  19.811  0.3414  0.3781 -0.6791
16685TIP3    H171546   1.405   2.057  19.778 -0.5165 -0.9199 -1.4984
16685TIP3    H271547   1.311   2.175  19.762 -0.0076 -0.6189 -2.3543
16686TIP3   OH271548   0.307   3.284  14.336  0.3563 -0.7436 -0.1229
16686TIP3    H171549   0.359   3.292  14.256 -1.1430 -0.6070 -1.1266
16686TIP3    H271550   0.322   3.195  14.366  1.6117 -0.5258 -0.0596
16687TIP3   OH271551   0.787   1.803  46.169  0.1931 -0.4391 -0.4430
16687TIP3    H171552   0.758   1.822  46.080  1.2234  0.2400 -0.6581
16687TIP3    H271553   0.784   1.708  46.176 -2.8303 -0.4185 -0.1629
16688TIP3   OH271554   0.404   3.004  19.017 -0.4648  0.4051  0.0971
16688TIP3    H171555   0.443   2.933  19.068 -1.0160 -0.0906 -0.1645
16688TIP3    H271556   0.358   2.960  18.945 -0.0685  1.0738 -0.5809
16689TIP3   OH271557   0.960   1.044  21.952 -0.2485  0.5204 -0.2390
16689TIP3    H171558   1.039   1.096  21.968 -1.1320  1.5790  0.9440
16689TIP3    H271559   0.991   0.966  21.907  1.3815  1.2115 -0.3869
16690TIP3   OH271560   3.450   1.842  53.511 -0.2945  0.7247  0.0643
16690TIP3    H171561   3.377   1.785  53.536  0.0312  0.1035 -0.3920
16690TIP3    H271562   3.509   1.786  53.462  0.4268  1.2663  0.3003
16691TIP3   OH271563   0.115   1.387  18.725  0.1742  0.1797  0.4543
16691TIP3    H171564   0.132   1.394  18.631  0.5147 -0.2516  0.4831
16691TIP3    H271565   0.026   1.351  18.731  0.5370 -0.7616  0.2927
16692TIP3   OH271566   2.895   1.132  15.164 -1.1556  0.1127  0.0112
16692TIP3    H171567   2.926   1.215  15.129 -0.1382 -1.4671 -3.2686
16692TIP3    H271568   2.816   1.112  15.114 -0.0531 -1.9261 -1.0781
16693TIP3   OH271569   3.005   0.219  45.752 -0.2707  0.0031 -0.4775
16693TIP3    H171570   3.039   0.132  45.771  1.0742  0.7047  0.5364
16693TIP3    H271571   2.910   0.208  45.752 -0.1197 -1.6264 -1.3376
16694TIP3   OH271572   1.408   1.566  19.218 -0.1963 -0.0510  0.0512
16694TIP3    H171573   1.441   1.613  19.141  0.5275 -0.1931  0.2706
16694TIP3    H271574   1.484   1.520  19.253 -0.0937  1.3424  1.8459
16695TIP3   OH271575   2.607   1.730  65.216  0.3475 -0.2372 -0.3448
16695TIP3    H171576   2.543   1.680  65.166 -0.0667  0.3895 -0.4518
16695TIP3    H271577   2.557   1.803  65.253  1.0925  0.5293 -0.8293
16696TIP3   OH271578   0.470   2.029  67.308 -0.5759 -0.0387 -0.9045
16696TIP3    H171579   0.466   1.937  67.333 -1.5202  0.2802  0.1973
16696TIP3    H271580   0.422   2.075  67.377 -0.7497  1.2023 -1.8191
16697TIP3   OH271581   2.980   2.001  60.789  0.0531 -0.1287  0.2932
16697TIP3    H171582   3.048   1.933  60.786  0.6216  0.4308  0.1278
16697TIP3    H271583   3.027   2.082  60.769 -0.6201  0.3101  0.4561
16698TIP3   OH271584   1.935   1.614  47.717  0.1422 -0.2295  0.0337
16698TIP3    H171585   1.998   1.568  47.662 -1.3008 -1.1342 -0.9260
16698TIP3    H271586   1.961   1.706  47.710  0.2944 -0.3792 -1.7772
16699TIP3   OH271587   2.234   2.742  67.009 -1.4071 -0.5053  0.4951
16699TIP3    H171588   2.167   2.754  66.941 -1.5700 -2.2577  0.2934
16699TIP3    H271589   2.208   2.662  67.055  0.5486 -1.2748  0.3853
16700TIP3   OH271590   0.679   0.138  54.467 -0.7359 -0.2971 -0.4563
16700TIP3    H171591   0.639   0.059  54.432 -0.3998 -0.8620  0.4059
16700TIP3    H271592   0.730   0.108  54.542 -0.1065  0.6536 -0.4871
16701TIP3   OH271593   2.134   0.395  58.289 -0.3933  0.3408  0.3611
16701TIP3    H171594   2.123   0.343  58.209 -0.1743  0.7873  0.0367
16701TIP3    H271595   2.044   0.413  58.318 -0.5167  1.6730 -0.7751
16702TIP3   OH271596   1.418   1.540  60.790  0.3077  0.1164  0.1650
16702TIP3    H171597   1.336   1.498  60.819  0.0942 -1.6899 -2.6660
16702TIP3    H271598   1.479   1.524  60.862 -0.9732 -1.3502  0.9933
16703TIP3   OH271599   1.821   1.056  17.100 -0.1857  0.3109 -0.2187
16703TIP3    H171600   1.772   1.093  17.027 -0.3956 -0.4149 -0.4588
16703TIP3    H271601   1.904   1.029  17.062 -0.2618  0.0090 -0.1740
16704TIP3   OH271602   3.372   2.233  15.647  0.2878  0.1178  0.2902
16704TIP3    H171603   3.379   2.326  15.667 -1.7510  1.0168 -2.4157
16704TIP3    H271604   3.393   2.228  15.553 -1.5995 -1.7653 -0.1077
16705TIP3   OH271605   2.448   3.270  50.724  0.0853  0.0920  0.0498
16705TIP3    H171606   2.521   3.331  50.740 -0.1500  0.0584  1.3044
16705TIP3    H271607   2.412   3.299  50.640  0.3052  1.3699  0.3717
16706TIP3   OH271608   0.347   1.612  19.888  0.1437 -0.3006  0.0328
16706TIP3    H171609   0.442   1.616  19.899  0.0895  0.3379  0.3348
16706TIP3    H271610   0.315   1.693  19.927 -0.4911 -0.3030 -0.4554
16707TIP3   OH271611   0.188   3.206  58.949 -0.0176  0.6000  0.5331
16707TIP3    H171612   0.115   3.174  58.896  0.8365  0.3573 -0.5434
16707TIP3    H271613   0.261   3.149  58.926  0.8997  1.7754  0.4258
16708TIP3   OH271614   2.090   3.388  58.302 -0.2626  0.0879 -0.1496
16708TIP3    H171615   2.010   3.382  58.355 -0.5029  1.9027 -0.2477
16708TIP3    H271616   2.151   3.438  58.355  0.2617  0.0514 -0.7062
16709TIP3   OH271617   0.699   0.989   2.926  0.2929  0.1256 -0.8244
16709TIP3    H171618   0.729   0.993   2.836  0.8228 -0.8371 -0.7018
16709TIP3    H271619   0.649   0.907   2.931  0.0901  0.2756 -0.2962
16710TIP3   OH271620   1.795   1.852   3.662 -0.0355  0.3307  0.0425
16710TIP3    H171621   1.726   1.916   3.677  0.1685  0.5321  0.1322
16710TIP3    H271622   1.827   1.870   3.574 -0.1296  0.2089 -0.0156
16711TIP3   OH271623   2.867   3.046  12.386 -0.0466 -0.3125  0.1914
16711TIP3    H171624   2.914   2.963  12.399 -0.4857 -0.3596  1.6244
16711TIP3    H271625   2.934   3.113  12.400  0.7462 -0.3490 -2.6525
16712TIP3   OH271626   3.035   2.928  14.150 -0.7067  0.0323  0.3313
16712TIP3    H171627   3.121   2.927  14.108 -1.4632  0.0439 -1.2911
16712TIP3    H271628   3.046   2.985  14.226  0.7748 -0.1615  0.2872
16713TIP3   OH271629   3.147   3.092  13.414 -0.3496 -0.1888  0.0789
16713TIP3    H171630   3.193   3.013  13.385 -1.1493 -0.4255 -0.5905
16713TIP3    H271631   3.076   3.059  13.470 -1.2642 -0.0401 -0.9540
16714TIP3   OH271632   2.904   1.573   4.683  0.0235 -0.7582  0.0714
16714TIP3    H171633   2.977   1.612   4.635  0.0478 -0.3702  0.4180
16714TIP3    H271634   2.942   1.498   4.728  0.3809 -0.1235  0.8483
16715TIP3   OH271635   2.526   1.170   2.787  0.4228 -0.3950  0.3392
16715TIP3    H171636   2.525   1.254   2.832  0.1057 -0.6349  0.7821
16715TIP3    H271637   2.601   1.175   2.728 -0.3782  0.7229 -0.6331
16716TIP3   OH271638   1.516   0.234   1.781 -0.0563 -0.0999 -0.7200
16716TIP3    H171639   1.442   0.274   1.735 -1.1964 -1.0197  0.2643
16716TIP3    H271640   1.482   0.213   1.868  1.8601  1.0191  0.3884
16717TIP3   OH271641   1.850   2.587  59.964 -0.1925 -0.4058  0.1121
16717TIP3    H171642   1.763   2.568  60.000 -1.3078  2.2450 -0.9533
16717TIP3    H271643   1.834   2.639  59.885  2.3536  0.3865 -0.0042
16718TIP3   OH271644   2.139   1.550  50.817 -0.1550 -0.2126  0.4004
16718TIP3    H171645   2.212   1.604  50.787 -0.9945  0.6617 -0.0854
16718TIP3    H271646   2.174   1.460  50.815  1.2068  0.2725  1.1042
16719TIP3   OH271647   1.423   1.553  54.448 -0.3123  0.2811 -0.7128
16719TIP3    H171648   1.330   1.539  54.430 -0.7861 -1.1017  2.2498
16719TIP3    H271649   1.459   1.584  54.365 -3.5286  1.6190 -1.7611
16720TIP3   OH271650   2.256   3.315  44.547 -0.1821  0.2165 -0.0788
16720TIP3    H171651   2.217   3.286  44.629 -0.9390 -2.1549 -1.2096
16720TIP3    H271652   2.349   3.293  44.556 -0.0454  0.9550  0.5095
16721TIP3   OH271653   0.527   0.945  60.713  0.1824 -0.1859 -0.4883
16721TIP3    H171654   0.544   0.862  60.757  1.1575  0.2852  0.0616
16721TIP3    H271655   0.447   0.978  60.754  1.0660  0.2372  0.9449
16722TIP3   OH271656   3.358   1.826   4.643  0.0106 -0.1116  0.2440
16722TIP3    H171657   3.279   1.876   4.665 -0.1828 -0.4202  0.2650
16722TIP3    H271658   3.334   1.735   4.661  0.2909 -0.2324  0.0128
16723TIP3   OH271659   2.847   0.635  16.193  0.6127  0.7815 -0.7797
16723TIP3    H171660   2.759   0.623  16.159  0.7848 -1.1290 -0.6541
16723TIP3    H271661   2.880   0.712  16.147 -0.8756  1.1361 -1.3074
16724TIP3   OH271662   0.397   2.646  52.614  0.6103 -0.0786  0.0492
16724TIP3    H171663   0.450   2.706  52.667  0.0796  0.2875  0.1748
16724TIP3    H271664   0.421   2.559  52.645 -0.3976  0.1564  1.6012
16725TIP3   OH271665   2.897   2.097  56.592 -0.1551  0.0601 -0.1709
16725TIP3    H171666   2.876   2.004  56.599 -0.9060  0.2996  1.0990
16725TIP3    H271667   2.920   2.110  56.500  0.3079 -1.4463 -0.2949
16726TIP3   OH271668   0.935   2.096  10.405  0.0632 -0.1915  0.3155
16726TIP3    H171669   0.873   2.032  10.372  1.8496 -1.5650 -0.5661
16726TIP3    H271670   1.018   2.048  10.413  1.1685  1.6740  0.9088
16727TIP3   OH271671   3.297   0.215  13.350  0.3396 -0.1093  0.2876
16727TIP3    H171672   3.336   0.129  13.336 -1.1521 -0.8965  0.7262
16727TIP3    H271673   3.293   0.225  13.445 -0.7531 -0.1889  0.2707
16728TIP3   OH271674   2.030   1.566   3.330  0.0703  0.8625 -0.0630
16728TIP3    H171675   1.991   1.595   3.413 -0.7026 -0.7274  0.1602
16728TIP3    H271676   1.961   1.579   3.265 -0.2086 -0.2308  0.0025
16729TIP3   OH271677   2.389   3.033  26.022  0.0879  0.0577  0.1273
16729TIP3    H171678   2.400   3.012  25.929  0.9756  0.4775  0.1225
16729TIP3    H271679   2.327   2.968  26.054  1.1759 -1.2743 -0.3528
16730TIP3   OH271680   3.351   2.990   4.922  0.0671  0.1926 -0.4367
16730TIP3    H171681   3.393   3.011   4.839 -2.3976 -1.4471 -2.2465
16730TIP3    H271682   3.301   3.068   4.944  0.4182  0.4937 -0.7009
16731TIP3   OH271683   2.360   0.082  27.848  0.4172 -0.1030 -0.4924
16731TIP3    H171684   2.282   0.128  27.880  0.3709 -1.3479  1.2899
16731TIP3    H271685   2.355   0.092  27.752 -1.9160 -0.1141 -0.4342
16732TIP3   OH271686   1.909   0.688  17.430 -0.1435 -0.1621  0.1834
16732TIP3    H171687   1.943   0.611  17.383  0.5564  1.2344 -1.7430
16732TIP3    H271688   1.816   0.691  17.407  0.0800  0.2028 -0.7389
16733TIP3   OH271689   2.307   2.412   7.441 -0.0582  0.2941  0.6538
16733TIP3    H171690   2.286   2.488   7.387 -0.7781  0.5952  1.3563
16733TIP3    H271691   2.222   2.380   7.473  0.3429  0.0124  1.4686
16734TIP3   OH271692   0.432   1.560  53.408  0.3080  0.4179 -0.1486
16734TIP3    H171693   0.512   1.588  53.453  0.2113  0.0917  0.2364
16734TIP3    H271694   0.446   1.584  53.317  0.9870  0.0687 -0.1474
16735TIP3   OH271695   1.130   3.012  59.963 -0.0020 -0.3662 -0.4239
16735TIP3    H171696   1.187   3.051  60.029 -0.8156  2.0345 -1.0367
16735TIP3    H271697   1.168   3.040  59.879 -1.2851  0.0758 -0.8651
16736TIP3   OH271698   0.656   1.295   6.694 -0.2268 -0.2135  0.2926
16736TIP3    H171699   0.652   1.387   6.722  0.6681  0.5831 -1.9329
16736TIP3    H271700   0.565   1.271   6.677 -0.3891  0.6132 -0.0694
16737TIP3   OH271701   0.296   2.337   8.411 -0.0159 -0.8628 -0.0626
16737TIP3    H171702   0.275   2.308   8.500  0.7070  0.6925  0.6502
16737TIP3    H271703   0.325   2.428   8.422  0.9773 -0.9411 -1.7703
16738TIP3   OH271704   2.351   0.745   7.561 -0.3803 -0.2055  0.2541
16738TIP3    H171705   2.349   0.736   7.656  0.2583  0.3826  0.3273
16738TIP3    H271706   2.444   0.742   7.538 -0.5818 -1.7815 -0.5049
16739TIP3   OH271707   2.895   1.971  59.577  0.4375 -0.2596 -0.2039
16739TIP3    H171708   2.963   1.996  59.640 -1.4462 -1.6716  2.5352
16739TIP3    H271709   2.914   1.880  59.556 -1.9784 -1.5655  2.6950
16740TIP3   OH271710   0.813   0.684   1.600  0.0907 -0.0962 -0.1679
16740TIP3    H171711   0.737   0.642   1.561 -0.6009  0.7014  0.2964
16740TIP3    H271712   0.887   0.628   1.575 -0.9430 -2.5632  1.7975
16741TIP3   OH271713   1.983   2.307  67.193 -0.2214  0.0838 -0.4734
16741TIP3    H171714   1.949   2.229  67.148 -0.6151 -0.6388  1.0057
16741TIP3    H271715   1.921   2.322  67.265  0.7380  0.7931  0.2292
16742TIP3   OH271716   3.219   0.558  53.305 -0.3996 -0.3133  0.0348
16742TIP3    H171717   3.180   0.562  53.218  0.2530 -1.6736 -0.3411
16742TIP3    H271718   3.146   0.574  53.365 -1.1018 -0.6238 -0.7176
16743TIP3   OH271719   1.407   1.439  21.313  0.5029 -0.1070 -0.1961
16743TIP3    H171720   1.380   1.530  21.301 -1.1893 -0.5499 -0.0044
16743TIP3    H271721   1.371   1.393  21.238 -1.2423 -1.1006  1.1745
16744TIP3   OH271722   1.504   0.858  47.793 -0.7609 -0.2328 -0.4662
16744TIP3    H171723   1.515   0.939  47.742 -2.2627  1.6123  1.9132
16744TIP3    H271724   1.554   0.874  47.873 -1.7775 -1.3210  0.4152
16745TIP3   OH271725   2.876   2.633   7.458  0.0184 -0.1742  0.4516
16745TIP3    H171726   2.851   2.568   7.393  0.1418  0.2274 -0.0095
16745TIP3    H271727   2.800   2.641   7.516 -0.3297 -0.0802 -0.0154
16746TIP3   OH271728   2.512   3.364  53.037 -0.7272 -0.1982  0.5443
16746TIP3    H171729   2.452   3.437  53.020 -0.3017  0.1277  0.4303
16746TIP3    H271730   2.576   3.369  52.966 -0.3850 -0.3569  0.8420
16747TIP3   OH271731   3.393   3.349  43.182 -0.0056 -0.0781  0.2528
16747TIP3    H171732   3.366   3.357  43.273 -0.6216  2.1140 -0.0704
16747TIP3    H271733   3.489   3.342  43.185 -0.1361 -2.0609  1.1198
16748TIP3   OH271734   1.029   2.797  19.551  0.0437  0.1228  0.2158
16748TIP3    H171735   1.121   2.792  19.578 -0.1004 -1.3608  0.5564
16748TIP3    H271736   1.029   2.776  19.458 -0.1110 -2.1363  0.6674
16749TIP3   OH271737   3.326   2.902   5.972 -0.1054 -0.7620  0.4255
16749TIP3    H171738   3.257   2.851   6.014 -1.0593 -1.0545 -1.4115
16749TIP3    H271739   3.297   2.993   5.979  0.3204 -0.6898  1.3984
16750TIP3   OH271740   0.532   0.030   9.415  0.4847  0.3942  0.1042
16750TIP3    H171741   0.464   0.096   9.427 -0.1938 -0.2839  0.0904
16750TIP3    H271742   0.484  -0.050   9.391  1.4060  0.4417 -2.1617
16751TIP3   OH271743   0.881   0.597  50.712  0.3635 -0.2802 -0.3450
16751TIP3    H171744   0.832   0.658  50.657  1.3380  0.4580 -0.4206
16751TIP3    H271745   0.813   0.545  50.757 -0.4997  1.0925 -0.0007
16752TIP3   OH271746   3.284   3.321  55.174 -0.0736  0.1582 -0.5115
16752TIP3    H171747   3.312   3.361  55.092  0.9916 -1.2397 -0.8577
16752TIP3    H271748   3.216   3.258  55.148  0.5811 -0.6081 -0.3949
16753TIP3   OH271749   2.913   3.298   9.552 -0.1510 -0.1907 -0.1360
16753TIP3    H171750   2.844   3.360   9.575 -0.3737 -0.5439  0.1570
16753TIP3    H271751   2.995   3.345   9.571 -0.2975  0.3813 -0.8746
16754TIP3   OH271752   1.436   2.144  19.014  0.5069 -0.1278  0.0506
16754TIP3    H171753   1.523   2.145  19.055  1.0468  1.1502 -1.0483
16754TIP3    H271754   1.452   2.115  18.924  0.0869  1.7681 -0.6784
16755TIP3   OH271755   1.929   0.199  61.195  0.0436  0.3286 -0.1684
16755TIP3    H171756   1.929   0.293  61.180  0.9617  0.0990 -1.9199
16755TIP3    H271757   2.019   0.171  61.175 -0.5453 -1.0851 -1.0727
16756TIP3   OH271758   3.089   0.725  17.659  0.2104 -0.4714  0.1801
16756TIP3    H171759   3.017   0.785  17.643  0.5049  0.4395  2.0185
16756TIP3    H271760   3.067   0.647  17.609 -1.8145 -0.0466  0.3418
16757TIP3   OH271761   1.928   3.010  10.915  0.5829  0.3506 -0.0902
16757TIP3    H171762   1.871   3.085  10.931  0.3546 -0.1131  1.4083
16757TIP3    H271763   1.891   2.968  10.837  0.8963  1.9285 -1.1361
16758TIP3   OH271764   3.237   2.876  54.798 -1.1657  0.3133 -0.1196
16758TIP3    H171765   3.270   2.882  54.708 -0.0706  0.3719  0.2657
16758TIP3    H271766   3.299   2.818  54.842 -2.8012 -1.3285  0.1185
16759TIP3   OH271767   0.167   2.450  62.774  0.1757  0.6815 -0.0279
16759TIP3    H171768   0.080   2.468  62.811  0.6623  1.9395  0.5655
16759TIP3    H271769   0.219   2.527  62.797  1.1581  0.4396 -1.3184
16760TIP3   OH271770   3.245   2.918  65.420  0.0965 -0.1751 -0.1631
16760TIP3    H171771   3.267   2.826  65.405 -1.6405 -0.5531 -0.5593
16760TIP3    H271772   3.212   2.922  65.509  1.4580  0.3495  0.3506
16761TIP3   OH271773   2.232   2.433   7.747  0.2210  0.6386  0.0362
16761TIP3    H171774   2.263   2.497   7.683 -1.3347  1.0496 -0.3530
16761TIP3    H271775   2.153   2.473   7.785 -1.0643 -1.1980 -0.5392
16762TIP3   OH271776   1.038   0.244  66.317  0.0514 -0.0193  0.1619
16762TIP3    H171777   0.950   0.210  66.333 -0.1790  0.9074  0.9909
16762TIP3    H271778   1.036   0.274  66.226 -0.2550 -0.6917 -0.0526
16763TIP3   OH271779   2.193   0.112  66.948 -0.0705 -0.2777  0.0939
16763TIP3    H171780   2.199   0.071  67.035  0.2975  0.7135  0.5507
16763TIP3    H271781   2.282   0.138  66.928 -0.5342  1.9896  0.6792
16764TIP3   OH271782   0.168   1.244  50.863 -0.0875  0.1040 -0.3703
16764TIP3    H171783   0.135   1.157  50.883  1.7857 -0.3795  0.7646
16764TIP3    H271784   0.263   1.234  50.857  0.0729  1.8329 -1.4801
16765TIP3   OH271785   2.509   1.257  65.461  0.1600  0.1738 -0.3550
16765TIP3    H171786   2.574   1.186  65.458  1.0572  0.9991 -2.2110
16765TIP3    H271787   2.425   1.212  65.450  0.4506 -0.8190  1.1419
16766TIP3   OH271788   0.424   3.222  38.721 -0.2293  0.1457 -0.4240
16766TIP3    H171789   0.515   3.201  38.703  0.2146  1.0830  0.5505
16766TIP3    H271790   0.409   3.188  38.810 -0.6702  0.4396 -0.3820
16767TIP3   OH271791   0.510   2.004  53.115 -0.1391  0.3437  0.2045
16767TIP3    H171792   0.521   2.063  53.189 -1.9594  0.1620  0.6430
16767TIP3    H271793   0.426   1.960  53.129 -0.2018 -0.2313 -1.5857
16768TIP3   OH271794   2.925   1.189  42.157  0.4699  0.2630  0.1767
16768TIP3    H171795   2.844   1.163  42.113  0.1796  0.6993  0.4495
16768TIP3    H271796   2.978   1.229  42.088  0.1870  0.5614  0.1287
16769TIP3   OH271797   1.016   1.374  65.154  0.2436  0.1157 -0.4491
16769TIP3    H171798   1.047   1.368  65.064  2.1572  1.1138  0.0685
16769TIP3    H271799   0.996   1.467  65.166 -1.0775 -0.1911 -0.1476
16770TIP3   OH271800   0.801   3.023  55.383 -0.4904 -0.0005 -0.1574
16770TIP3    H171801   0.756   2.939  55.395  0.2480 -0.2649  0.9668
16770TIP3    H271802   0.801   3.062  55.471  0.9721  0.2412 -0.2465
16771TIP3   OH271803   1.803   2.649  53.524 -0.1414 -0.7565  0.2715
16771TIP3    H171804   1.727   2.620  53.474  0.2025  0.1877 -0.8404
16771TIP3    H271805   1.853   2.569  53.540 -1.4263 -1.4151  1.1729
16772TIP3   OH271806   0.526   0.234  17.597 -0.0532 -0.1562  0.3542
16772TIP3    H171807   0.501   0.323  17.575 -1.6645 -0.5868  0.3587
16772TIP3    H271808   0.619   0.240  17.618 -0.0654  1.4558  0.0563
16773TIP3   OH271809   1.515   2.263  10.538  0.2836  0.3170  0.0550
16773TIP3    H171810   1.471   2.340  10.501 -1.5900 -1.4661 -1.6986
16773TIP3    H271811   1.494   2.266  10.631 -1.5265  0.9000 -0.3179
16774TIP3   OH271812   2.288   0.894  54.494 -0.2626 -0.0838  0.0271
16774TIP3    H171813   2.219   0.876  54.559  0.5658 -0.0281  0.9396
16774TIP3    H271814   2.286   0.989  54.483  0.0495 -0.0235  0.4825
16775TIP3   OH271815   0.334   3.392  42.068  0.2768 -0.3592 -0.1881
16775TIP3    H171816   0.425   3.396  42.040 -0.1621 -1.7363 -1.9352
16775TIP3    H271817   0.286   3.444  42.004 -0.0577  1.6105  1.5428
16776TIP3   OH271818   0.962   2.112   4.830 -0.3148  0.6006  0.3922
16776TIP3    H171819   0.982   2.049   4.899  0.6604  0.0271 -0.3900
16776TIP3    H271820   1.023   2.091   4.760 -2.7248 -0.3120 -1.5837
16777TIP3   OH271821   3.358   3.119  60.534 -0.0690 -0.0703 -0.3831
16777TIP3    H171822   3.351   3.172  60.454 -0.7196  0.0563 -0.2402
16777TIP3    H271823   3.447   3.083  60.529  0.4502  1.1368 -0.4128
16778TIP3   OH271824   0.123   1.986  65.547  0.2525  0.2061  0.4638
16778TIP3    H171825   0.059   2.016  65.483 -0.7965 -0.2013  1.3073
16778TIP3    H271826   0.120   1.891  65.541 -0.6457  0.1215  1.8531
16779TIP3   OH271827   1.162   0.120  59.154 -0.4301 -0.1366  0.2202
16779TIP3    H171828   1.177   0.046  59.094  0.3909  0.6063 -0.5080
16779TIP3    H271829   1.105   0.179  59.105 -2.8709 -1.2101  1.5735
16780TIP3   OH271830   1.321   3.004  16.157 -0.9011 -0.2865 -0.3439
16780TIP3    H171831   1.267   3.077  16.190  0.0830  1.7908 -2.9871
16780TIP3    H271832   1.376   2.980  16.232 -1.5315  1.4189  0.7442
16781TIP3   OH271833   2.677   1.441  11.051 -0.1065 -0.1879 -0.4738
16781TIP3    H171834   2.656   1.351  11.025 -0.5384  0.3906 -2.3430
16781TIP3    H271835   2.723   1.432  11.134 -1.0408 -2.0555 -0.1027
16782TIP3   OH271836   1.688   2.555  47.842 -0.7266  0.2090  0.6569
16782TIP3    H171837   1.682   2.624  47.909 -1.9858  0.8952 -0.1232
16782TIP3    H271838   1.602   2.554  47.801 -0.5048 -1.3707  0.1653
16783TIP3   OH271839   2.671   0.192  64.716  0.4424  0.0441  0.1982
16783TIP3    H171840   2.708   0.117  64.764  0.0021 -0.5935 -0.4402
16783TIP3    H271841   2.711   0.187  64.629 -0.2522  0.0306 -0.1275
16784TIP3   OH271842   3.353   3.145  11.211 -0.1054 -0.0886  0.8219
16784TIP3    H171843   3.309   3.061  11.203 -0.9376  0.2170  1.9510
16784TIP3    H271844   3.297   3.197  11.269  0.8279  0.9460  0.8459
16785TIP3   OH271845   1.190   1.826  51.745  0.3336  0.2966 -0.1734
16785TIP3    H171846   1.132   1.839  51.820  1.4467  1.6617  0.4846
16785TIP3    H271847   1.142   1.862  51.670 -0.2771  0.0449  0.0920
16786TIP3   OH271848   2.007   1.223  48.763 -0.2736  0.1629 -0.3985
16786TIP3    H171849   1.967   1.278  48.696 -0.0791 -1.7086 -2.1664
16786TIP3    H271850   1.992   1.270  48.845 -1.3935  2.0758 -1.6162
16787TIP3   OH271851   1.933   1.403   8.091 -0.3124 -0.0720  0.0155
16787TIP3    H171852   2.006   1.410   8.152 -0.2478 -0.7726  0.0286
16787TIP3    H271853   1.862   1.454   8.132 -0.5509 -1.2427  1.1159
16788TIP3   OH271854   3.113   3.310  58.899 -0.5082 -0.1323  0.1149
16788TIP3    H171855   3.086   3.219  58.886 -2.2969  0.2869  0.6822
16788TIP3    H271856   3.072   3.337  58.981  0.2727  1.0897  0.1414
16789TIP3   OH271857   1.481   3.270  18.618 -0.7969 -0.2435  0.0874
16789TIP3    H171858   1.406   3.218  18.587 -0.6921 -0.6549  0.5152
16789TIP3    H271859   1.557   3.232  18.574 -0.4396 -1.8003  1.8974
16790TIP3   OH271860   3.228   0.504  52.071 -0.1027 -0.3244 -0.2043
16790TIP3    H171861   3.305   0.451  52.092  0.1747 -1.2620 -3.0839
16790TIP3    H271862   3.265   0.584  52.033 -0.4519 -0.9345 -1.9455
16791TIP3   OH271863   2.086   1.168  57.590  0.3092  0.1229  0.3719
16791TIP3    H171864   2.093   1.185  57.496  0.1021 -0.8720  0.1615
16791TIP3    H271865   2.122   1.080  57.601 -2.4135 -1.0439  0.7516
16792TIP3   OH271866   0.599   0.625  43.983  0.3143  0.3489  0.1725
16792TIP3    H171867   0.598   0.648  44.076 -0.7996 -0.0492  0.2666
16792TIP3    H271868   0.605   0.530  43.982 -0.7863  0.2674 -0.1335
16793TIP3   OH271869   0.567   2.900  50.272 -0.2747 -0.2807 -0.0595
16793TIP3    H171870   0.585   2.808  50.254 -2.0003 -0.6337 -0.2248
16793TIP3    H271871   0.516   2.930  50.196  1.1664  1.1338 -0.5256
16794TIP3   OH271872   3.052   0.044  16.283 -0.3204  0.0370  0.0864
16794TIP3    H171873   2.960   0.069  16.291 -0.8740 -2.2288  1.5992
16794TIP3    H271874   3.096   0.088  16.356 -0.2274  0.9272 -0.4946
16795TIP3   OH271875   0.212   2.602  65.971 -0.1492 -0.3296  0.1157
16795TIP3    H171876   0.141   2.591  65.908 -0.0557 -1.2571  0.1588
16795TIP3    H271877   0.281   2.543  65.941  0.3229  0.0334  0.4727
16796TIP3   OH271878   1.845   3.116  46.446 -0.1507 -0.1178 -0.7219
16796TIP3    H171879   1.833   3.200  46.490 -0.3682 -0.4032 -0.2216
16796TIP3    H271880   1.864   3.054  46.517  1.0405 -0.3018 -1.1933
16797TIP3   OH271881   0.022   0.105  52.023 -0.2947 -0.1591 -0.2588
16797TIP3    H171882  -0.025   0.167  51.968 -2.4533  0.1292  1.7830
16797TIP3    H271883   0.059   0.159  52.093 -0.6553 -0.9363  0.5429
16798TIP3   OH271884   1.023   0.166  36.469 -0.5246  0.0872 -0.6069
16798TIP3    H171885   0.968   0.219  36.528 -1.6789 -0.3393 -1.2768
16798TIP3    H271886   1.002   0.198  36.382  2.3487  1.8236 -0.8118
16799TIP3   OH271887   2.886   2.715  10.317 -0.7772 -0.6870 -0.9187
16799TIP3    H171888   2.860   2.706  10.225 -0.2154  2.0175 -1.4244
16799TIP3    H271889   2.964   2.769  10.315 -0.3934 -1.0707  1.1502
16800TIP3   OH271890   0.913   1.683  13.421 -0.3149 -0.4045  0.3252
16800TIP3    H171891   0.908   1.635  13.504 -1.3102  0.6625  0.9083
16800TIP3    H271892   0.822   1.698  13.396 -0.0365 -0.7679 -1.0223
16801TIP3   OH271893   2.576   1.571  28.196  0.3301 -0.1546 -0.1450
16801TIP3    H171894   2.585   1.570  28.291 -0.7725 -0.3234 -0.0380
16801TIP3    H271895   2.562   1.663  28.173  3.1771  0.3117 -0.4355
16802TIP3   OH271896   2.056   2.105  20.948 -0.4580  0.0635 -0.0463
16802TIP3    H171897   1.997   2.154  21.005 -2.0531 -0.4194 -1.2035
16802TIP3    H271898   2.098   2.041  21.007  0.1903  1.4899  1.0957
16803TIP3   OH271899   2.569   2.619  20.244  0.1149  0.4388  0.9983
16803TIP3    H171900   2.546   2.682  20.312 -0.7187 -0.2279  1.3431
16803TIP3    H271901   2.620   2.670  20.181 -1.2223  1.6825  0.8607
16804TIP3   OH271902   2.503   1.382  21.797  0.3576 -0.6128  0.1089
16804TIP3    H171903   2.554   1.366  21.718  0.9514  1.0407  0.1255
16804TIP3    H271904   2.532   1.468  21.828 -2.7516  0.6439 -0.1232
16805TIP3   OH271905   0.752   1.942  19.460 -0.1127 -0.2557 -0.2737
16805TIP3    H171906   0.787   2.018  19.414  1.4764  0.2070  1.5849
16805TIP3    H271907   0.665   1.928  19.420 -0.0900  1.9663 -1.2559
16806TIP3   OH271908   1.004   0.602  53.384  0.4023  0.0486 -0.5240
16806TIP3    H171909   1.085   0.653  53.377 -0.5830  1.5987 -0.8126
16806TIP3    H271910   1.033   0.519  53.423  2.4405 -0.1942 -2.3347
16807TIP3   OH271911   0.897   3.120  22.704  0.5825 -0.3292  0.5342
16807TIP3    H171912   0.988   3.091  22.693  1.0357  1.3954 -0.9207
16807TIP3    H271913   0.902   3.190  22.769  0.3498 -0.0728  0.2806
16808TIP3   OH271914   0.466   2.904  55.851  0.1151  0.9808 -0.2062
16808TIP3    H171915   0.511   2.921  55.769 -0.6163 -2.2724 -1.4442
16808TIP3    H271916   0.393   2.966  55.852  1.1509  2.2660 -1.0782
16809TIP3   OH271917   1.686   0.605   2.043 -0.5503  0.1954  0.0347
16809TIP3    H171918   1.703   0.601   1.949  0.6523 -1.1514  0.2777
16809TIP3    H271919   1.594   0.579   2.052 -0.8148  0.7939 -0.7871
16810TIP3   OH271920   2.170   1.167   0.144  0.6086 -0.0029  0.0677
16810TIP3    H171921   2.132   1.109   0.078  1.0084 -0.3455  0.1368
16810TIP3    H271922   2.112   1.243   0.145  0.1349 -0.3566 -0.0954
16811TIP3   OH271923   2.650   0.615  53.288 -0.0201  0.3439 -0.4823
16811TIP3    H171924   2.708   0.602  53.363  0.6700  2.1705 -0.6458
16811TIP3    H271925   2.619   0.527  53.267 -0.1568 -0.2443  1.8487
16812TIP3   OH271926   1.778   1.725  45.565 -0.6016  0.3275 -0.5851
16812TIP3    H171927   1.714   1.746  45.633  1.9695 -0.7481  2.4265
16812TIP3    H271928   1.820   1.808  45.545  0.2008  0.3399  0.9897
16813TIP3   OH271929   2.278   0.536  12.396 -0.0560  0.0227 -0.0065
16813TIP3    H171930   2.260   0.619  12.352 -0.5768 -0.8794 -1.5906
16813TIP3    H271931   2.343   0.492  12.341  0.6591 -0.3992  1.1194
16814TIP3   OH271932   2.614   3.231  64.092 -0.2258  0.1961 -0.6102
16814TIP3    H171933   2.518   3.228  64.082 -0.3646  2.7827 -0.6315
16814TIP3    H271934   2.628   3.290  64.166  1.3727 -0.7120 -0.1489
16815TIP3   OH271935   1.263   2.894  58.410 -0.5093  0.1311  0.3438
16815TIP3    H171936   1.349   2.867  58.440 -0.8189  0.5288  1.6470
16815TIP3    H271937   1.228   2.946  58.482 -1.7867  0.0777 -0.2151
16816TIP3   OH271938   0.294   0.186  11.577 -0.9927  0.1359 -0.1397
16816TIP3    H171939   0.286   0.277  11.548  0.9119 -0.6554 -3.6213
16816TIP3    H271940   0.388   0.170  11.579 -1.2862 -2.3317 -1.8666
16817TIP3   OH271941   0.559   1.046  54.069 -0.2847  0.1431  0.0152
16817TIP3    H171942   0.632   1.049  54.006  0.1035  1.5674  0.5057
16817TIP3    H271943   0.535   1.137  54.083 -2.0256 -0.2822  0.0625
16818TIP3   OH271944   1.229   0.922  65.514 -0.0889  0.4139  0.1859
16818TIP3    H171945   1.301   0.861  65.529 -0.0814  0.2036 -0.6430
16818TIP3    H271946   1.270   1.008  65.513 -0.3661  0.6815  3.3427
16819TIP3   OH271947   0.456   1.844  16.163 -0.3574  0.3725  0.4904
16819TIP3    H171948   0.415   1.922  16.127 -0.2731  0.3833  0.4173
16819TIP3    H271949   0.470   1.864  16.255  1.6396  1.2919  0.0543
16820TIP3   OH271950   1.275   0.250  15.255  0.4044 -0.1548 -0.3265
16820TIP3    H171951   1.296   0.221  15.343 -1.6884  0.0648  0.2947
16820TIP3    H271952   1.325   0.330  15.243  0.5874 -0.1095  0.7114
16821TIP3   OH271953   1.098   3.144  34.537 -0.0629  0.1648 -0.4095
16821TIP3    H171954   1.170   3.140  34.601 -0.6111  0.8203  0.2689
16821TIP3    H271955   1.139   3.119  34.454  1.1306  1.2432 -0.1833
16822TIP3   OH271956   3.104   1.029  14.000  0.0871  0.6195  0.3603
16822TIP3    H171957   3.064   1.085  14.067  0.1548  0.1325  0.8155
16822TIP3    H271958   3.042   0.957  13.990  0.9223 -0.2371  1.2002
16823TIP3   OH271959   2.782   2.257   6.420  0.0115  0.4162 -0.1589
16823TIP3    H171960   2.741   2.213   6.495 -0.9584  1.0735 -0.2826
16823TIP3    H271961   2.863   2.208   6.405  0.0653  0.0684  1.1089
16824TIP3   OH271962   0.146   1.895   5.187  0.0040 -0.0499 -0.1541
16824TIP3    H171963   0.076   1.943   5.143  1.0867  1.0306 -0.7442
16824TIP3    H271964   0.181   1.956   5.251  1.0530 -0.2250 -0.5465
16825TIP3   OH271965   0.099   2.184  66.782 -0.2109  0.0204 -0.1821
16825TIP3    H171966   0.158   2.121  66.740  1.2313 -0.1612  1.9515
16825TIP3    H271967   0.157   2.242  66.830 -1.6303  1.9954 -0.7564
16826TIP3   OH271968   0.553   0.820   4.769 -0.5442 -0.4414 -0.3064
16826TIP3    H171969   0.496   0.894   4.746  0.1593 -0.4697 -2.3123
16826TIP3    H271970   0.641   0.851   4.751 -0.1351 -1.3172  0.1342
16827TIP3   OH271971   2.730   1.837  51.715  0.1677  0.5474  0.7447
16827TIP3    H171972   2.741   1.766  51.652 -0.7879 -0.3998  1.6050
16827TIP3    H271973   2.712   1.793  51.798 -0.0080  1.7884  1.3830
16828TIP3   OH271974   0.420   2.438   1.682 -0.7653 -0.3853  0.0635
16828TIP3    H171975   0.344   2.494   1.695 -1.8757 -1.6757 -0.6300
16828TIP3    H271976   0.416   2.375   1.754  0.2582  0.1551  0.6216
16829TIP3   OH271977   2.914   2.244  13.055 -0.0821  0.0983 -0.7048
16829TIP3    H171978   2.941   2.300  12.982  0.5873 -0.3555 -0.8134
16829TIP3    H271979   2.996   2.206  13.087 -0.5587 -1.0959 -0.8576
16830TIP3   OH271980   0.096   1.027   3.687  0.2354  0.2499 -0.2131
16830TIP3    H171981   0.082   0.947   3.635  0.7525  0.4409 -0.6538
16830TIP3    H271982   0.138   0.996   3.767 -1.7240 -0.2171  0.7146
16831TIP3   OH271983   0.837   1.064  13.167 -0.0873 -0.2556 -0.1363
16831TIP3    H171984   0.869   0.976  13.150  0.4445  0.1463 -1.3010
16831TIP3    H271985   0.915   1.115  13.188 -0.3579  0.0130  0.2537
16832TIP3   OH271986   1.729   2.687  44.948  0.3860 -0.9988  0.5120
16832TIP3    H171987   1.770   2.709  44.864  0.0507  2.2917  1.0605
16832TIP3    H271988   1.637   2.670  44.926 -0.4012  2.6568  0.3346
16833TIP3   OH271989   2.195   1.906   5.798 -0.1111 -0.6812 -0.0242
16833TIP3    H171990   2.111   1.934   5.835 -0.5949  0.2140 -1.7182
16833TIP3    H271991   2.174   1.830   5.744  0.3082 -0.9358  0.1620
16834TIP3   OH271992   2.079   2.662  54.494  0.1217 -0.2722  0.1365
16834TIP3    H171993   2.153   2.717  54.521 -0.8043  1.7487 -1.2004
16834TIP3    H271994   2.055   2.694  54.407 -1.2411 -2.0432 -0.2036
16835TIP3   OH271995   2.170   0.159  26.779  0.0259  0.1870  0.5567
16835TIP3    H171996   2.256   0.202  26.778  0.5660 -0.8149  1.5854
16835TIP3    H271997   2.161   0.121  26.692  1.4020 -1.1345  0.9475
16836TIP3   OH271998   0.345   0.394   3.248  0.3428  0.5224 -0.0226
16836TIP3    H171999   0.357   0.421   3.157  0.1232 -0.3471 -0.3183
16836TIP3    H272000   0.385   0.307   3.254  0.9724  0.8549  0.8898
16837TIP3   OH272001   2.235   2.467  13.222  0.0643  0.2071  0.5951
16837TIP3    H172002   2.267   2.456  13.132 -2.0998 -0.1787 -0.1991
16837TIP3    H272003   2.168   2.535  13.215 -0.1380  0.1593  1.9217
16838TIP3   OH272004   2.488   1.311  46.178 -0.5527  0.4051  0.2604
16838TIP3    H172005   2.430   1.278  46.110  0.8556  0.0889 -0.8247
16838TIP3    H272006   2.536   1.383  46.137 -0.1545  0.6537  1.1227
16839TIP3   OH272007   0.763   0.811  11.130 -0.3600 -0.4433  0.4285
16839TIP3    H172008   0.799   0.764  11.055  0.6526  1.9886 -0.7228
16839TIP3    H272009   0.669   0.792  11.127 -0.5883  0.6508 -2.3573
16840TIP3   OH272010   1.827   1.135  10.524 -0.3533 -0.1591 -0.5772
16840TIP3    H172011   1.814   1.197  10.595  1.6715  0.2655 -0.5182
16840TIP3    H272012   1.915   1.154  10.491 -0.2664 -2.0027 -1.5553
16841TIP3   OH272013   1.854   0.241  53.399 -0.1673  0.2373  0.4723
16841TIP3    H172014   1.889   0.240  53.488  1.7834 -1.7563 -0.2262
16841TIP3    H272015   1.915   0.297  53.351  0.7353 -1.2673 -0.2272
16842TIP3   OH272016   2.599   1.220  13.415 -0.0155 -0.0593  0.1192
16842TIP3    H172017   2.522   1.276  13.425  0.1592  0.1904  0.0829
16842TIP3    H272018   2.652   1.265  13.349  1.4412  1.2212  2.0314
16843TIP3   OH272019   0.201   1.597   9.691 -1.0806  0.2301 -0.1071
16843TIP3    H172020   0.280   1.651   9.702 -1.5022  0.5160  1.9539
16843TIP3    H272021   0.233   1.515   9.654 -0.3636  1.6739 -2.9281
16844TIP3   OH272022   0.558   0.440  45.472  0.5849  0.4970  0.4061
16844TIP3    H172023   0.520   0.467  45.389  0.2017 -1.0996  0.0332
16844TIP3    H272024   0.588   0.522  45.512 -0.4989  1.4436 -0.6493
16845TIP3   OH272025   0.728   0.068  10.759  0.3884 -0.3882 -0.5782
16845TIP3    H172026   0.758   0.014  10.686 -0.6965 -0.6409 -0.8601
16845TIP3    H272027   0.671   0.010  10.809  0.4706  0.0310  0.0002
16846TIP3   OH272028   1.425   2.499  14.778  0.4322  0.0914 -0.1995
16846TIP3    H172029   1.395   2.501  14.869  0.4264 -0.8693 -0.1708
16846TIP3    H272030   1.520   2.492  14.785  0.4529  0.2969 -0.2717
16847TIP3   OH272031   2.944   3.359  54.969  0.3292 -0.5195  0.0772
16847TIP3    H172032   2.873   3.386  55.028 -0.7963 -1.0517 -0.9857
16847TIP3    H272033   2.976   3.276  55.004  0.5099 -0.2176  0.6294
16848TIP3   OH272034   1.899   0.349  26.782 -0.4210 -0.1288  0.2891
16848TIP3    H172035   1.836   0.421  26.782  0.8998  1.1894 -2.8120
16848TIP3    H272036   1.877   0.296  26.706  1.3324 -0.4101 -0.0800
16849TIP3   OH272037   0.683   0.452  48.533 -0.0859  0.1412 -0.3913
16849TIP3    H172038   0.622   0.466  48.606 -0.4082 -1.6539 -0.2614
16849TIP3    H272039   0.767   0.434  48.575 -0.1458 -0.3363 -0.4683
16850TIP3   OH272040   1.361   3.191   5.480 -0.2158 -0.9384  0.0088
16850TIP3    H172041   1.380   3.147   5.562  0.1201 -0.6969  0.0671
16850TIP3    H272042   1.299   3.260   5.503  2.3283  1.3041  0.7295
16851TIP3   OH272043   1.041   1.228  61.941 -0.3465  0.4544 -0.6155
16851TIP3    H172044   0.948   1.249  61.952 -0.5334 -0.8233  0.4586
16851TIP3    H272045   1.081   1.250  62.026  0.3192  0.8551 -1.0218
16852TIP3   OH272046   0.151   0.234   5.839  0.3205 -0.7660 -0.3245
16852TIP3    H172047   0.056   0.235   5.832  0.0313 -1.5292  2.2801
16852TIP3    H272048   0.175   0.327   5.845 -0.3211 -0.5822 -0.5496
16853TIP3   OH272049   2.559   2.077  10.522  0.2530  0.3394  0.4501
16853TIP3    H172050   2.513   2.001  10.559  2.0897 -0.4421  1.2971
16853TIP3    H272051   2.502   2.152  10.542 -2.4746 -0.9006 -1.9405
16854TIP3   OH272052   2.962   3.379  16.044 -0.5943  0.6404 -0.5439
16854TIP3    H172053   3.013   3.411  16.118  1.3278 -0.8762 -1.1315
16854TIP3    H272054   2.876   3.356  16.082 -0.0078  0.8680  0.9936
16855TIP3   OH272055   2.533   2.991  65.499  0.3601 -0.9058 -0.2854
16855TIP3    H172056   2.569   3.018  65.583  1.3031 -0.5230 -0.7970
16855TIP3    H272057   2.535   2.896  65.500 -0.2931 -0.9176  0.3977
16856TIP3   OH272058   0.062   0.322  63.559 -0.0732  0.0573 -0.0889
16856TIP3    H172059  -0.029   0.308  63.533 -0.0453 -0.6316  0.1544
16856TIP3    H272060   0.067   0.414  63.582 -1.3545 -0.4400  2.4567
16857TIP3   OH272061   1.416   2.686  55.626 -0.0257 -0.0140 -0.4662
16857TIP3    H172062   1.366   2.629  55.685 -0.3853 -0.1515 -0.8868
16857TIP3    H272063   1.361   2.764  55.617  1.4505  1.3867  1.8081
16858TIP3   OH272064   3.438   2.727  63.237  0.0188 -0.3457 -0.1294
16858TIP3    H172065   3.394   2.812  63.233  0.7600  0.1899  1.8501
16858TIP3    H272066   3.378   2.672  63.286 -0.9198 -1.3314 -2.2676
16859TIP3   OH272067   3.120   1.609  66.358  0.4021 -0.1032  0.1326
16859TIP3    H172068   3.137   1.702  66.374 -0.5612 -0.0364  0.8930
16859TIP3    H272069   3.098   1.574  66.445 -1.6913 -0.4843 -0.5014
16860TIP3   OH272070   1.409   1.466   6.981 -0.0788 -0.3527 -0.0032
16860TIP3    H172071   1.451   1.393   7.026  1.4834 -0.6770 -1.8327
16860TIP3    H272072   1.323   1.432   6.954 -0.0945 -0.8978  0.7207
16861TIP3   OH272073   1.366   0.933  52.341 -0.4164 -0.1372  0.2727
16861TIP3    H172074   1.311   0.903  52.413 -1.6466  0.6121 -0.3154
16861TIP3    H272075   1.379   1.026  52.358  1.8001 -0.5477  1.0904
16862TIP3   OH272076   3.082   1.074  47.953  0.5485  0.5895 -0.2130
16862TIP3    H172077   3.127   1.142  48.004  1.9419  0.0523 -0.6961
16862TIP3    H272078   3.080   1.109  47.864 -1.4782  1.3209  0.0639
16863TIP3   OH272079   2.037   1.386  58.370  0.1628  0.0234 -0.3636
16863TIP3    H172080   1.987   1.406  58.450  2.6644  0.5700  1.1589
16863TIP3    H272081   2.062   1.472  58.335  0.5337 -0.2567 -0.7889
16864TIP3   OH272082   2.573   0.176  17.437 -0.2388  0.1509  0.9748
16864TIP3    H172083   2.597   0.262  17.403  0.6532 -0.3473  0.3080
16864TIP3    H272084   2.657   0.131  17.451 -0.6925 -0.6027  1.3385
16865TIP3   OH272085   0.368   1.173   1.055  0.2143 -0.3865  0.0656
16865TIP3    H172086   0.334   1.166   1.144 -1.3265  2.8433 -0.1460
16865TIP3    H272087   0.301   1.133   1.000 -1.7420  2.6733 -0.0118
16866TIP3   OH272088   1.739   2.062  63.639 -0.1118  0.1280 -0.4275
16866TIP3    H172089   1.822   2.019  63.618  0.7508  0.8413  1.3247
16866TIP3    H272090   1.741   2.144  63.589  0.7116  0.6009  0.3529
16867TIP3   OH272091   0.447   1.251  22.675  0.0988  0.4256 -0.3859
16867TIP3    H172092   0.493   1.235  22.757  0.9203  1.4134 -0.6338
16867TIP3    H272093   0.415   1.165  22.648  0.6196 -0.0585  0.4900
16868TIP3   OH272094   1.697   2.022  37.631  0.0499  0.2406  0.2988
16868TIP3    H172095   1.666   2.078  37.560  0.4907 -0.7269 -0.6916
16868TIP3    H272096   1.657   2.058  37.710 -0.3750  1.3996 -0.4290
16869TIP3   OH272097   0.064   1.400   7.374  0.3951 -0.0857 -0.2147
16869TIP3    H172098   0.109   1.333   7.322  0.2363 -0.6631  0.3706
16869TIP3    H272099  -0.021   1.361   7.394  0.9941 -0.5304  1.7423
16870TIP3   OH272100   1.948   0.070  12.410 -0.8086  0.3941  0.1875
16870TIP3    H172101   1.890   0.087  12.336 -0.8155  1.6650  0.4759
16870TIP3    H272102   1.901   0.004  12.462  0.2121 -2.3225 -2.0792
16871TIP3   OH272103   3.222   3.364  42.959  0.4401  0.2204  0.8542
16871TIP3    H172104   3.131   3.378  42.986  0.4878 -1.0557  1.8087
16871TIP3    H272105   3.271   3.361  43.042  1.3118  0.6622  0.3640
16872TIP3   OH272106   3.037   0.342  45.514  0.5581  0.0306 -0.0119
16872TIP3    H172107   3.058   0.262  45.466 -0.8513  0.4083 -1.3094
16872TIP3    H272108   3.024   0.313  45.604  1.1635 -1.0110 -0.2393
16873TIP3   OH272109   3.258   0.305  65.539  0.3757 -0.4196 -0.1264
16873TIP3    H172110   3.275   0.220  65.579 -1.3031 -0.1776  1.2261
16873TIP3    H272111   3.225   0.359  65.611  1.6140  1.4656 -0.9096
16874TIP3   OH272112   3.443   2.972  18.527  0.2518 -0.1518  0.2580
16874TIP3    H172113   3.502   2.909  18.570  0.3468  0.2728  0.7670
16874TIP3    H272114   3.356   2.934  18.537  0.5412 -1.5397 -1.8216
16875TIP3   OH272115   3.091   1.889  16.996 -0.4903  0.4045 -0.5217
16875TIP3    H172116   3.033   1.813  17.007 -1.2983  0.9964 -0.5975
16875TIP3    H272117   3.179   1.855  17.014 -0.9071 -0.4139  0.0336
16876TIP3   OH272118   1.909   2.712   0.004 -0.3361 -0.4767  0.0842
16876TIP3    H172119   1.869   2.798  -0.005 -1.3487 -0.9116  0.1734
16876TIP3    H272120   1.937   2.688  -0.085  1.4280  0.6017  0.3218
16877TIP3   OH272121   0.761   0.050  62.844 -0.2452  0.0787 -0.7460
16877TIP3    H172122   0.775   0.142  62.822 -1.3118  0.3891 -0.1605
16877TIP3    H272123   0.846   0.020  62.876  0.2303  0.7310 -1.3632
16878TIP3   OH272124   1.483   3.024  47.041  0.1741  0.4783 -0.1146
16878TIP3    H172125   1.416   3.093  47.045 -0.2698  0.0107  1.6606
16878TIP3    H272126   1.566   3.071  47.051 -0.1699  0.7551  1.9667
16879TIP3   OH272127   2.292   1.692  17.961 -0.0990  0.1441 -0.0676
16879TIP3    H172128   2.263   1.637  17.888 -4.0211  0.5019  0.9994
16879TIP3    H272129   2.275   1.781  17.933  0.0099  0.3809  0.5991
16880TIP3   OH272130   1.441   1.649  62.697  0.2551 -0.0206  0.1106
16880TIP3    H172131   1.489   1.731  62.702  0.0097  0.0331  2.0660
16880TIP3    H272132   1.357   1.673  62.657  0.3549  0.5995  0.2648
16881TIP3   OH272133   1.216   1.589  16.976  0.0998  0.4906 -0.0912
16881TIP3    H172134   1.199   1.651  17.047  0.7613  1.3381 -0.6579
16881TIP3    H272135   1.299   1.547  16.999  0.0868  0.4392 -0.1357
16882TIP3   OH272136   0.946   2.652  67.097  0.0225  0.3641  0.2977
16882TIP3    H172137   0.878   2.626  67.158 -0.5603 -0.7077 -0.7703
16882TIP3    H272138   0.993   2.571  67.077 -0.6673  0.4117 -1.7104
16883TIP3   OH272139   0.709   2.294   4.204 -0.2054  0.4888 -0.2204
16883TIP3    H172140   0.635   2.234   4.196  0.5109 -0.5773  0.6695
16883TIP3    H272141   0.672   2.381   4.191 -1.4624 -0.0753 -0.5654
16884TIP3   OH272142   0.538   1.558  60.772 -0.1239 -0.2320 -0.0278
16884TIP3    H172143   0.606   1.553  60.839 -0.1687 -0.5652 -0.0075
16884TIP3    H272144   0.456   1.565  60.822 -0.2447 -1.4662 -0.0282
16885TIP3   OH272145   0.253   2.894  14.894 -0.0459  0.0639 -0.6762
16885TIP3    H172146   0.221   2.858  14.812  0.3911 -0.2005 -0.7308
16885TIP3    H272147   0.181   2.881  14.956  0.8258 -2.8882 -0.1247
16886TIP3   OH272148   0.513   3.056  17.757 -0.1690  0.1979  0.1655
16886TIP3    H172149   0.593   3.094  17.720  0.6815 -1.6927 -0.0904
16886TIP3    H272150   0.442   3.096  17.707  0.7587  0.3273 -1.1208
16887TIP3   OH272151   2.455   0.389  48.337  0.3487 -0.0557 -0.5195
16887TIP3    H172152   2.472   0.335  48.259  0.4063 -0.5795 -0.1517
16887TIP3    H272153   2.365   0.367  48.360  0.1567  0.4951 -0.7421
16888TIP3   OH272154   2.238   1.620  18.229 -0.1606 -0.0528 -0.2937
16888TIP3    H172155   2.287   1.621  18.147  0.1629 -1.8144 -0.1500
16888TIP3    H272156   2.299   1.655  18.294 -0.0022  0.2186 -0.5886
16889TIP3   OH272157   1.925   0.907  55.387  0.0712 -0.3553 -0.5152
16889TIP3    H172158   2.010   0.925  55.427  0.9118 -0.9063 -1.9556
16889TIP3    H272159   1.868   0.977  55.419  1.0899  0.0765  0.4104
16890TIP3   OH272160   0.345   1.049  19.633  0.2613 -0.3426 -0.0931
16890TIP3    H172161   0.262   1.007  19.611  0.7748 -3.0712  2.6139
16890TIP3    H272162   0.319   1.127  19.684 -0.7011 -1.5373  1.3249
16891TIP3   OH272163   0.536   0.684  62.851  0.3461 -0.0218  0.3460
16891TIP3    H172164   0.609   0.736  62.885  1.3417 -0.8646 -0.4322
16891TIP3    H272165   0.536   0.605  62.905  0.1585 -0.1241  0.1982
16892TIP3   OH272166   2.614   0.945  15.746  0.1192  0.5470  0.0583
16892TIP3    H172167   2.659   1.016  15.791  0.4456  1.4292 -1.5700
16892TIP3    H272168   2.652   0.865  15.783  0.8998  1.2446  0.8001
16893TIP3   OH272169   2.281   0.312  46.833 -0.1637  0.2101  0.2247
16893TIP3    H172170   2.339   0.367  46.885 -0.6519  0.9091  0.0412
16893TIP3    H272171   2.222   0.373  46.790 -1.4875 -0.5175  0.9470
16894TIP3   OH272172   2.913   0.270  50.254 -0.3395  0.2740  0.1824
16894TIP3    H172173   2.841   0.324  50.289 -0.5698 -0.8522  1.5365
16894TIP3    H272174   2.885   0.180  50.269 -0.3007 -0.3114 -2.7337
16895TIP3   OH272175   3.226   1.212  47.546  0.5470 -0.0865 -0.3338
16895TIP3    H172176   3.152   1.261  47.508  0.5641  0.5909  0.4872
16895TIP3    H272177   3.234   1.245  47.635  1.6406 -0.3815 -0.3044
16896TIP3   OH272178   0.761   1.035   1.813  0.3625 -0.0923  0.1422
16896TIP3    H172179   0.819   1.082   1.873 -0.9939 -0.2506  1.6603
16896TIP3    H272180   0.686   1.094   1.801 -1.0129 -1.4623  1.4685
16897TIP3   OH272181   3.362   0.166  10.833 -0.1070 -0.2086  0.1441
16897TIP3    H172182   3.347   0.080  10.872 -0.1699  1.0742  3.1456
16897TIP3    H272183   3.310   0.227  10.886  2.0817  2.0499 -0.1056
16898TIP3   OH272184   1.700   2.592  16.847  0.1555 -0.4226  0.1944
16898TIP3    H172185   1.613   2.556  16.832  0.9118 -2.2645 -0.1067
16898TIP3    H272186   1.755   2.515  16.864  1.6140  0.7296  0.9291
16899TIP3   OH272187   0.323   1.233  13.599 -0.1897 -0.2249  0.0655
16899TIP3    H172188   0.258   1.241  13.668  1.4939  0.7122  1.6307
16899TIP3    H272189   0.345   1.323  13.575 -0.9549 -0.5205 -1.9698
16900TIP3   OH272190   0.090   2.237   0.483 -0.1646 -0.1764  0.0545
16900TIP3    H172191   0.094   2.188   0.401  2.5659 -0.9885  0.5639
16900TIP3    H272192   0.125   2.177   0.549  2.1440  1.9270  0.9273
16901TIP3   OH272193   1.571   2.321  21.102  0.7142 -0.3694 -0.3298
16901TIP3    H172194   1.592   2.414  21.102 -2.1076  0.3548 -1.0174
16901TIP3    H272195   1.557   2.300  21.195  1.4580 -0.1586 -0.1635
16902TIP3   OH272196   2.030   3.137  55.582 -0.6973  0.6678 -0.0500
16902TIP3    H172197   1.938   3.116  55.569 -0.8002  1.6955 -1.1317
16902TIP3    H272198   2.070   3.125  55.496 -0.0720  1.4337  0.1214
16903TIP3   OH272199   3.126   2.230  60.735  0.5483  0.3750  0.0709
16903TIP3    H172200   3.145   2.221  60.642 -0.2246  0.0657 -0.0590
16903TIP3    H272201   3.200   2.281  60.769  0.1198  1.7639 -0.9804
16904TIP3   OH272202   2.230   2.732  42.587  0.2219 -0.0037 -0.0353
16904TIP3    H172203   2.235   2.820  42.623  1.3921 -0.7375  1.7390
16904TIP3    H272204   2.160   2.690  42.636 -0.0830 -0.1734 -0.6141
16905TIP3   OH272205   0.129   2.574  63.424 -0.3032 -0.1169  0.1845
16905TIP3    H172206   0.107   2.614  63.340  2.1661  1.0424  0.0278
16905TIP3    H272207   0.169   2.644  63.475  2.7701 -1.8792  0.4633
16906TIP3   OH272208   1.431   2.928  14.312 -0.5240  0.4760 -0.4622
16906TIP3    H172209   1.521   2.953  14.333 -1.0161  1.7740  0.2022
16906TIP3    H272210   1.435   2.894  14.223  0.8782 -0.9493  0.1022
16907TIP3   OH272211   1.312   2.198  66.001  0.3258 -0.1724  0.0697
16907TIP3    H172212   1.238   2.240  66.045  0.0271 -0.9919  0.3563
16907TIP3    H272213   1.288   2.198  65.909 -0.2253 -0.8138  0.2111
16908TIP3   OH272214   2.830   2.560  28.278  0.2734 -0.2968 -0.8773
16908TIP3    H172215   2.861   2.535  28.365 -0.0274 -0.1872 -0.7334
16908TIP3    H272216   2.794   2.648  28.290  2.3482  0.7087 -1.6108
16909TIP3   OH272217   1.332   0.572  63.475 -0.3430  0.0619 -0.0979
16909TIP3    H172218   1.297   0.595  63.389 -0.2587  0.2694 -0.0752
16909TIP3    H272219   1.403   0.511  63.456  1.2181  1.8663 -0.3345
16910TIP3   OH272220   1.799   2.243   5.387 -0.2098  0.0260  0.2256
16910TIP3    H172221   1.775   2.326   5.426 -0.8919  1.4834 -3.0085
16910TIP3    H272222   1.830   2.190   5.461 -1.6232  2.3954  2.6823
16911TIP3   OH272223   2.700   0.481  12.934 -0.2737  0.7715  0.7764
16911TIP3    H172224   2.644   0.473  13.011 -0.5084  1.9177  0.7468
16911TIP3    H272225   2.784   0.513  12.969  0.4020 -0.9354  0.8219
16912TIP3   OH272226   1.518   0.034  43.153  0.3899  0.7811 -0.2498
16912TIP3    H172227   1.535   0.055  43.061  1.7509 -0.7354 -0.3785
16912TIP3    H272228   1.536  -0.060  43.161 -1.3504  0.4973  1.2125
16913TIP3   OH272229   1.553   3.122  45.978  0.7629  0.1316  0.3766
16913TIP3    H172230   1.531   3.127  45.885  0.3259  1.0739  0.5299
16913TIP3    H272231   1.632   3.175  45.986 -0.8145  2.4900  1.0365
16914TIP3   OH272232   3.026   0.469  47.403 -0.1235  0.5729  0.5766
16914TIP3    H172233   3.094   0.450  47.339 -0.6518 -1.0977  0.4719
16914TIP3    H272234   3.072   0.519  47.472  1.2259 -0.5549  0.5422
16915TIP3   OH272235   3.222   3.395  43.643  0.0343 -0.0443 -0.1286
16915TIP3    H172236   3.141   3.348  43.664  1.2964 -2.5980 -0.5214
16915TIP3    H272237   3.256   3.423  43.728 -1.3978  1.3945  0.0107
16916TIP3   OH272238   3.025   1.127  58.933 -0.0155  0.6392  0.3027
16916TIP3    H172239   2.930   1.127  58.925  0.1072  1.2601 -1.7084
16916TIP3    H272240   3.053   1.044  58.894  0.3038  0.7649  0.2597
16917TIP3   OH272241   0.870   1.974  49.489 -0.4411 -0.2072 -0.2664
16917TIP3    H172242   0.890   2.028  49.413 -1.1620  2.2591  1.1982
16917TIP3    H272243   0.777   1.956  49.482 -0.0041 -2.3665 -1.3478
16918TIP3   OH272244   2.233   1.954  17.832 -0.6444  0.5145  0.5136
16918TIP3    H172245   2.288   2.031  17.822  2.4806 -1.6421 -0.6592
16918TIP3    H272246   2.179   1.951  17.754  0.0333  0.9357  0.0260
16919TIP3   OH272247   2.148   0.049  18.309  0.3025  0.3325 -0.1062
16919TIP3    H172248   2.198   0.048  18.391  1.6671 -0.4805 -0.8981
16919TIP3    H272249   2.178   0.128  18.264  0.5072  0.1149 -0.3577
16920TIP3   OH272250   0.961   1.619  12.933 -0.2550 -0.2999 -0.3153
16920TIP3    H172251   0.994   1.583  12.850 -2.1548  0.5638 -1.5080
16920TIP3    H272252   0.876   1.577  12.946  0.3900 -1.1264  1.7498
16921TIP3   OH272253   2.242   0.094   7.663  0.0107  0.3678  0.5604
16921TIP3    H172254   2.280   0.054   7.584  0.7752 -1.4575  1.7871
16921TIP3    H272255   2.315   0.101   7.724 -0.7692  0.7730  1.4679
16922TIP3   OH272256   2.766   2.887  42.883 -0.5330 -0.2109 -0.1774
16922TIP3    H172257   2.674   2.913  42.878  0.0423  1.7114 -3.3532
16922TIP3    H272258   2.784   2.845  42.799  1.6659  0.0733  0.0943
16923TIP3   OH272259   1.404   0.757   0.794 -0.1236 -0.7449  0.9566
16923TIP3    H172260   1.470   0.688   0.784  0.1180 -0.5837  1.4242
16923TIP3    H272261   1.406   0.779   0.887  0.2004  0.2969  0.7117
16924TIP3   OH272262   0.150   0.357  51.313 -0.0508 -0.4562 -0.1631
16924TIP3    H172263   0.064   0.327  51.341 -0.3593  0.5801  0.0702
16924TIP3    H272264   0.191   0.391  51.393 -0.2784  0.9758 -0.6104
16925TIP3   OH272265   0.352   1.066   8.463 -0.0552 -0.1858 -0.4247
16925TIP3    H172266   0.360   1.095   8.372 -3.1594  2.5420  0.0284
16925TIP3    H272267   0.400   1.132   8.514 -1.1789  0.2317  0.1221
16926TIP3   OH272268   2.919   2.278   3.154 -0.1764 -0.3335 -0.2481
16926TIP3    H172269   2.864   2.334   3.209 -0.2499  1.0507 -1.6506
16926TIP3    H272270   2.894   2.301   3.064  1.3049 -1.0883 -0.8885
16927TIP3   OH272271   1.825   1.596  58.409 -0.0497 -0.2422  0.0321
16927TIP3    H172272   1.767   1.548  58.349  0.8497 -0.8870 -0.3480
16927TIP3    H272273   1.766   1.636  58.472 -1.2282  1.9428 -2.2629
16928TIP3   OH272274   2.061   1.139  63.046  0.2066  0.0002  0.2316
16928TIP3    H172275   1.972   1.152  63.015  0.2147  2.1983  0.9679
16928TIP3    H272276   2.053   1.076  63.118 -0.6737 -0.1730 -0.0103
16929TIP3   OH272277   2.654   3.087   0.714 -0.0640  0.7269  0.0308
16929TIP3    H172278   2.671   3.030   0.638 -2.6937 -0.6177  0.3415
16929TIP3    H272279   2.727   3.149   0.714  0.8310 -0.1776 -2.6919
16930TIP3   OH272280   0.715   0.869  11.812 -0.1391  0.5768 -0.3508
16930TIP3    H172281   0.694   0.959  11.836  0.0473  0.5436 -0.0555
16930TIP3    H272282   0.771   0.877  11.735 -0.0492  0.7192 -0.2711
16931TIP3   OH272283   1.744   0.049  66.659 -0.2939 -0.1585  0.2249
16931TIP3    H172284   1.836   0.022  66.670 -0.7565 -1.8106  0.2779
16931TIP3    H272285   1.695  -0.009  66.717 -1.5867 -0.9321 -1.5364
16932TIP3   OH272286   3.136   2.925  22.624  0.2415 -0.1769 -0.2245
16932TIP3    H172287   3.156   3.012  22.588  1.3957 -0.1001  0.5348
16932TIP3    H272288   3.106   2.942  22.713 -0.1440 -0.5228 -0.2883
16933TIP3   OH272289   3.081   1.798  54.626 -0.8487 -0.3346 -0.0755
16933TIP3    H172290   3.166   1.822  54.661 -0.5005 -1.7830  0.1609
16933TIP3    H272291   3.032   1.766  54.702 -0.9670 -1.1685 -0.4893
16934TIP3   OH272292   1.683   3.329  15.443 -0.5323  0.3800 -0.0087
16934TIP3    H172293   1.724   3.250  15.478  1.1719  0.5456 -1.4823
16934TIP3    H272294   1.590   3.307  15.436 -0.3650 -0.8498  1.2385
16935TIP3   OH272295   3.057   2.636  53.466  0.1773  0.7711 -0.1967
16935TIP3    H172296   3.117   2.703  53.498  0.9729 -0.0469  0.0597
16935TIP3    H272297   3.040   2.661  53.375  1.2506  0.7881 -0.4073
16936TIP3   OH272298   1.548   2.809  56.057 -0.3623 -0.6382  0.2965
16936TIP3    H172299   1.533   2.902  56.041 -1.1481 -0.8017  0.0586
16936TIP3    H272300   1.621   2.786  55.999  0.4953  0.0455  1.0723
16937TIP3   OH272301   0.983   0.722  57.116  0.2791 -0.1120 -0.5743
16937TIP3    H172302   1.074   0.726  57.088  0.2416  0.9964 -0.5785
16937TIP3    H272303   0.958   0.814  57.131 -0.8668 -0.3880 -0.6892
16938TIP3   OH272304   0.652   2.773  61.915  0.0280 -0.0813  0.1614
16938TIP3    H172305   0.597   2.699  61.888  1.3094 -0.7340 -0.7954
16938TIP3    H272306   0.657   2.766  62.010 -3.0413  1.1305  0.5263
16939TIP3   OH272307   2.098   0.618  56.284 -0.0077 -0.2400 -0.2656
16939TIP3    H172308   2.078   0.705  56.317 -0.4043  0.1785 -1.5272
16939TIP3    H272309   2.135   0.571  56.359  0.8155  1.2072  0.2857
16940TIP3   OH272310   1.676   3.354  10.499  0.0302  0.4110 -0.7350
16940TIP3    H172311   1.628   3.309  10.568 -1.8800  1.8187 -1.0567
16940TIP3    H272312   1.767   3.327  10.511 -0.7982 -2.4141 -0.1196
16941TIP3   OH272313   1.316   2.346  39.101 -0.8193 -0.2864  0.7459
16941TIP3    H172314   1.245   2.405  39.125 -0.3166  0.1018  1.3159
16941TIP3    H272315   1.359   2.325  39.184  1.2635  1.4588  0.1826
16942TIP3   OH272316   1.861   2.514   7.047 -0.1471  0.1952 -0.8836
16942TIP3    H172317   1.821   2.542   7.129 -1.5341 -1.4020 -0.9405
16942TIP3    H272318   1.920   2.586   7.022 -0.8790  1.3955  0.6870
16943TIP3   OH272319   2.090   2.023  62.977  0.5252  0.1589 -0.4508
16943TIP3    H172320   2.012   2.076  62.997  0.1224 -0.4532 -0.3707
16943TIP3    H272321   2.154   2.048  63.043  0.2079  0.2732 -0.1846
16944TIP3   OH272322   2.221   1.343  67.226  0.2177 -0.2643 -0.7081
16944TIP3    H172323   2.148   1.284  67.207 -1.0890  0.8763  0.5177
16944TIP3    H272324   2.292   1.313  67.169 -0.2424 -3.2062  0.0931
16945TIP3   OH272325   0.095   2.796  12.269  0.2090  0.4054  0.1443
16945TIP3    H172326   0.168   2.735  12.264 -0.7058 -0.7818  0.5955
16945TIP3    H272327   0.134   2.882  12.258  1.6617 -0.1944  0.4131
16946TIP3   OH272328   2.265   3.132  58.744  0.7040  0.1641  0.3499
16946TIP3    H172329   2.354   3.161  58.765  0.3083  0.9696  1.0070
16946TIP3    H272330   2.259   3.140  58.649  1.0767  0.8887  0.3798
16947TIP3   OH272331   3.094   1.397   6.609 -0.1619 -0.1467 -0.0751
16947TIP3    H172332   3.106   1.302   6.602  0.2997 -0.0002 -1.6976
16947TIP3    H272333   3.149   1.423   6.683 -0.8030 -1.2029  0.8115
16948TIP3   OH272334   0.462   0.355  56.026 -0.1060 -0.1673 -0.7366
16948TIP3    H172335   0.526   0.308  55.972  0.0848 -0.4816 -0.2366
16948TIP3    H272336   0.435   0.292  56.092 -0.9643 -0.0520 -0.9581
16949TIP3   OH272337   0.666   0.993  14.395  0.1524 -0.6717  0.2609
16949TIP3    H172338   0.737   1.029  14.449 -0.3461  0.0582  0.4389
16949TIP3    H272339   0.651   1.059  14.328 -0.0886 -1.0099 -0.0246
16950TIP3   OH272340   2.076   2.749   0.586 -0.4695  0.0984  0.0260
16950TIP3    H172341   2.000   2.736   0.643  0.1145 -0.3174  0.7269
16950TIP3    H272342   2.070   2.840   0.559 -2.5356 -0.4927 -1.8671
16951TIP3   OH272343   0.122   0.285   8.122  0.1265  0.5013 -0.2598
16951TIP3    H172344   0.146   0.199   8.157 -1.2358  0.3406  0.3482
16951TIP3    H272345   0.192   0.307   8.061  0.1507 -1.3580 -0.9638
16952TIP3   OH272346   2.686   2.421  60.567  0.4666  0.0051 -0.3527
16952TIP3    H172347   2.708   2.335  60.531 -1.0261 -1.1357  1.3037
16952TIP3    H272348   2.609   2.405  60.621  1.8044  1.7972  2.2915
16953TIP3   OH272349   0.493   3.258   5.988  0.0095  0.0316 -0.5861
16953TIP3    H172350   0.576   3.236   5.946 -0.5917  0.0483 -1.8161
16953TIP3    H272351   0.494   3.353   5.997  0.8832 -0.0965  1.0759
16954TIP3   OH272352   2.498   0.016   7.270 -0.2201  0.0556  0.2359
16954TIP3    H172353   2.458   0.085   7.218  0.6217  2.1959  2.2551
16954TIP3    H272354   2.592   0.033   7.264  0.1069 -1.6683 -0.1535
16955TIP3   OH272355   3.410   1.081  48.106 -0.6005  0.2510 -0.2645
16955TIP3    H172356   3.391   1.163  48.059  1.8331  0.4330 -1.0585
16955TIP3    H272357   3.497   1.095  48.144 -0.7342 -1.4715  0.7598
16956TIP3   OH272358   1.570   1.655  55.902 -0.0129 -0.0968 -0.0415
16956TIP3    H172359   1.588   1.563  55.881  1.3240  0.5055 -1.7288
16956TIP3    H272360   1.650   1.685  55.945 -0.2669  0.4208  0.0709
16957TIP3   OH272361   0.991   1.256  52.096  0.1586  0.0447  0.0375
16957TIP3    H172362   1.007   1.320  52.027  0.8213  0.5112  0.6036
16957TIP3    H272363   0.904   1.276  52.128 -0.4712 -0.6625 -1.1596
16958TIP3   OH272364   1.274   1.720  61.020  0.0005  0.3765 -0.0081
16958TIP3    H172365   1.327   1.748  60.946  0.7754 -0.4121  0.2299
16958TIP3    H272366   1.198   1.677  60.980  0.7012 -0.5623 -0.3548
16959TIP3   OH272367   0.243   0.106   2.130  0.6081 -0.6156 -0.5844
16959TIP3    H172368   0.214   0.049   2.202  1.7368 -0.0776  0.3321
16959TIP3    H272369   0.165   0.116   2.075 -0.3408 -0.9300  0.6343
16960TIP3   OH272370   3.262   0.750  29.233 -0.0929  0.3326  1.0357
16960TIP3    H172371   3.212   0.796  29.166  0.0695 -0.3649  0.4208
16960TIP3    H272372   3.323   0.816  29.268  2.3234 -0.0780 -1.9732
16961TIP3   OH272373   3.083   3.161  22.467  0.6648 -0.0923  0.9103
16961TIP3    H172374   2.989   3.163  22.447  0.9505  0.0161 -0.4715
16961TIP3    H272375   3.101   3.247  22.506 -0.1109 -0.7113  2.7786
16962TIP3   OH272376   2.165   3.010  53.653 -0.1834 -0.0633  0.3286
16962TIP3    H172377   2.141   2.925  53.689  0.6643  0.3104  1.8627
16962TIP3    H272378   2.257   3.001  53.628 -0.3149  0.1656 -0.2597
16963TIP3   OH272379   0.146   0.101  50.299 -0.2956  0.0202  0.1303
16963TIP3    H172380   0.079   0.136  50.241 -2.7405  1.3004  3.3728
16963TIP3    H272381   0.164   0.173  50.360  2.1058 -1.1995  0.9834
16964TIP3   OH272382   1.457   1.226  57.729 -0.1934 -0.1750 -0.1862
16964TIP3    H172383   1.397   1.157  57.757 -1.3348  0.6014 -0.6810
16964TIP3    H272384   1.440   1.299  57.788  0.5981 -0.0946 -0.0394
16965TIP3   OH272385   3.278   2.167  19.968  0.1519  0.5494 -0.3329
16965TIP3    H172386   3.371   2.147  19.973  0.6704  2.8633  1.5529
16965TIP3    H272387   3.265   2.235  20.034 -2.6434  1.2180 -1.4183
16966TIP3   OH272388   1.924   0.988  20.418 -0.3091  0.2634 -0.2619
16966TIP3    H172389   1.933   1.070  20.466  2.7556 -0.1247  0.0104
16966TIP3    H272390   1.962   1.006  20.332  0.2304 -0.8112 -0.2638
16967TIP3   OH272391   2.938   1.217  46.966  0.5580 -0.1334  0.1103
16967TIP3    H172392   2.963   1.266  46.888  0.0539 -0.9147 -0.5596
16967TIP3    H272393   2.850   1.249  46.987  1.1858  0.9968  1.1373
16968TIP3   OH272394   2.637   1.574  54.070  0.3414 -0.2023 -0.7410
16968TIP3    H172395   2.675   1.650  54.114 -1.4365 -0.5342  1.5048
16968TIP3    H272396   2.713   1.522  54.044  1.5048  0.6543  0.7645
16969TIP3   OH272397   2.728   2.440  47.157 -0.2444  0.0671  0.3576
16969TIP3    H172398   2.814   2.412  47.189 -0.5382 -1.4406 -0.0980
16969TIP3    H272399   2.743   2.528  47.122  1.6073 -0.9931 -1.7258
16970TIP3   OH272400   2.575   0.747  47.610  0.4650 -0.0173 -0.1111
16970TIP3    H172401   2.619   0.821  47.652  0.0960  0.7402 -1.0334
16970TIP3    H272402   2.642   0.679  47.605  0.5887 -0.0614  1.4640
16971TIP3   OH272403   0.478   1.978  50.635  0.5622  0.4499 -0.1301
16971TIP3    H172404   0.439   2.033  50.702 -0.1772  1.2827 -1.2173
16971TIP3    H272405   0.525   2.038  50.578 -1.4026  0.2128 -2.1392
16972TIP3   OH272406   3.087   1.311  58.752 -0.0109 -0.5377 -0.0575
16972TIP3    H172407   3.065   1.246  58.819 -0.3917  0.1572  0.5055
16972TIP3    H272408   3.017   1.304  58.688 -2.0996  1.7161  1.7629
16973TIP3   OH272409   1.038   1.957  57.227  0.1374  0.3758  0.1313
16973TIP3    H172410   0.998   1.982  57.310 -1.1021  1.3632 -0.7266
16973TIP3    H272411   0.964   1.944  57.167  0.9505 -1.2246 -0.6008
16974TIP3   OH272412   0.184   1.543   1.949  0.4692  0.5851 -0.1250
16974TIP3    H172413   0.215   1.625   1.989 -0.0470  1.3273 -1.1771
16974TIP3    H272414   0.108   1.518   2.002  0.5414  0.8667  0.1161
16975TIP3   OH272415   1.079   0.863   1.346  0.1181 -0.1692 -0.5995
16975TIP3    H172416   0.989   0.842   1.371 -0.5878  0.2202 -2.6289
16975TIP3    H272417   1.089   0.955   1.368  2.5042 -1.5191  6.2659
16976TIP3   OH272418   2.147   0.522  15.214  0.0466 -0.3313 -0.3687
16976TIP3    H172419   2.183   0.548  15.298  0.0424 -1.2141 -0.0808
16976TIP3    H272420   2.179   0.588  15.152 -2.3790  2.0719  0.7612
16977TIP3   OH272421   3.306   3.449   7.785 -0.3903  0.5833 -0.2045
16977TIP3    H172422   3.310   3.446   7.880  1.1454  0.6116 -0.2511
16977TIP3    H272423   3.246   3.378   7.762 -0.2820  0.1572  0.7611
16978TIP3   OH272424   1.608   3.063  64.321 -0.0908 -0.1530 -0.3316
16978TIP3    H172425   1.541   3.128  64.299 -0.1642  0.2934  1.1356
16978TIP3    H272426   1.584   3.032  64.408  1.3211 -0.3590  0.0127
16979TIP3   OH272427   2.294   2.407  54.007 -0.2707  0.1789  0.2157
16979TIP3    H172428   2.367   2.469  54.001 -0.7061  0.5614 -1.5777
16979TIP3    H272429   2.331   2.332  54.053  0.5657  1.3088  1.4828
16980TIP3   OH272430   2.236   2.302  20.854  0.2122 -0.0033  0.3309
16980TIP3    H172431   2.165   2.360  20.828 -0.8181 -0.8012  1.2591
16980TIP3    H272432   2.193   2.231  20.902  1.3773 -1.7393 -1.0543
16981TIP3   OH272433   3.155   2.859  44.368  0.1517 -0.0922  1.1306
16981TIP3    H172434   3.223   2.823  44.312 -1.0533 -1.2567  0.3617
16981TIP3    H272435   3.154   2.803  44.445  0.8017  0.6079  1.6630
16982TIP3   OH272436   1.580   1.080  61.635 -0.1106 -0.3056  0.2895
16982TIP3    H172437   1.529   1.138  61.692 -2.7831 -2.6320  0.4617
16982TIP3    H272438   1.597   1.003  61.689  0.8958 -0.8971 -0.8204
16983TIP3   OH272439   0.713   2.999  44.699  0.3215  0.6840 -0.4182
16983TIP3    H172440   0.625   3.034  44.713  0.0738  0.1472 -0.6046
16983TIP3    H272441   0.771   3.066  44.735 -0.1849  0.7529  0.2953
16984TIP3   OH272442   2.641   1.885  58.337  0.4751  0.1383  0.3349
16984TIP3    H172443   2.690   1.837  58.270 -2.2601 -1.5365 -0.6786
16984TIP3    H272444   2.644   1.829  58.414  0.4427  0.1875  0.3712
16985TIP3   OH272445   0.575   0.607  44.915  0.3223  0.3292  0.4346
16985TIP3    H172446   0.655   0.653  44.888 -0.0781 -0.1290 -1.7229
16985TIP3    H272447   0.607   0.522  44.946  0.6562 -0.4068 -1.7296
16986TIP3   OH272448   3.057   1.132  61.490  0.1299 -0.1793  0.0817
16986TIP3    H172449   3.067   1.159  61.398  0.6126  1.0062  0.4535
16986TIP3    H272450   2.968   1.097  61.495  0.7081 -2.0260 -1.2399
16987TIP3   OH272451   0.529   1.086  46.964  0.1278 -0.0769 -0.0559
16987TIP3    H172452   0.528   1.065  47.058  2.1114 -1.8351 -0.3657
16987TIP3    H272453   0.571   1.011  46.923  0.2422  1.1160 -2.2478
16988TIP3   OH272454   0.726   1.439  37.621  0.3481 -0.1909 -0.8425
16988TIP3    H172455   0.774   1.380  37.562 -1.6323 -1.6341 -1.1141
16988TIP3    H272456   0.638   1.443  37.584  0.2799  2.7039 -0.6003
16989TIP3   OH272457   0.779   2.162  34.455  0.1178 -0.1980 -0.3268
16989TIP3    H172458   0.722   2.091  34.425  1.5002 -0.9604 -1.2158
16989TIP3    H272459   0.865   2.141  34.419  1.6159 -0.4034  2.9902
16990TIP3   OH272460   3.447   2.615  51.928  0.1744  0.6068  1.0652
16990TIP3    H172461   3.469   2.704  51.958  0.9735  1.0079 -0.5978
16990TIP3    H272462   3.484   2.558  51.996  2.0918  1.4647  0.8252
16991TIP3   OH272463   1.748   1.395   3.662 -0.2489  0.5334 -0.4693
16991TIP3    H172464   1.813   1.340   3.618 -0.3819  0.2091 -0.2645
16991TIP3    H272465   1.681   1.333   3.691 -0.2318  0.7625  0.0630
16992TIP3   OH272466   0.334   1.587  20.515  0.0339  0.0437 -0.0191
16992TIP3    H172467   0.385   1.511  20.544  0.1306 -0.3395 -1.1457
16992TIP3    H272468   0.317   1.570  20.422 -0.3450  1.1813 -0.1680
16993TIP3   OH272469   2.110   1.357  11.640 -0.1258 -0.1316 -0.2833
16993TIP3    H172470   2.155   1.441  11.628  1.6043 -0.8554  0.8305
16993TIP3    H272471   2.181   1.292  11.643 -1.3327 -1.4681  0.3090
16994TIP3   OH272472   0.293   2.556  16.377 -0.0558  0.3932 -0.0381
16994TIP3    H172473   0.280   2.461  16.383  0.7655  0.2732 -0.1629
16994TIP3    H272474   0.217   2.592  16.423 -1.1773 -0.2832 -1.2931
16995TIP3   OH272475   1.241   0.300   7.523 -0.1920 -0.5049  0.0281
16995TIP3    H172476   1.147   0.306   7.539 -0.0410  0.4379  0.6344
16995TIP3    H272477   1.254   0.343   7.438 -0.1580  0.5052  0.5337
16996TIP3   OH272478   2.160   2.704  48.886  0.1179 -0.2769 -0.1084
16996TIP3    H172479   2.156   2.799  48.899 -0.1881 -0.2064 -0.7134
16996TIP3    H272480   2.252   2.682  48.902  0.4484  0.2974 -1.1373
16997TIP3   OH272481   3.220   0.638  16.319  0.4653  0.1454 -0.0393
16997TIP3    H172482   3.282   0.692  16.270  0.1956 -0.4328 -1.0360
16997TIP3    H272483   3.275   0.569  16.358  0.3639 -0.9960 -1.7925
16998TIP3   OH272484   3.070   0.149  18.700 -0.1725 -0.1780 -0.4939
16998TIP3    H172485   3.111   0.132  18.615  1.8870  1.2659  0.1405
16998TIP3    H272486   3.117   0.093  18.761 -0.4406  0.1212 -0.0105
16999TIP3   OH272487   0.725   2.642   1.562 -0.1075 -0.0092 -0.1507
16999TIP3    H172488   0.647   2.687   1.596  0.5471  2.1418 -1.2963
16999TIP3    H272489   0.772   2.710   1.514  1.1495 -1.9012 -1.7162
17000TIP3   OH272490   3.137   1.325  10.032  0.6586  0.2438  0.1059
17000TIP3    H172491   3.179   1.240  10.018  0.7131  0.2659  0.1355
17000TIP3    H272492   3.121   1.328  10.127 -1.5578 -0.7871 -0.1665
17001TIP3   OH272493   1.471   2.247  53.924  0.3676  0.0858 -0.3440
17001TIP3    H172494   1.521   2.180  53.971 -0.9310 -1.2699 -0.8298
17001TIP3    H272495   1.508   2.247  53.835  0.1436 -0.2142 -0.4360
17002TIP3   OH272496   1.061   2.225   3.150 -0.0361 -0.5282 -0.0221
17002TIP3    H172497   1.039   2.267   3.067  0.5718  0.6691  0.3844
17002TIP3    H272498   1.019   2.281   3.216  0.0901 -1.0482  0.5054
17003TIP3   OH272499   1.591   2.740   0.247 -0.2834  0.0566 -0.1435
17003TIP3    H172500   1.648   2.782   0.312 -0.7643 -0.7550  0.8225
17003TIP3    H272501   1.528   2.690   0.298 -1.3445  0.2348 -1.2144
17004TIP3   OH272502   1.032   2.588  10.477 -0.4524 -0.6188 -0.4731
17004TIP3    H172503   1.026   2.507  10.427 -0.4738 -0.4584 -0.7311
17004TIP3    H272504   0.941   2.614  10.492 -0.5365 -1.9478  1.7549
17005TIP3   OH272505   0.795   0.193  49.824  0.1231 -0.5242 -0.1986
17005TIP3    H172506   0.832   0.281  49.818  0.4787 -0.4893  1.9713
17005TIP3    H272507   0.768   0.173  49.734  0.9033  1.4014 -0.9197
17006TIP3   OH272508   1.387   1.647  36.402  0.9085  0.6048  0.1263
17006TIP3    H172509   1.441   1.720  36.430  1.2469  0.8928 -1.2236
17006TIP3    H272510   1.433   1.610  36.326  0.0268 -0.1313 -0.0731
17007TIP3   OH272511   1.993   0.462  63.932 -0.5173  0.1771 -0.2141
17007TIP3    H172512   2.051   0.417  63.994 -2.7148 -0.1857  1.7054
17007TIP3    H272513   1.969   0.394  63.869 -1.5462 -0.6454  1.0073
17008TIP3   OH272514   0.988   0.457   1.405 -0.0266  0.4436 -0.3940
17008TIP3    H172515   0.995   0.363   1.422  1.0140  0.6162  0.2015
17008TIP3    H272516   0.927   0.464   1.332 -0.5794 -0.6560 -0.0540
17009TIP3   OH272517   3.128   1.607  20.222  0.1821 -0.5823 -0.0109
17009TIP3    H172518   3.198   1.599  20.286  0.0756 -0.3735  0.1305
17009TIP3    H272519   3.051   1.634  20.273  0.1337 -0.2699 -0.2438
17010TIP3   OH272520   2.753   1.371   7.415 -0.2579  0.5930  0.2444
17010TIP3    H172521   2.811   1.384   7.490  0.2043  0.3100 -0.0632
17010TIP3    H272522   2.669   1.345   7.455 -0.1807  1.0018  0.6862
17011TIP3   OH272523   0.448   0.156  64.983 -0.6275  0.1061  0.0342
17011TIP3    H172524   0.447   0.198  65.069  0.6726  0.0110  0.1155
17011TIP3    H272525   0.355   0.142  64.963 -0.9445 -0.4006  1.6759
17012TIP3   OH272526   0.954   1.367  65.858  0.4754  0.2968 -0.4561
17012TIP3    H172527   1.004   1.313  65.920 -1.4664  0.2568  1.1702
17012TIP3    H272528   0.922   1.440  65.911 -0.3879  0.8310 -1.6713
17013TIP3   OH272529   0.884   0.357  61.109  0.4459  0.1391  0.2185
17013TIP3    H172530   0.835   0.377  61.189  1.1646  0.7764  0.5187
17013TIP3    H272531   0.976   0.364  61.135  0.7018 -0.6726 -0.4164
17014TIP3   OH272532   2.245   0.797   4.424  0.2762  0.6405 -0.4193
17014TIP3    H172533   2.235   0.726   4.360 -1.0894  1.2792 -0.9715
17014TIP3    H272534   2.287   0.756   4.499 -1.9226 -1.1745 -0.0812
17015TIP3   OH272535   2.962   1.068  13.436 -0.1220 -0.1795 -0.6870
17015TIP3    H172536   3.000   1.077  13.524  1.8163 -0.7105 -1.4005
17015TIP3    H272537   3.031   1.101  13.378 -0.8374 -1.0557 -2.0734
17016TIP3   OH272538   2.526   1.164  11.847  0.5927 -0.0615  0.0591
17016TIP3    H172539   2.494   1.185  11.934  0.0689 -0.0080 -0.1432
17016TIP3    H272540   2.591   1.095  11.861  1.9945  1.3331  0.6851
17017TIP3   OH272541   0.353   2.916  16.440 -0.3058  0.3280 -0.7329
17017TIP3    H172542   0.293   2.876  16.378 -0.2633  0.2294 -0.7112
17017TIP3    H272543   0.362   2.851  16.510  1.6652 -0.7092 -1.8468
17018TIP3   OH272544   3.266   0.956  58.544  0.6368  0.4718 -0.1707
17018TIP3    H172545   3.184   0.994  58.513  1.5605  2.4906 -0.3124
17018TIP3    H272546   3.287   0.888  58.480 -1.6583 -1.1847  0.7232
17019TIP3   OH272547   2.177   0.922   6.044  0.6425  0.4285  0.2818
17019TIP3    H172548   2.157   0.876   5.963  0.2238  1.2733 -0.1024
17019TIP3    H272549   2.262   0.962   6.029  1.0872 -0.3525  0.6794
17020TIP3   OH272550   2.284   3.173  22.721 -0.7830  0.7219 -0.0092
17020TIP3    H172551   2.305   3.089  22.680  2.5807  1.8576 -0.9786
17020TIP3    H272552   2.290   3.156  22.815  1.0546  0.0406 -0.2077
17021TIP3   OH272553   1.456   1.380   3.044  0.3720  0.3824  0.1270
17021TIP3    H172554   1.531   1.340   2.999 -1.6893 -1.4272 -1.9508
17021TIP3    H272555   1.400   1.306   3.066 -2.3004  1.8470 -1.2983
17022TIP3   OH272556   1.774   1.094   4.917  0.9307  0.0203  0.1257
17022TIP3    H172557   1.811   1.070   4.832 -0.6599  0.3483 -0.6954
17022TIP3    H272558   1.714   1.022   4.938  0.8706  0.2299  0.6789
17023TIP3   OH272559   0.765   2.542  53.603 -0.1417 -0.3605  0.4562
17023TIP3    H172560   0.773   2.460  53.653  0.1587 -1.0938 -0.7665
17023TIP3    H272561   0.696   2.524  53.539 -1.1914  0.8933  1.1880
17024TIP3   OH272562   1.718   1.459  22.540  0.0580 -0.1309  0.4765
17024TIP3    H172563   1.783   1.515  22.582 -0.3521  0.2431  0.6177
17024TIP3    H272564   1.690   1.508  22.463 -1.7236  0.7622  1.6315
17025TIP3   OH272565   0.622   2.904   3.570 -0.1563  0.3032  0.3675
17025TIP3    H172566   0.550   2.875   3.514 -0.7516 -2.1206  2.2170
17025TIP3    H272567   0.653   2.985   3.529 -4.2286  1.7784 -0.2432
17026TIP3   OH272568   2.653   1.640  51.897 -0.2358 -0.2575 -0.0798
17026TIP3    H172569   2.667   1.664  51.988  0.9403  0.0672 -0.3280
17026TIP3    H272570   2.566   1.601  51.895 -0.6268  0.5159  1.0247
17027TIP3   OH272571   0.832   1.168  15.128 -0.2229  0.2478  0.4183
17027TIP3    H172572   0.847   1.108  15.055  0.4495  0.5636  0.2886
17027TIP3    H272573   0.893   1.140  15.196  1.1516  1.6471 -0.1735
17028TIP3   OH272574   1.173   0.398  46.378 -0.1268  0.1886 -0.2124
17028TIP3    H172575   1.133   0.413  46.464 -0.2373 -0.0138 -0.2257
17028TIP3    H272576   1.266   0.390  46.396  0.0375  1.6523 -0.2991
17029TIP3   OH272577   0.212   1.954  60.211 -0.4180 -0.2029  0.1434
17029TIP3    H172578   0.145   1.999  60.158  2.5353  2.8209 -1.4260
17029TIP3    H272579   0.205   1.995  60.297  0.9528  2.1412 -0.7432
17030TIP3   OH272580   1.508   3.386  16.921 -0.1954  0.0004 -0.3881
17030TIP3    H172581   1.563   3.329  16.974 -0.3787 -0.8240 -1.0539
17030TIP3    H272582   1.570   3.431  16.863  0.0485  1.1999  0.7442
17031TIP3   OH272583   2.571   2.067  55.878 -0.7321 -0.2709 -0.4836
17031TIP3    H172584   2.584   1.979  55.842 -0.5248 -0.7184  0.6322
17031TIP3    H272585   2.660   2.099  55.896 -0.7961  0.2662 -1.0989
17032TIP3   OH272586   3.232   0.279  15.663 -0.0416 -0.3593  0.0023
17032TIP3    H172587   3.307   0.315  15.710  0.0509  1.1651 -1.2076
17032TIP3    H272588   3.270   0.215  15.603  0.0665 -0.8916  0.6319
17033TIP3   OH272589   0.917   3.235   2.001  0.1114  0.2449 -0.5067
17033TIP3    H172590   0.934   3.289   2.078  1.2353 -0.7963  0.0041
17033TIP3    H272591   0.829   3.261   1.973  0.6525  2.3876 -0.3609
17034TIP3   OH272592   1.742   3.381  56.459 -0.6258  0.0958 -0.2172
17034TIP3    H172593   1.741   3.464  56.412  0.0498  0.9305  1.1906
17034TIP3    H272594   1.831   3.374  56.493 -1.5858  0.5482  2.6436
17035TIP3   OH272595   0.898   3.225  20.457  0.0922  0.6496 -0.3454
17035TIP3    H172596   0.900   3.130  20.468  1.1680  0.7108  0.0796
17035TIP3    H272597   0.931   3.260  20.539 -0.5841  1.4116 -0.3845
17036TIP3   OH272598   2.724   1.023  11.182 -0.1163 -0.0134 -0.0417
17036TIP3    H172599   2.750   0.951  11.239 -3.1589 -0.3874  1.0827
17036TIP3    H272600   2.721   1.099  11.240 -2.2859 -0.1922  0.1545
17037TIP3   OH272601   1.127   3.402   7.076 -0.5747  0.4775 -1.0196
17037TIP3    H172602   1.050   3.456   7.091 -1.1256 -0.6850  0.5153
17037TIP3    H272603   1.121   3.378   6.983 -3.9163 -2.2688 -0.2873
17038TIP3   OH272604   2.135   2.917  43.918  0.6953  0.3542 -0.5021
17038TIP3    H172605   2.122   2.908  44.012 -0.4290  1.3647 -0.5424
17038TIP3    H272606   2.184   2.838  43.893 -1.4082 -1.3340  0.4365
17039TIP3   OH272607   2.583   2.467  48.649 -0.1401 -0.1310  0.5872
17039TIP3    H172608   2.622   2.380  48.650  2.5665  0.9605  0.0701
17039TIP3    H272609   2.622   2.512  48.724 -0.5868  0.9620  0.1979
17040TIP3   OH272610   1.916   0.039  59.646 -0.4863  0.1404 -0.0891
17040TIP3    H172611   1.928   0.119  59.696 -1.5350  0.7532 -0.7956
17040TIP3    H272612   1.972   0.050  59.569  1.1632 -0.8220  0.9070
17041TIP3   OH272613   3.181   2.765  62.386 -0.1620  0.2447 -0.2559
17041TIP3    H172614   3.110   2.824  62.410 -0.5802 -0.2471 -0.2684
17041TIP3    H272615   3.201   2.717  62.467  0.0639  0.2814 -0.2857
17042TIP3   OH272616   0.170   1.554  44.839 -0.3257 -0.1980 -0.1826
17042TIP3    H172617   0.162   1.649  44.838 -1.1421 -0.2638 -0.5350
17042TIP3    H272618   0.177   1.531  44.932 -0.7362  0.1624 -0.0590
17043TIP3   OH272619   2.634   2.691  19.892  0.1795  0.1608 -0.3576
17043TIP3    H172620   2.606   2.611  19.936 -0.1511  1.0332  1.1055
17043TIP3    H272621   2.569   2.706  19.824 -1.9086  1.0560  1.6654
17044TIP3   OH272622   0.787   0.855  50.914  0.1419  0.0956  0.2241
17044TIP3    H172623   0.695   0.845  50.889 -0.1761  0.4576  1.2096
17044TIP3    H272624   0.836   0.840  50.832 -0.7510 -0.6435 -0.1981
17045TIP3   OH272625   1.197   1.894  67.259  0.3917  0.0974 -0.2422
17045TIP3    H172626   1.291   1.880  67.272  0.1364 -2.8829 -0.9500
17045TIP3    H272627   1.159   1.883  67.346  0.5168 -0.8664 -0.2987
17046TIP3   OH272628   1.790   3.138  57.027 -0.4001  0.8234  0.6334
17046TIP3    H172629   1.797   3.093  56.943 -2.6490 -2.3919  1.9570
17046TIP3    H272630   1.872   3.118  57.072  0.1028  1.0976 -0.1537
17047TIP3   OH272631   2.973   0.299  63.694 -0.2101  0.4081  0.0076
17047TIP3    H172632   2.974   0.273  63.602  1.4727 -0.8917  0.3470
17047TIP3    H272633   2.917   0.233  63.737  1.9378 -1.2555  0.4376
17048TIP3   OH272634   0.111   3.219  46.924 -0.1380  0.1220  0.1965
17048TIP3    H172635   0.048   3.286  46.898  0.0169  0.0378 -0.4016
17048TIP3    H272636   0.156   3.195  46.843 -1.4428 -2.0257  0.0308
17049TIP3   OH272637   1.857   1.070  17.391  0.2401  0.6135  0.0409
17049TIP3    H172638   1.837   1.054  17.299  0.6435 -0.3077  0.1009
17049TIP3    H272639   1.785   1.029  17.439  1.1144 -0.7962  0.1904
17050TIP3   OH272640   0.163   3.407   8.162  0.0815  0.1826 -0.1020
17050TIP3    H172641   0.142   3.314   8.149  2.1932 -0.7640  2.3629
17050TIP3    H272642   0.100   3.438   8.227  0.2392  0.0492  0.1176
17051TIP3   OH272643   2.068   0.152  61.864  0.1987  0.1853  0.1153
17051TIP3    H172644   1.977   0.142  61.890  0.3708  2.4302  1.8565
17051TIP3    H272645   2.064   0.204  61.783 -0.1048 -1.7783 -1.1826
17052TIP3   OH272646   2.048   2.550   5.431 -0.1313  0.0293 -0.1881
17052TIP3    H172647   1.980   2.563   5.365 -0.9657 -0.8185  0.4802
17052TIP3    H272648   2.128   2.531   5.381 -0.3879  0.9686 -0.9758
17053TIP3   OH272649   2.972   0.238   4.101 -0.4503  0.0713 -0.4742
17053TIP3    H172650   2.924   0.292   4.038 -1.1501 -0.2181 -0.2085
17053TIP3    H272651   2.920   0.245   4.182  0.1893  0.0821 -0.0590
17054TIP3   OH272652   0.748   1.459  19.446  0.1388 -0.3666  0.1037
17054TIP3    H172653   0.786   1.373  19.430  1.2341 -0.1567  1.3373
17054TIP3    H272654   0.664   1.441  19.487 -1.3144 -0.8496 -2.8484
17055TIP3   OH272655   0.789   0.977   0.884  0.0724 -0.2692  0.3736
17055TIP3    H172656   0.828   0.928   0.812  0.2197 -0.0525  0.3041
17055TIP3    H272657   0.713   1.021   0.844  0.7770  0.7162  0.0885
17056TIP3   OH272658   0.289   0.748  15.455  0.1704 -0.1215  0.2174
17056TIP3    H172659   0.242   0.697  15.389 -2.4342  4.2300 -1.7312
17056TIP3    H272660   0.249   0.722  15.538 -1.4114 -0.8634 -0.7395
17057TIP3   OH272661   1.745   1.753  25.798  0.4544 -0.3419  0.7467
17057TIP3    H172662   1.831   1.787  25.771 -0.1745  0.2015 -0.6589
17057TIP3    H272663   1.756   1.658  25.796  0.7436 -0.3013 -0.4754
17058TIP3   OH272664   3.369   1.508  20.346 -0.3461 -0.2304 -0.0819
17058TIP3    H172665   3.413   1.476  20.425  0.2219 -1.0837 -0.7254
17058TIP3    H272666   3.400   1.450  20.277 -1.4795 -0.0082 -0.7914
17059TIP3   OH272667   3.229   1.762  45.886 -0.8463  0.2815  0.3315
17059TIP3    H172668   3.140   1.766  45.851 -1.1423  1.9319  1.1768
17059TIP3    H272669   3.219   1.723  45.973 -0.8557  0.9593  0.6481
17060TIP3   OH272670   0.196   0.653  60.819  0.1685 -0.2794 -0.1654
17060TIP3    H172671   0.161   0.742  60.820 -0.9263 -0.6829 -0.7532
17060TIP3    H272672   0.204   0.631  60.726  0.0763 -0.9170 -0.0262
17061TIP3   OH272673   2.425   2.788  26.233  0.3065  0.3383  0.6997
17061TIP3    H172674   2.373   2.824  26.305  0.9039 -1.0361  1.8628
17061TIP3    H272675   2.366   2.725  26.191  0.2914  0.4099  0.6126
17062TIP3   OH272676   2.476   1.167  42.297  0.4679 -0.1383 -0.2359
17062TIP3    H172677   2.518   1.115  42.365  0.8553  1.4197  0.7660
17062TIP3    H272678   2.457   1.251  42.339  1.5237  1.2143 -2.2922
17063TIP3   OH272679   3.270   1.670   3.897  0.8717  0.1033 -0.0883
17063TIP3    H172680   3.331   1.596   3.897 -0.6574 -1.2050  0.3766
17063TIP3    H272681   3.221   1.661   3.978 -1.8412 -0.5683 -1.6839
17064TIP3   OH272682   2.283   0.235   9.786 -0.1443 -0.8574  0.0068
17064TIP3    H172683   2.245   0.312   9.743  1.8261  0.6711  0.8631
17064TIP3    H272684   2.300   0.263   9.876  1.5008 -1.9767  0.0887
17065TIP3   OH272685   0.764   0.258  17.361  0.8889  0.0058 -0.0748
17065TIP3    H172686   0.841   0.236  17.310  0.1179 -0.5129 -1.0476
17065TIP3    H272687   0.784   0.228  17.450  0.9456 -2.2118 -0.7879
17066TIP3   OH272688   0.882   2.744  56.688 -0.3161  0.2803 -0.1668
17066TIP3    H172689   0.847   2.831  56.670 -1.5581 -0.1128  0.2415
17066TIP3    H272690   0.886   2.701  56.602 -1.7424  0.0228 -0.1292
17067TIP3   OH272691   2.462   1.916   1.233  0.5381 -0.3743  0.2042
17067TIP3    H172692   2.433   1.885   1.148  0.4610 -0.7225  0.3569
17067TIP3    H272693   2.455   1.840   1.290 -0.3844  0.0974  0.7604
17068TIP3   OH272694   1.412   2.719   9.667  0.2112  0.5376 -0.3187
17068TIP3    H172695   1.399   2.784   9.736 -2.5482 -0.4135  0.1529
17068TIP3    H272696   1.380   2.762   9.588 -1.9722 -0.2985  0.0598
17069TIP3   OH272697   1.433   2.892  45.280  0.8236  0.5064  0.1745
17069TIP3    H172698   1.371   2.863  45.213  0.7117  2.6377 -0.7231
17069TIP3    H272699   1.517   2.854  45.253  0.6923  0.9605 -0.9422
17070TIP3   OH272700   0.598   3.339  43.343  0.3300  0.4055  0.3196
17070TIP3    H172701   0.559   3.395  43.276 -0.1253 -1.4382 -1.0165
17070TIP3    H272702   0.536   3.343  43.416 -1.7333 -1.3520 -1.2351
17071TIP3   OH272703   1.759   2.973  20.715  0.9781 -0.2540  0.3627
17071TIP3    H172704   1.850   3.003  20.719  0.7874  0.2634  0.8477
17071TIP3    H272705   1.707   3.052  20.704  0.6760 -0.6715 -1.5751
17072TIP3   OH272706   2.949   1.602  57.600  0.1147 -0.2258 -0.3256
17072TIP3    H172707   2.869   1.557  57.574 -0.6576 -0.1539  1.7242
17072TIP3    H272708   3.019   1.541  57.576 -0.6016 -0.6417 -1.4246
17073TIP3   OH272709   0.606   1.518  54.914  0.1123  0.1513 -0.2128
17073TIP3    H172710   0.640   1.455  54.849 -0.0829 -0.1194 -0.0554
17073TIP3    H272711   0.676   1.582  54.924  1.3727 -1.4185  1.5114
17074TIP3   OH272712   1.149   1.499  59.948 -1.0861  0.1755 -0.5043
17074TIP3    H172713   1.172   1.482  59.857  0.8118 -1.4704  0.2238
17074TIP3    H272714   1.070   1.447  59.964 -0.7599 -0.4436 -0.9052
17075TIP3   OH272715   1.788   0.396   3.463  0.1794  0.0189 -0.1780
17075TIP3    H172716   1.780   0.309   3.501 -1.9123  1.0896  2.1174
17075TIP3    H272717   1.855   0.387   3.394 -0.1164 -3.3693 -0.1531
17076TIP3   OH272718   2.694   3.364  49.444  0.0918  0.2713  0.3408
17076TIP3    H172719   2.630   3.364  49.372  0.1398 -2.8738  0.1704
17076TIP3    H272720   2.665   3.435  49.502 -1.5276  1.1352 -1.4063
17077TIP3   OH272721   2.023   1.096   5.745 -0.5938 -0.1036  0.0712
17077TIP3    H172722   2.108   1.087   5.787 -0.9203  0.4395  0.8861
17077TIP3    H272723   2.009   1.013   5.699  0.7992  0.1779 -0.9011
17078TIP3   OH272724   3.389   1.853  13.830  0.1029  0.3140  0.3604
17078TIP3    H172725   3.339   1.787  13.877  0.5771  0.6057  1.2812
17078TIP3    H272726   3.437   1.803  13.763 -0.0676 -0.1755  0.5966
17079TIP3   OH272727   0.775   0.687  43.636  0.1093 -0.7252 -0.0164
17079TIP3    H172728   0.713   0.615  43.647 -0.8052  0.0847  0.3048
17079TIP3    H272729   0.856   0.656  43.676 -0.2494 -1.5903  0.0597
17080TIP3   OH272730   0.996   1.367  45.449  0.4996 -0.0866  0.4047
17080TIP3    H172731   0.950   1.288  45.420  0.7984 -0.2112  0.2718
17080TIP3    H272732   0.927   1.434  45.453  0.3190 -0.2561  0.1422
17081TIP3   OH272733   0.260   3.190   9.754 -0.2892  0.0531 -0.1264
17081TIP3    H172734   0.347   3.210   9.788 -1.4108  2.4259  1.5564
17081TIP3    H272735   0.262   3.220   9.663  0.6750 -0.0314 -0.1418
17082TIP3   OH272736   3.186   0.443  15.147  0.6172  0.3529 -0.0448
17082TIP3    H172737   3.211   0.474  15.234 -0.2828 -2.4629  1.3498
17082TIP3    H272738   3.261   0.464  15.092  1.6947  1.2339  1.6546
17083TIP3   OH272739   1.893   1.249   9.032 -0.1783 -0.8312  0.2347
17083TIP3    H172740   1.862   1.193   9.103  0.3208 -2.8597 -1.0659
17083TIP3    H272741   1.831   1.322   9.030 -1.2157 -1.6294  1.6074
17084TIP3   OH272742   1.471   0.533  44.000  0.0029 -0.1763 -0.3091
17084TIP3    H172743   1.410   0.493  44.062  0.6922  1.2492  1.4130
17084TIP3    H272744   1.439   0.507  43.914 -2.0138 -0.8843  0.5832
17085TIP3   OH272745   2.370   1.567  19.790 -0.1822  0.0299  0.3357
17085TIP3    H172746   2.410   1.605  19.712  0.2053 -0.1982  0.4195
17085TIP3    H272747   2.436   1.579  19.859 -0.0634 -0.7688  0.3690
17086TIP3   OH272748   1.586   0.277  62.754  0.1100  0.0082  0.1839
17086TIP3    H172749   1.679   0.295  62.763  0.2018  0.5959 -1.6090
17086TIP3    H272750   1.581   0.186  62.727  0.0684 -0.3800  1.4183
17087TIP3   OH272751   0.672   0.208  63.248 -0.0484  0.7192  0.1881
17087TIP3    H172752   0.736   0.245  63.188 -0.3599  1.4026  0.2732
17087TIP3    H272753   0.682   0.259  63.328  0.9572 -0.7363  1.0353
17088TIP3   OH272754   0.854   2.120  12.986 -0.5386  0.1727  0.0788
17088TIP3    H172755   0.915   2.095  12.916 -1.3092  1.2912 -1.0328
17088TIP3    H272756   0.780   2.159  12.940 -0.3700  2.4727  1.5898
17089TIP3   OH272757   3.260   2.207  14.936  0.4002  0.3440 -0.1261
17089TIP3    H172758   3.176   2.166  14.916  0.2852 -0.0940  1.1526
17089TIP3    H272759   3.324   2.138  14.922  0.6966  0.9437 -2.0486
17090TIP3   OH272760   2.276   1.916  42.377 -0.4990  0.2143 -0.4748
17090TIP3    H172761   2.313   1.852  42.318 -1.8388 -0.8207 -0.2526
17090TIP3    H272762   2.181   1.909  42.364 -0.7477  1.0645  0.6634
17091TIP3   OH272763   1.975   0.191  11.297 -0.0515  1.1092 -0.2792
17091TIP3    H172764   1.989   0.278  11.259  0.9077  0.4481 -1.5206
17091TIP3    H272765   2.063   0.160  11.318  0.0333 -0.8664 -2.9617
17092TIP3   OH272766   0.395   3.444  10.118  0.0753  0.1756 -0.1754
17092TIP3    H172767   0.429   3.433  10.029  2.1262 -2.5656  0.8023
17092TIP3    H272768   0.465   3.491  10.164  0.0380 -0.3987  0.4834
17093TIP3   OH272769   1.338   0.655   8.212  0.2093 -0.4583  0.2903
17093TIP3    H172770   1.411   0.595   8.226 -0.5460 -1.3369  0.6192
17093TIP3    H272771   1.282   0.610   8.148 -0.2649 -0.0062  0.3779
17094TIP3   OH272772   2.836   1.408  16.900 -0.1826  0.7395  0.2619
17094TIP3    H172773   2.799   1.326  16.934 -0.2453 -0.6569 -2.8311
17094TIP3    H272774   2.919   1.382  16.860  0.9717  2.6690  1.2380
17095TIP3   OH272775   1.458   1.591  37.142  0.4418 -0.6100  0.2498
17095TIP3    H172776   1.541   1.597  37.094  0.9944 -0.3442  1.2219
17095TIP3    H272777   1.480   1.545  37.223 -0.2030  0.1062  0.8411
17096TIP3   OH272778   1.075   1.068  34.662  0.0655  0.4584  0.4962
17096TIP3    H172779   1.159   1.047  34.621 -0.3344 -1.8264  0.6978
17096TIP3    H272780   1.078   1.163  34.675  1.8357  0.7008 -1.1646
17097TIP3   OH272781   0.458   1.040  64.473 -0.0549  0.4412  0.6230
17097TIP3    H172782   0.513   1.086  64.409 -0.4212  0.4448  0.3056
17097TIP3    H272783   0.465   1.092  64.553  0.8650  0.1264  0.7679
17098TIP3   OH272784   3.166   1.615   7.595  0.7422 -0.5610 -0.1063
17098TIP3    H172785   3.145   1.696   7.642  0.6552 -0.8580  0.3826
17098TIP3    H272786   3.098   1.554   7.623  0.1459 -0.4855 -1.3429
17099TIP3   OH272787   2.466   0.725  54.173 -0.2210 -0.3932  0.1592
17099TIP3    H172788   2.375   0.733  54.202 -0.4026 -1.2273 -0.1313
17099TIP3    H272789   2.464   0.748  54.080  0.2911  1.8907  0.6594
17100TIP3   OH272790   1.756   1.906  11.379 -0.0567  0.1900  0.2195
17100TIP3    H172791   1.817   1.938  11.446 -1.2818  0.9043  1.0503
17100TIP3    H272792   1.727   1.985  11.334 -2.0444  0.1601  1.3468
17101TIP3   OH272793   1.236   1.067  49.351  0.4207  0.1831 -0.4239
17101TIP3    H172794   1.314   1.018  49.377  0.9961  0.2479 -1.9208
17101TIP3    H272795   1.270   1.148  49.313 -0.3477  0.0915 -1.3537
17102TIP3   OH272796   0.252   2.776  47.154  0.5977 -0.0086  0.4953
17102TIP3    H172797   0.220   2.842  47.092  0.3073 -0.2809  0.3520
17102TIP3    H272798   0.254   2.695  47.103 -0.5214 -0.4297  1.0797
17103TIP3   OH272799   3.366   0.469  60.732 -0.2045 -0.0958 -0.2827
17103TIP3    H172800   3.325   0.545  60.775 -1.0005 -0.8719  0.3755
17103TIP3    H272801   3.302   0.399  60.742  1.2081 -1.3073  0.6118
17104TIP3   OH272802   0.035   0.765   9.748  0.0770 -0.1491 -0.3465
17104TIP3    H172803   0.016   0.742   9.657  0.0465 -2.1414  0.1075
17104TIP3    H272804  -0.036   0.824   9.773 -1.2874 -1.4618 -0.9405
17105TIP3   OH272805   1.960   0.732   8.007  1.2393  0.4532  0.4803
17105TIP3    H172806   1.866   0.752   8.005  0.5626 -2.2843  1.0602
17105TIP3    H272807   1.985   0.747   8.098  1.1882  0.4621  0.4936
17106TIP3   OH272808   0.703   0.239   1.262  0.1070  0.3325 -0.2855
17106TIP3    H172809   0.650   0.237   1.342  0.5553  1.2622  0.0486
17106TIP3    H272810   0.757   0.317   1.271  0.7894 -0.0300 -1.1035
17107TIP3   OH272811   2.964   2.828  66.065 -0.0829  0.0782 -0.0325
17107TIP3    H172812   2.983   2.742  66.028  0.1086 -1.1828  2.6963
17107TIP3    H272813   3.002   2.824  66.153  1.2228  3.5200 -0.3063
17108TIP3   OH272814   2.952   3.122  58.629 -0.3245 -0.2589  0.1090
17108TIP3    H172815   2.963   3.213  58.655 -0.8844 -0.7111  2.1171
17108TIP3    H272816   2.991   3.117  58.542 -0.4653  1.9243 -0.1306
17109TIP3   OH272817   1.190   1.186  12.727 -0.6916 -0.0752  0.1792
17109TIP3    H172818   1.103   1.146  12.726 -1.0942  0.7645  0.0388
17109TIP3    H272819   1.235   1.147  12.652 -1.9379  1.4931 -1.5033
17110TIP3   OH272820   0.666   3.239  34.886  0.1200 -0.4761  0.1507
17110TIP3    H172821   0.704   3.153  34.904  1.3386  0.0322  0.1085
17110TIP3    H272822   0.635   3.269  34.972  1.5285 -0.1194  0.5699
17111TIP3   OH272823   1.127   0.764  50.187  0.5387 -0.4270  0.0061
17111TIP3    H172824   1.100   0.676  50.214  1.3852 -0.6175  0.2312
17111TIP3    H272825   1.173   0.751  50.104  0.5445 -0.1784 -0.0317
17112TIP3   OH272826   1.302   1.001  37.053 -0.1148 -0.4061 -0.2867
17112TIP3    H172827   1.208   1.019  37.058  0.1990  1.4515 -0.2024
17112TIP3    H272828   1.333   1.055  36.980  1.3003  1.2254  1.4115
17113TIP3   OH272829   1.456   0.526  57.016 -0.1129 -0.2332 -0.5812
17113TIP3    H172830   1.434   0.462  56.948 -2.0733 -0.7130  0.4356
17113TIP3    H272831   1.386   0.591  57.011  0.3604  0.3539  0.2388
17114TIP3   OH272832   0.821   2.638  21.523 -0.2883 -0.4160  0.4793
17114TIP3    H172833   0.894   2.577  21.507  0.5504  0.4999  0.7154
17114TIP3    H272834   0.765   2.629  21.446  0.5736 -0.4448 -0.1592
17115TIP3   OH272835   0.904   2.263  11.228  0.6694 -0.0306 -0.2464
17115TIP3    H172836   0.987   2.242  11.270  1.0036  1.1931 -0.2565
17115TIP3    H272837   0.840   2.206  11.271  1.1648  0.5238  1.3023
17116TIP3   OH272838   1.447   1.339  47.023 -0.3657 -0.0323 -0.4103
17116TIP3    H172839   1.357   1.353  46.993 -0.6496 -1.8313 -0.5184
17116TIP3    H272840   1.472   1.255  46.984  1.7417  0.9227 -1.2077
17117TIP3   OH272841   1.598   3.180  47.470 -0.9383 -0.2978 -0.3755
17117TIP3    H172842   1.661   3.251  47.479 -0.5785 -0.5659 -0.7491
17117TIP3    H272843   1.519   3.212  47.514 -0.1903 -0.4184  1.1405
17118TIP3   OH272844   0.433   2.135  58.831 -0.2332 -0.6013  0.1367
17118TIP3    H172845   0.404   2.182  58.753 -0.2316 -3.0403 -1.4368
17118TIP3    H272846   0.353   2.126  58.884 -0.0832  1.7164  0.8620
17119TIP3   OH272847   2.140   1.301  59.276  0.0994 -0.1225  0.6158
17119TIP3    H172848   2.147   1.304  59.371 -1.5045  1.0484  0.7338
17119TIP3    H272849   2.046   1.305  59.258  0.4074  0.7551 -1.0312
17120TIP3   OH272850   2.648   2.268  25.608  0.4951  0.3696 -0.1847
17120TIP3    H172851   2.732   2.289  25.648  1.2357 -0.0717 -1.4406
17120TIP3    H272852   2.583   2.291  25.674  1.2859  4.7558 -0.6599
17121TIP3   OH272853   3.251   0.668  27.972 -0.2574  0.5930  0.4224
17121TIP3    H172854   3.245   0.584  27.928 -0.9569  1.0191 -0.3263
17121TIP3    H272855   3.221   0.650  28.062 -0.9286  0.1428  0.1204
17122TIP3   OH272856   2.952   0.770  12.094 -0.6153  0.3947 -0.0292
17122TIP3    H172857   2.896   0.699  12.062  0.1039 -1.5205  2.5882
17122TIP3    H272858   3.037   0.754  12.052 -1.0321  1.1308 -1.1996
17123TIP3   OH272859   3.256   1.893  66.146  0.3415 -0.3736 -0.5034
17123TIP3    H172860   3.287   1.817  66.194 -1.0225 -0.5028  0.2232
17123TIP3    H272861   3.202   1.857  66.075 -0.1589 -0.1087 -0.2674
17124TIP3   OH272862   2.808   0.958  61.159 -0.1312 -0.4872 -0.1858
17124TIP3    H172863   2.735   0.926  61.212 -0.4692 -0.7697 -0.7964
17124TIP3    H272864   2.882   0.905  61.185  0.1670  0.5849  1.2854
17125TIP3   OH272865   3.274   1.717  56.411 -0.3513  0.3933 -0.1198
17125TIP3    H172866   3.309   1.794  56.454 -0.1470  0.5289 -0.5259
17125TIP3    H272867   3.228   1.670  56.481  0.0287  0.5755  0.2625
17126TIP3   OH272868   2.793   2.209  43.681  0.0626  0.1576 -0.2102
17126TIP3    H172869   2.832   2.135  43.728 -0.1470  0.1954  0.0259
17126TIP3    H272870   2.867   2.254  43.640  0.0661 -0.9747 -1.5014
17127TIP3   OH272871   0.361   0.894  50.280 -0.2281 -0.3415 -0.0264
17127TIP3    H172872   0.446   0.891  50.238 -0.4772  1.0071 -0.6579
17127TIP3    H272873   0.320   0.810  50.258  0.4886 -0.5292 -0.6673
17128TIP3   OH272874   1.712   2.509  64.855  0.0370 -0.4109  0.1249
17128TIP3    H172875   1.719   2.473  64.943 -1.4178 -2.2567 -0.4372
17128TIP3    H272876   1.638   2.570  64.859  0.2892 -0.1207  0.3033
17129TIP3   OH272877   3.406   0.802   4.028 -0.2570  0.5954  0.5212
17129TIP3    H172878   3.380   0.715   3.999  0.8989 -0.4149  2.3502
17129TIP3    H272879   3.454   0.838   3.953 -1.1030 -0.1357 -0.4046
17130TIP3   OH272880   2.175   2.997   0.256  0.2942  0.6255  0.1236
17130TIP3    H172881   2.126   2.993   0.174  0.5356  1.6841 -0.0835
17130TIP3    H272882   2.111   2.973   0.324  0.1994 -0.6859 -0.3899
17131TIP3   OH272883   0.513   1.978  15.047  0.0462 -0.1482 -0.0271
17131TIP3    H172884   0.561   1.896  15.035  0.9972  0.4834 -0.6478
17131TIP3    H272885   0.431   1.965  14.999  0.1163 -0.7948  0.0177
17132TIP3   OH272886   0.994   0.742  14.098 -1.0097  0.2131 -0.0676
17132TIP3    H172887   0.989   0.660  14.146  0.2244  1.5466  2.5939
17132TIP3    H272888   1.084   0.745  14.064 -1.7133 -0.4752 -2.1798
17133TIP3   OH272889   1.843   3.133  50.326  0.2478 -0.5909 -0.2097
17133TIP3    H172890   1.894   3.053  50.323 -1.2914 -1.7174  1.4803
17133TIP3    H272891   1.813   3.140  50.416 -0.6551  1.2518 -0.5836
17134TIP3   OH272892   2.360   1.879  60.654  0.6924 -0.0116 -0.6985
17134TIP3    H172893   2.442   1.898  60.610  1.3758  1.3861  1.0397
17134TIP3    H272894   2.385   1.819  60.725  0.0807 -0.2173 -0.6542
17135TIP3   OH272895   3.276   2.132   2.260 -0.8555 -0.0700  0.0049
17135TIP3    H172896   3.248   2.132   2.351  2.0846 -0.7161  1.0291
17135TIP3    H272897   3.331   2.210   2.252  1.8169 -1.8151 -0.0951
17136TIP3   OH272898   0.221   0.515  56.100  0.1641  0.1922  0.2062
17136TIP3    H172899   0.210   0.480  56.188  1.0296 -2.3467 -0.6133
17136TIP3    H272900   0.283   0.455  56.058 -3.3232 -1.2227 -3.4890
17137TIP3   OH272901   1.091   1.464  62.398 -0.2195  0.1431  0.5694
17137TIP3    H172902   1.130   1.550  62.387  0.7667 -0.5177 -2.0269
17137TIP3    H272903   1.166   1.404  62.405 -0.8553 -0.6260  0.9556
17138TIP3   OH272904   3.056   1.702  62.338  0.5684  0.5458  1.1113
17138TIP3    H172905   2.963   1.720  62.323  0.7056  0.4470  0.0740
17138TIP3    H272906   3.099   1.729  62.256  1.2917 -0.5942  1.0989
17139TIP3   OH272907   0.271   3.322  16.598 -0.5588 -0.5500 -0.1556
17139TIP3    H172908   0.341   3.258  16.585 -1.8224 -2.6093  2.3089
17139TIP3    H272909   0.282   3.353  16.688 -1.6347  0.6303 -0.3943
17140TIP3   OH272910   0.241   2.043  58.500  0.2178  0.2241 -0.0612
17140TIP3    H172911   0.245   2.132  58.464 -1.6320 -0.6644 -2.8435
17140TIP3    H272912   0.167   2.046  58.561  1.0172  0.8711  0.9070
17141TIP3   OH272913   1.422   0.964   2.078 -0.8182  0.3434 -0.5132
17141TIP3    H172914   1.494   0.970   2.015  0.4020  1.9372  0.9411
17141TIP3    H272915   1.362   1.034   2.053 -0.2725  1.0548  0.1665
17142TIP3   OH272916   3.312   1.037  12.061  0.4220 -0.1481 -0.4751
17142TIP3    H172917   3.304   0.942  12.051 -0.1165  0.0341 -2.1062
17142TIP3    H272918   3.251   1.060  12.131  0.2731 -0.9585 -0.3368
17143TIP3   OH272919   0.484   1.271  57.164 -0.4431  0.3063  0.6112
17143TIP3    H172920   0.571   1.238  57.139  0.0894  2.3908 -0.5017
17143TIP3    H272921   0.503   1.341  57.226 -1.5341 -1.2175  2.7931
17144TIP3   OH272922   3.098   2.030  10.575  0.1757 -0.9611 -0.3373
17144TIP3    H172923   3.013   2.066  10.599  0.0503 -1.3162 -0.2465
17144TIP3    H272924   3.147   2.027  10.658  0.6041  0.0940 -0.5341
17145TIP3   OH272925   1.065   1.514  47.786  0.2548 -0.1902 -0.2983
17145TIP3    H172926   1.143   1.552  47.825 -0.4776  1.6798 -0.5677
17145TIP3    H272927   1.038   1.577  47.719 -0.5590 -1.5829 -1.3464
17146TIP3   OH272928   0.751   0.428  51.598 -0.2538  0.2379 -0.0381
17146TIP3    H172929   0.750   0.519  51.628  1.9781  1.0820 -2.1459
17146TIP3    H272930   0.730   0.433  51.505 -0.7024 -1.5027 -0.0665
17147TIP3   OH272931   1.485   2.864   2.946  0.0292  0.5841  0.3758
17147TIP3    H172932   1.534   2.853   3.027  2.6605  0.5657 -1.1136
17147TIP3    H272933   1.469   2.959   2.940 -1.2047  0.4600  1.4372
17148TIP3   OH272934   2.671   2.800   8.464 -0.1945 -0.3597 -0.0663
17148TIP3    H172935   2.705   2.755   8.387 -2.2842  0.0405 -1.3215
17148TIP3    H272936   2.644   2.729   8.522 -0.0501 -0.6944 -0.3998
17149TIP3   OH272937   1.912   2.152   8.339 -0.2505 -0.4142  0.1223
17149TIP3    H172938   1.893   2.124   8.249  1.0094 -1.6470  0.1948
17149TIP3    H272939   1.964   2.080   8.375 -0.2908  0.3030  1.6783
17150TIP3   OH272940   2.386   0.571  56.496  0.5266 -0.0541 -0.2324
17150TIP3    H172941   2.459   0.509  56.493  0.4230 -0.1914  0.0444
17150TIP3    H272942   2.412   0.636  56.561  0.9119  0.5526 -0.9826
17151TIP3   OH272943   1.506   1.592  58.716  0.0866  0.3822 -0.0534
17151TIP3    H172944   1.484   1.528  58.783  1.1422 -0.0075 -0.0688
17151TIP3    H272945   1.470   1.555  58.635  2.5341 -1.3210 -0.4726
17152TIP3   OH272946   1.772   0.648  52.646 -0.5539 -0.5163 -0.0336
17152TIP3    H172947   1.715   0.596  52.703 -0.6093 -0.1009  0.2897
17152TIP3    H272948   1.786   0.592  52.569 -0.4226 -1.1113  0.4115
17153TIP3   OH272949   3.115   3.396  50.571 -0.1455 -0.1932 -0.0354
17153TIP3    H172950   3.167   3.334  50.519  0.4962 -0.7766  1.2660
17153TIP3    H272951   3.029   3.395  50.528  0.5668 -0.0656 -1.5431
17154TIP3   OH272952   2.149   1.375   9.757 -0.0689  0.3142  0.6248
17154TIP3    H172953   2.192   1.453   9.790  0.6597  0.3011 -0.2502
17154TIP3    H272954   2.209   1.340   9.691 -0.3257 -1.0381  1.0604
17155TIP3   OH272955   2.639   1.060  31.441  1.2154 -0.4199 -0.0597
17155TIP3    H172956   2.627   1.152  31.417  1.7649 -0.1745  0.5865
17155TIP3    H272957   2.609   1.055  31.531 -1.2240 -1.4255 -0.8502
17156TIP3   OH272958   2.441   3.172  43.772  0.1263  0.4075 -0.4600
17156TIP3    H172959   2.489   3.092  43.751  0.1091  0.0615  0.7801
17156TIP3    H272960   2.509   3.238  43.784  0.4523 -0.3104  2.3216
17157TIP3   OH272961   2.497   1.049  30.906  0.5434 -0.1437 -0.0021
17157TIP3    H172962   2.464   0.972  30.952  1.0039 -1.8027 -2.2726
17157TIP3    H272963   2.578   1.072  30.953  0.3252 -0.9580  0.7936
17158TIP3   OH272964   2.903   0.291  49.717  0.2362  0.4449 -0.1638
17158TIP3    H172965   2.979   0.255  49.672  1.2309 -0.9747  2.4522
17158TIP3    H272966   2.849   0.328  49.647  1.9224 -1.1075 -2.4227
17159TIP3   OH272967   0.574   2.980  64.749  0.0256 -0.1628 -0.1136
17159TIP3    H172968   0.484   2.959  64.776  0.0416  0.5055  0.4683
17159TIP3    H272969   0.577   2.953  64.657 -0.0268 -2.4602  0.4974
17160TIP3   OH272970   1.294   2.959  18.939  0.3250 -0.1402 -0.0318
17160TIP3    H172971   1.341   3.030  18.981  0.3346  0.0369 -0.3357
17160TIP3    H272972   1.357   2.888  18.932  0.7596  0.3227 -1.0395
17161TIP3   OH272973   0.369   2.941  59.815 -0.2571 -0.5220  0.5503
17161TIP3    H172974   0.342   3.032  59.801  1.9402  0.2902  1.1541
17161TIP3    H272975   0.395   2.910  59.728  1.0904  0.1965  0.6750
17162TIP3   OH272976   2.042   1.016   0.574 -0.1790  0.6477 -0.3291
17162TIP3    H172977   2.017   0.952   0.641 -0.1396 -1.4377 -2.1914
17162TIP3    H272978   2.138   1.015   0.574 -0.1708  1.1417  0.0158
17163TIP3   OH272979   3.227   0.657  59.545 -0.3512 -0.1173 -0.3921
17163TIP3    H172980   3.178   0.652  59.463 -1.9157  0.3382  0.4675
17163TIP3    H272981   3.176   0.718  59.599  0.4150 -0.7192  1.0624
17164TIP3   OH272982   2.656   0.424   2.491 -0.2971 -0.0944  0.1207
17164TIP3    H172983   2.619   0.439   2.404 -0.8008  0.1820  0.3843
17164TIP3    H272984   2.735   0.371   2.474  0.2625  0.9345 -0.6128
17165TIP3   OH272985   2.427   3.020  12.732  0.0010 -0.2790  0.1717
17165TIP3    H172986   2.502   3.021  12.673 -0.6265 -1.2591 -0.6731
17165TIP3    H272987   2.466   3.024  12.820  1.0891 -1.4712 -0.2281
17166TIP3   OH272988   0.145   0.490  19.312 -0.0313 -0.0262  0.1989
17166TIP3    H172989   0.205   0.431  19.357  1.8117  1.8040  0.2850
17166TIP3    H272990   0.107   0.543  19.382  0.3764  0.6469 -0.0758
17167TIP3   OH272991   0.743   0.452   0.504  0.0054 -0.1595 -0.0878
17167TIP3    H172992   0.648   0.461   0.504  0.0410  0.2669 -0.3642
17167TIP3    H272993   0.763   0.404   0.584 -0.5759 -1.8074 -0.8849
17168TIP3   OH272994   2.579   0.322  14.980 -0.4319 -0.0310  0.3629
17168TIP3    H172995   2.597   0.387  14.913  1.7169 -1.7528 -0.8629
17168TIP3    H272996   2.571   0.373  15.061 -0.9744  1.9064 -0.8490
17169TIP3   OH272997   2.190   2.263   9.574 -0.1084  0.0231  0.4412
17169TIP3    H172998   2.103   2.300   9.558 -0.0713  0.4147  1.0876
17169TIP3    H272999   2.201   2.197   9.506 -1.1834 -0.4939  0.7461
17170TIP3   OH273000   2.323   1.776  26.530  0.2102  0.1925 -0.0139
17170TIP3    H173001   2.368   1.706  26.482  0.0323 -0.5962  0.9591
17170TIP3    H273002   2.235   1.744  26.544  0.0121  0.7749  0.1115
17171TIP3   OH273003   0.056   3.345  43.821  0.0094 -0.1044 -0.6015
17171TIP3    H173004   0.052   3.255  43.789  1.0992 -0.5406  0.4209
17171TIP3    H273005  -0.025   3.357  43.869 -0.6922 -0.1211 -1.7361
17172TIP3   OH273006   1.094   3.030  51.094 -0.0895 -0.1463  0.2168
17172TIP3    H173007   1.161   3.021  51.027  0.3285 -0.2328  0.6424
17172TIP3    H273008   1.075   2.940  51.121  0.0112 -0.0919  0.4739
17173TIP3   OH273009   0.469   3.365   0.154 -0.3331  0.1991 -0.2325
17173TIP3    H173010   0.546   3.339   0.103 -0.5310  1.0659 -0.9845
17173TIP3    H273011   0.419   3.422   0.096  0.7438  3.4369  1.7410
17174TIP3   OH273012   3.179   2.134  18.285 -0.1034  0.6917  0.1834
17174TIP3    H173013   3.155   2.143  18.377 -0.1734 -1.6316  0.4536
17174TIP3    H273014   3.274   2.148  18.283 -0.1266  0.9091  0.5950
17175TIP3   OH273015   0.481   0.733   7.641  0.7456  0.2932 -0.2026
17175TIP3    H173016   0.387   0.748   7.644  1.0032  2.0432  0.0950
17175TIP3    H273017   0.491   0.655   7.587 -0.9270 -0.6446  0.7395
17176TIP3   OH273018   2.523   2.083  60.370  0.1181 -0.2069 -0.4519
17176TIP3    H173019   2.492   2.166  60.333  1.8879  0.1766 -1.1929
17176TIP3    H273020   2.456   2.019  60.344  0.4036  0.3750 -2.9067
17177TIP3   OH273021   1.452   3.049   7.381 -0.1415  0.0780  0.3428
17177TIP3    H173022   1.502   2.969   7.399  0.8285  0.4954 -0.4214
17177TIP3    H273023   1.371   3.017   7.341  0.2730 -0.5357 -0.0306
17178TIP3   OH273024   1.887   3.239  66.815 -0.8250  0.3715  0.0496
17178TIP3    H173025   1.793   3.243  66.796 -1.0496 -1.7052  0.4071
17178TIP3    H273026   1.898   3.294  66.893 -1.9815 -0.2176  0.6634
17179TIP3   OH273027   0.741   3.416  46.159  0.1468 -0.0909  0.6829
17179TIP3    H173028   0.757   3.338  46.105  0.4886 -0.0977  0.7949
17179TIP3    H273029   0.803   3.408  46.231  0.1665  0.2744  0.7084
17180TIP3   OH273030   1.204   0.692  43.332 -0.3397  0.4237  0.5208
17180TIP3    H173031   1.243   0.658  43.252 -0.0822  0.7065  0.5254
17180TIP3    H273032   1.235   0.783  43.337 -0.1768  0.3419  1.0493
17181TIP3   OH273033   2.200   2.342  61.670  0.1669  0.3981 -0.2933
17181TIP3    H173034   2.231   2.278  61.734 -0.5818  1.7024  1.4991
17181TIP3    H273035   2.105   2.331  61.670  0.0463  1.3051 -0.1385
17182TIP3   OH273036   1.029   2.616   6.535 -0.2990 -0.2493  0.2667
17182TIP3    H173037   1.007   2.586   6.446 -1.0941  0.5415  0.1805
17182TIP3    H273038   1.095   2.684   6.522  0.3990 -0.9071  0.3590
17183TIP3   OH273039   2.194   3.384  50.134  0.2561 -0.3358  0.3424
17183TIP3    H173040   2.120   3.444  50.131  1.4088  1.2088  1.4948
17183TIP3    H273041   2.269   3.438  50.161  1.6147 -2.0237  0.1579
17184TIP3   OH273042   2.715   0.507  46.255 -0.1526  0.0733 -0.0234
17184TIP3    H173043   2.668   0.528  46.336 -0.6175 -0.7839 -0.0685
17184TIP3    H273044   2.774   0.582  46.243 -0.4835  0.4895  0.7924
17185TIP3   OH273045   2.061   1.848  62.753 -0.0136 -0.0743  0.0748
17185TIP3    H173046   2.028   1.773  62.803 -1.0065  0.1614 -0.2094
17185TIP3    H273047   2.072   1.917  62.818 -0.7890  0.0666  0.0651
17186TIP3   OH273048   0.632   3.055   4.006  0.2079  0.4842  0.4663
17186TIP3    H173049   0.573   3.060   4.081  0.0971  0.2155  0.3995
17186TIP3    H273050   0.578   3.021   3.935  0.9003 -1.7570  0.9246
17187TIP3   OH273051   0.438   3.001   3.812 -0.3877 -0.0054  0.2730
17187TIP3    H173052   0.442   2.964   3.724  1.6647  0.5649  0.0648
17187TIP3    H273053   0.390   3.083   3.801  0.8921  0.6544 -0.5744
17188TIP3   OH273054   2.751   0.824  48.500  0.2043 -0.3607  0.5462
17188TIP3    H173055   2.805   0.760  48.455  3.9871  2.3936  0.6932
17188TIP3    H273056   2.701   0.867  48.430  0.9152 -0.6087 -0.1211
17189TIP3   OH273057   3.297   1.153  53.898  0.3096 -0.1042 -0.4956
17189TIP3    H173058   3.279   1.128  53.988 -1.4142  0.1653 -0.7405
17189TIP3    H273059   3.296   1.071  53.849  1.3227 -0.2589 -0.2720
17190TIP3   OH273060   2.614   0.352   9.055 -0.4821  0.4990  0.2383
17190TIP3    H173061   2.649   0.290   9.119 -1.6167  1.0583  1.4473
17190TIP3    H273062   2.691   0.386   9.009  0.5034  0.9401  2.1127
17191TIP3   OH273063   2.322   1.108  43.999 -0.0342  0.0533  0.1599
17191TIP3    H173064   2.359   1.103  43.911 -0.0407 -1.3101  0.1970
17191TIP3    H273065   2.266   1.030  44.005  0.0607  0.0651  1.4139
17192TIP3   OH273066   0.787   3.135  17.334  0.4561  0.1907  0.5558
17192TIP3    H173067   0.717   3.080  17.300  0.9284 -1.1578  1.6729
17192TIP3    H273068   0.861   3.120  17.275  0.6749 -0.6325  1.0256
17193TIP3   OH273069   2.263   0.266  65.574 -0.0987 -0.5728  0.0813
17193TIP3    H173070   2.337   0.326  65.567  1.8694 -2.9838 -1.0391
17193TIP3    H273071   2.187   0.318  65.549  1.0039  2.2212  2.0461
17194TIP3   OH273072   2.757   1.508   9.972  0.1040 -0.3270  0.2129
17194TIP3    H173073   2.804   1.583  10.008  1.6044 -1.1085 -0.0788
17194TIP3    H273074   2.804   1.432  10.005 -1.1653 -1.1550  0.1873
17195TIP3   OH273075   0.589   2.630  42.625  0.0732  0.1757  0.1039
17195TIP3    H173076   0.534   2.660  42.698  1.8182  0.7637  1.2629
17195TIP3    H273077   0.663   2.692  42.624  0.1595  0.1170 -2.1235
17196TIP3   OH273078   1.232   2.475  58.141 -0.2111  0.1426 -0.5169
17196TIP3    H173079   1.248   2.414  58.213 -0.3708 -0.2924 -0.8463
17196TIP3    H273080   1.286   2.552  58.162 -0.0031 -0.1139 -0.1049
17197TIP3   OH273081   1.162   2.869  60.454  0.5505 -0.3569  0.2955
17197TIP3    H173082   1.103   2.905  60.388  1.4318 -1.2789 -1.0462
17197TIP3    H273083   1.111   2.800  60.496 -0.4732  1.0946  1.5427
17198TIP3   OH273084   1.212   2.828   3.334 -0.1367  1.0569  0.1507
17198TIP3    H173085   1.157   2.814   3.256  0.2637  1.2750 -0.1779
17198TIP3    H273086   1.169   2.779   3.403  0.9927 -1.5266 -0.8294
17199TIP3   OH273087   1.022   2.690  15.899 -0.1134  0.2344  0.2780
17199TIP3    H173088   1.020   2.629  15.973 -1.1754 -0.1662 -0.0561
17199TIP3    H273089   0.975   2.767  15.930 -0.5424  0.0735  0.0287
17200TIP3   OH273090   1.279   1.361  56.052  0.2996  0.2630 -0.0357
17200TIP3    H173091   1.289   1.384  55.960  0.7689  0.7939  0.1430
17200TIP3    H273092   1.184   1.357  56.066  0.1712 -2.1609 -1.0959
17201TIP3   OH273093   1.793   0.523  57.621  0.1358 -0.1751 -0.0400
17201TIP3    H173094   1.727   0.454  57.617 -0.7227  0.6290  0.0117
17201TIP3    H273095   1.788   0.556  57.711 -0.5455  0.9814 -0.4874
17202TIP3   OH273096   0.594   0.165  21.862 -0.0782  0.0627  0.2202
17202TIP3    H173097   0.562   0.152  21.951 -2.0519 -1.1891 -0.6108
17202TIP3    H273098   0.602   0.260  21.853  1.4449  0.1783  2.1125
17203TIP3   OH273099   2.164   0.561  60.983  0.1383  0.0108  0.5780
17203TIP3    H173100   2.222   0.564  60.907 -1.5421 -1.3633 -0.8402
17203TIP3    H273101   2.117   0.644  60.980  1.2906  0.7171  1.1836
17204TIP3   OH273102   0.031   1.412  60.285 -0.4035 -0.2277  0.2606
17204TIP3    H173103  -0.062   1.392  60.291 -0.0698 -1.6274  1.3913
17204TIP3    H273104   0.067   1.341  60.231  0.5504 -1.9951  2.9827
17205TIP3   OH273105   2.929   0.845  51.286 -0.2099 -1.0427  0.2814
17205TIP3    H173106   2.873   0.863  51.210  1.1892  0.3674 -0.4773
17205TIP3    H273107   3.016   0.873  51.259  0.6721 -2.1288  1.8273
17206TIP3   OH273108   0.461   1.978  64.644  0.1262 -0.0026  0.6579
17206TIP3    H173109   0.511   1.907  64.684 -0.5563  0.9264  3.3506
17206TIP3    H273110   0.369   1.957  64.664 -0.1713  0.9690  0.3416
17207TIP3   OH273111   3.122   0.745  46.447  0.2030  0.0396 -0.2224
17207TIP3    H173112   3.081   0.784  46.525 -1.6086  0.5564 -1.3632
17207TIP3    H273113   3.079   0.660  46.438 -2.7609  1.5730 -2.8459
17208TIP3   OH273114   1.186   0.646  65.336  0.3543  0.3785  0.1123
17208TIP3    H173115   1.251   0.631  65.404 -2.6264 -2.0971  2.7451
17208TIP3    H273116   1.201   0.577  65.272  0.8700  0.3796  0.2349
17209TIP3   OH273117   2.562   2.252   0.096 -0.5854 -0.0478  0.1092
17209TIP3    H173118   2.500   2.204   0.042  0.7188  0.5448 -2.0436
17209TIP3    H273119   2.570   2.338   0.054  0.3915  0.5088  1.3404
17210TIP3   OH273120   0.348   1.143  60.829 -0.1549 -0.0424  0.5891
17210TIP3    H173121   0.374   1.176  60.743 -0.0584  0.1641  0.6970
17210TIP3    H273122   0.258   1.175  60.840 -2.0566 -3.9903 -1.4732
17211TIP3   OH273123   2.475   2.424  57.987 -0.1434  0.5157 -0.5276
17211TIP3    H173124   2.549   2.459  57.937 -0.9566  2.6284 -0.3255
17211TIP3    H273125   2.516   2.369  58.054  1.2568  1.5636 -0.4860
17212TIP3   OH273126   2.109   0.590   4.872  0.0504 -0.2286 -0.3701
17212TIP3    H173127   2.098   0.580   4.967  2.6570  0.6242  0.1179
17212TIP3    H273128   2.148   0.507   4.844  1.0716  0.2133 -0.3099
17213TIP3   OH273129   0.997   3.215  58.191 -0.5413  0.0711  0.1403
17213TIP3    H173130   0.905   3.193  58.184 -0.1371 -1.6234 -0.2551
17213TIP3    H273131   1.040   3.134  58.219  0.7792  0.9218  0.6967
17214TIP3   OH273132   0.338   0.220  19.861  0.1307 -0.6570 -0.4140
17214TIP3    H173133   0.306   0.161  19.929 -0.1599  0.3271  0.3128
17214TIP3    H273134   0.374   0.161  19.794 -3.4803 -1.8860 -1.4988
17215TIP3   OH273135   2.403   3.091  64.866  0.1102  0.1102  0.3062
17215TIP3    H173136   2.466   3.155  64.833  0.9849 -0.7180  0.3220
17215TIP3    H273137   2.423   3.084  64.960  0.4272 -0.6216  0.1894
17216TIP3   OH273138   0.119   0.464  63.183 -0.1490  0.8305 -0.5228
17216TIP3    H173139   0.067   0.519  63.123 -1.2478  0.5293  0.1211
17216TIP3    H273140   0.073   0.471  63.266 -0.9019 -1.8083 -0.6247
17217TIP3   OH273141   2.688   1.309  17.902  0.6635 -0.4572  0.1759
17217TIP3    H173142   2.784   1.316  17.902  0.7247 -1.1610 -0.3838
17217TIP3    H273143   2.664   1.301  17.994  1.0033  1.3402  0.4624
17218TIP3   OH273144   1.855   0.483  44.422 -1.0628 -0.4072 -0.0721
17218TIP3    H173145   1.772   0.440  44.443 -0.4867 -1.9764 -0.8483
17218TIP3    H273146   1.912   0.412  44.391 -0.1811  0.9760 -1.8208
17219TIP3   OH273147   2.858   2.732   5.533 -0.4941 -0.4612  0.1563
17219TIP3    H173148   2.917   2.782   5.476  0.2767  0.4942  1.7166
17219TIP3    H273149   2.779   2.720   5.481 -0.0757  0.9648 -0.8799
17220TIP3   OH273150   1.956   0.505  62.902 -0.0972 -0.0803 -0.4308
17220TIP3    H173151   2.024   0.438  62.916  1.8536  1.6612 -1.0146
17220TIP3    H273152   1.939   0.503  62.808  2.6582  2.5195 -1.1412
17221TIP3   OH273153   0.676   0.299  10.453 -0.1450 -0.2767 -0.4705
17221TIP3    H173154   0.718   0.335  10.531 -0.3212  1.5657 -1.1747
17221TIP3    H273155   0.735   0.322  10.381 -0.8705 -0.3103 -1.0920
17222TIP3   OH273156   0.383   2.761  57.761  0.4037 -0.1495  0.1483
17222TIP3    H173157   0.385   2.849  57.799  0.1976 -0.0529 -0.0597
17222TIP3    H273158   0.373   2.703  57.837  1.6160 -0.0739  0.3853
17223TIP3   OH273159   1.908   1.224  49.954  0.2922 -0.0215 -0.2637
17223TIP3    H173160   1.850   1.269  49.893  0.8484 -0.2662 -0.9785
17223TIP3    H273161   1.904   1.277  50.034 -0.1586  0.4992 -0.6241
17224TIP3   OH273162   3.200   3.375  65.009  0.7089  0.5004 -0.3501
17224TIP3    H173163   3.235   3.350  65.094 -1.7166  1.0763  0.9158
17224TIP3    H273164   3.207   3.470  65.007 -1.3935  0.7160  0.3062
17225TIP3   OH273165   2.553   2.817  59.402 -0.3865 -0.1056  0.2223
17225TIP3    H173166   2.505   2.836  59.322 -2.1826 -0.7159  1.1180
17225TIP3    H273167   2.614   2.891  59.411  0.7835 -0.6270 -2.3203
17226TIP3   OH273168   2.630   3.041  50.351  0.0470  0.3269  0.2983
17226TIP3    H173169   2.548   3.081  50.320 -0.6463 -1.9927 -1.0751
17226TIP3    H273170   2.634   2.956  50.307  1.8322 -0.8166  2.4586
17227TIP3   OH273171   2.255   0.045  67.196  0.3813 -0.0269 -0.3304
17227TIP3    H173172   2.173   0.044  67.244 -0.1292  0.6771 -1.1515
17227TIP3    H273173   2.286  -0.045  67.199 -1.3537 -0.7241 -1.5305
17228TIP3   OH273174   2.132   2.086  17.390 -0.0691 -0.3341  0.3651
17228TIP3    H173175   2.190   2.158  17.366  1.3355 -1.3313  0.6891
17228TIP3    H273176   2.132   2.028  17.314 -0.1484 -0.6543  0.6056
17229TIP3   OH273177   2.200   1.259  46.182  0.0653 -0.3408  0.1461
17229TIP3    H173178   2.249   1.214  46.113  1.1861  0.5578  0.3217
17229TIP3    H273179   2.257   1.331  46.209 -1.0563  0.3092  0.8769
17230TIP3   OH273180   0.036   0.984  55.293 -1.2202  0.4614 -0.0904
17230TIP3    H173181  -0.003   1.068  55.267  0.2993  0.7643 -1.5674
17230TIP3    H273182   0.062   0.943  55.211 -0.6303 -0.8173  0.6991
17231TIP3   OH273183   1.138   1.812  12.982  0.2193 -0.5074 -0.3845
17231TIP3    H173184   1.107   1.890  12.935  0.2179 -0.6700 -0.6566
17231TIP3    H273185   1.069   1.747  12.966 -0.6711 -0.0461  1.3011
17232TIP3   OH273186   0.501   0.364   4.204  0.4304  0.3567  0.4341
17232TIP3    H173187   0.427   0.316   4.166  0.0947  0.9137  0.3823
17232TIP3    H273188   0.537   0.303   4.270  0.2360 -0.1086  0.1179
17233TIP3   OH273189   2.274   0.398  60.142 -0.5530 -0.5770  0.5445
17233TIP3    H173190   2.344   0.460  60.125 -0.5001  0.2787  3.3946
17233TIP3    H273191   2.317   0.322  60.182 -1.0529 -0.7681  0.7318
17234TIP3   OH273192   3.357   2.754  14.356 -0.3326 -0.4465 -0.3114
17234TIP3    H173193   3.354   2.815  14.429 -0.4457 -0.2632 -0.4661
17234TIP3    H273194   3.422   2.791  14.297 -0.0788 -0.7134 -0.1985
17235TIP3   OH273195   0.646   1.178  37.117  0.0816 -0.0419  0.1591
17235TIP3    H173196   0.599   1.261  37.115 -1.7410 -0.9677  1.6963
17235TIP3    H273197   0.624   1.135  37.035  0.8103  0.8392 -0.5161
17236TIP3   OH273198   1.061   0.411  57.447 -0.0541  0.1229  0.1223
17236TIP3    H173199   0.973   0.397  57.414  0.3965 -1.3424 -0.5222
17236TIP3    H273200   1.063   0.504  57.470 -1.3548  0.4804 -1.0577
17237TIP3   OH273201   0.191   2.434   9.647 -1.0117  0.4157  0.4498
17237TIP3    H173202   0.155   2.346   9.634 -2.3018  0.7765  1.4157
17237TIP3    H273203   0.210   2.438   9.741 -0.0593  0.8516  0.2458
17238TIP3   OH273204   2.007   0.968  63.529  0.3416 -0.0576 -0.4115
17238TIP3    H173205   2.044   0.881  63.546  0.6461 -0.7944 -4.0401
17238TIP3    H273206   1.914   0.952  63.515 -0.2159  0.7679  1.9427
17239TIP3   OH273207   0.910   0.873  44.400  0.3411 -0.1756 -0.3649
17239TIP3    H173208   0.822   0.874  44.437  0.8583 -0.4856  0.9367
17239TIP3    H273209   0.968   0.877  44.476  1.4588  0.4593 -1.2140
17240TIP3   OH273210   1.381   0.346  60.380  0.3276 -0.2243  0.1734
17240TIP3    H173211   1.301   0.393  60.360 -0.0384 -0.7485  0.3843
17240TIP3    H273212   1.430   0.405  60.438 -0.0541 -0.0387  0.3091
17241TIP3   OH273213   0.668   1.782   0.144 -0.6402 -0.1568  0.3746
17241TIP3    H173214   0.734   1.749   0.205 -1.3759 -1.2879  0.5990
17241TIP3    H273215   0.617   1.704   0.120 -0.8297  0.3947 -1.1140
17242TIP3   OH273216   1.697   0.602  63.225  0.9065 -0.3324  0.3490
17242TIP3    H173217   1.778   0.630  63.267 -0.4024  1.6642  1.7208
17242TIP3    H273218   1.655   0.544  63.288  0.6444 -0.2860  0.2203
17243TIP3   OH273219   1.973   2.538  16.046 -0.1515 -0.3174 -0.1095
17243TIP3    H173220   1.963   2.485  15.967 -1.6368 -0.7773  0.3525
17243TIP3    H273221   2.013   2.478  16.110  0.4871 -0.1260 -0.3252
17244TIP3   OH273222   2.498   1.626  66.925  0.3043  0.1259 -0.0053
17244TIP3    H173223   2.561   1.682  66.971  0.2232  0.3097 -0.1228
17244TIP3    H273224   2.487   1.667  66.840  0.5436 -0.2760 -0.2455
17245TIP3   OH273225   1.027   0.548  10.181 -0.1898 -0.2413  0.1168
17245TIP3    H173226   1.052   0.626  10.131 -1.0437 -1.2553 -1.9769
17245TIP3    H273227   1.042   0.475  10.121 -1.1316 -1.5346  1.4030
17246TIP3   OH273228   3.208   1.873  62.097 -0.0482  0.0873 -0.7491
17246TIP3    H173229   3.206   1.969  62.086  2.7826  0.2622 -0.4082
17246TIP3    H273230   3.248   1.860  62.183 -0.6946 -1.4298 -0.6600
17247TIP3   OH273231   1.483   1.356   1.503 -0.1172  0.2536  0.4217
17247TIP3    H173232   1.502   1.265   1.527 -1.2978 -0.5042 -1.3130
17247TIP3    H273233   1.389   1.365   1.517 -0.1781  0.8943 -0.3431
17248TIP3   OH273234   1.991   1.948  58.068 -0.1891  0.6278 -0.6324
17248TIP3    H173235   2.017   1.947  57.976  0.6821  0.9899 -0.3918
17248TIP3    H273236   2.005   1.858  58.098  1.0267  0.8662 -0.4477
17249TIP3   OH273237   1.503   2.617  67.509  0.0165 -0.1348 -0.0981
17249TIP3    H173238   1.423   2.663  67.487 -0.2589 -1.5696 -2.4681
17249TIP3    H273239   1.526   2.648  67.597 -2.7801  0.7384  0.4053
17250TIP3   OH273240   1.804   0.778  15.505 -0.7876 -0.5854 -0.3422
17250TIP3    H173241   1.819   0.760  15.597 -1.7747  2.8411  0.6123
17250TIP3    H273242   1.886   0.816  15.473 -1.4555  1.3145  0.0792
17251TIP3   OH273243   0.817   1.570  34.043  0.4103  0.1244 -0.0156
17251TIP3    H173244   0.878   1.522  33.988  1.1927 -0.2718  1.1808
17251TIP3    H273245   0.788   1.507  34.109  2.2047  1.4753  2.1826
17252TIP3   OH273246   1.926   1.005  22.321  0.3863  0.2593 -0.6256
17252TIP3    H173247   1.867   1.069  22.360 -1.3396 -0.0594 -2.5308
17252TIP3    H273248   1.999   0.999  22.382 -0.1002  2.9183  0.3447
17253TIP3   OH273249   0.485   1.214  55.293 -0.1982  0.1428 -0.1734
17253TIP3    H173250   0.448   1.302  55.298 -1.3051 -0.3765  1.7890
17253TIP3    H273251   0.537   1.214  55.212 -0.8149  2.3253 -0.6263
17254TIP3   OH273252   1.553   0.547   1.110 -0.1593 -0.1970 -0.1666
17254TIP3    H173253   1.604   0.499   1.045  1.0390  0.3483  0.3238
17254TIP3    H273254   1.464   0.550   1.075  0.8858  2.2876 -3.0785
17255TIP3   OH273255   2.163   1.539   2.650 -0.0012 -0.2253 -0.0900
17255TIP3    H173256   2.182   1.507   2.738 -1.8036 -0.9279  0.0838
17255TIP3    H273257   2.126   1.626   2.664 -0.5786 -0.4619 -0.1127
17256TIP3   OH273258   2.072   2.975  48.939 -0.0419 -0.1678 -0.5025
17256TIP3    H173259   2.134   3.039  48.904 -1.2542  0.1595 -2.1480
17256TIP3    H273260   1.992   2.988  48.888  0.0021 -3.8106 -1.8019
17257TIP3   OH273261   3.394   1.544  19.908  0.2985  0.2859  0.3455
17257TIP3    H173262   3.341   1.621  19.887  0.2235  0.1412  0.0026
17257TIP3    H273263   3.333   1.471  19.908  0.3165  0.2684  0.9736
17258TIP3   OH273264   1.053   0.585  10.447 -0.0750 -0.0200 -0.4475
17258TIP3    H173265   1.032   0.539  10.366  1.2717 -2.0178  0.2537
17258TIP3    H273266   1.090   0.517  10.504  0.9109  1.7310  1.1120
17259TIP3   OH273267   2.261   0.963  20.779 -0.0721 -0.0252  0.0414
17259TIP3    H173268   2.267   1.057  20.795  0.9973 -0.1985  0.7665
17259TIP3    H273269   2.349   0.938  20.751 -0.6982 -0.5684 -1.6039
17260TIP3   OH273270   2.506   0.145  44.143  0.0931 -0.3491 -0.2193
17260TIP3    H173271   2.506   0.220  44.203 -2.0525 -1.7256  1.6605
17260TIP3    H273272   2.596   0.112  44.147  1.0508  1.9212 -0.9645
17261TIP3   OH273273   1.011   1.584  55.580  0.5481 -0.7746 -0.0950
17261TIP3    H173274   1.039   1.657  55.636  0.8566 -0.8349 -0.1703
17261TIP3    H273275   1.030   1.506  55.633 -1.2719 -0.7539  0.6529
17262TIP3   OH273276   2.241   0.090  15.316  0.4783  0.5983  0.3199
17262TIP3    H173277   2.227   0.146  15.240  0.2758 -1.1575 -0.9730
17262TIP3    H273278   2.303   0.023  15.287 -0.6635 -0.9322  1.2390
17263TIP3   OH273279   2.632   2.491  58.707 -0.1108 -0.0148 -0.4873
17263TIP3    H173280   2.621   2.435  58.784 -1.8096  0.9197  0.0117
17263TIP3    H273281   2.606   2.435  58.633 -0.1817 -0.3738 -0.1927
17264TIP3   OH273282   0.853   2.785  51.258 -0.1597 -0.7076 -0.5324
17264TIP3    H173283   0.815   2.849  51.198  2.5858  1.1884 -0.4277
17264TIP3    H273284   0.844   2.826  51.345 -0.8565 -1.7738 -0.0868
17265TIP3   OH273285   3.013   0.038  27.924 -0.3451 -0.0058  0.1924
17265TIP3    H173286   2.990   0.080  28.007 -0.0691 -0.0221  0.2783
17265TIP3    H273287   3.019   0.111  27.862  1.6222  0.2841  0.6649
17266TIP3   OH273288   2.307   2.115  26.043 -0.3726 -0.3619 -0.6512
17266TIP3    H173289   2.263   2.147  25.964 -0.8391  1.4167  0.2781
17266TIP3    H273290   2.312   2.191  26.100 -0.3732 -1.6838  1.1909
17267TIP3   OH273291   0.793   1.948  34.242  0.2096  0.2668 -0.0281
17267TIP3    H173292   0.767   1.954  34.150 -0.5637  2.0998  0.2585
17267TIP3    H273293   0.711   1.934  34.289  0.8041 -2.7996  0.2964
17268TIP3   OH273294   0.189   2.349  42.519  0.6185 -0.5043 -0.1599
17268TIP3    H173295   0.261   2.406  42.492 -0.3696  1.5732  1.2827
17268TIP3    H273296   0.115   2.379  42.467 -0.2806  0.6871  1.6804
17269TIP3   OH273297   3.031   0.251  54.328  0.4645 -0.4264  0.0596
17269TIP3    H173298   3.073   0.201  54.259  1.3812  0.2590  0.0941
17269TIP3    H273299   3.104   0.287  54.379 -0.1850 -0.4099  1.0069
17270TIP3   OH273300   2.002   0.429  17.252  0.0604  0.2395  0.2559
17270TIP3    H173301   2.044   0.359  17.302  1.2925  0.9341  0.2515
17270TIP3    H273302   2.076   0.475  17.210 -0.8783 -0.2182 -2.0804
17271TIP3   OH273303   1.511   2.628  57.664 -0.2883 -0.2366 -0.0808
17271TIP3    H173304   1.595   2.608  57.705 -0.7541 -0.4890  0.7845
17271TIP3    H273305   1.508   2.572  57.586 -0.0595 -0.9421  0.4033
17272TIP3   OH273306   2.743   2.981  59.001 -0.7040 -0.0492 -0.4232
17272TIP3    H173307   2.759   2.952  59.091 -0.3640  1.6625  0.1126
17272TIP3    H273308   2.731   3.076  59.009 -0.0325  0.2255 -2.2731
17273TIP3   OH273309   2.164   0.690   1.206  0.5523  0.2207 -0.0855
17273TIP3    H173310   2.127   0.629   1.142  2.4899 -0.6942 -0.3855
17273TIP3    H273311   2.253   0.707   1.175  0.3791  2.5541  0.4729
17274TIP3   OH273312   2.641   0.985  66.539  1.1132  0.4106 -0.0924
17274TIP3    H173313   2.705   0.977  66.469  0.8591 -0.6175 -0.2266
17274TIP3    H273314   2.598   1.070  66.523  0.3647 -0.2493 -1.7878
17275TIP3   OH273315   3.154   0.004   5.267  0.0593  0.1198 -0.1599
17275TIP3    H173316   3.117  -0.017   5.181 -1.3274  1.1410  0.1379
17275TIP3    H273317   3.167  -0.081   5.309  0.8950 -0.4048 -1.4098
17276TIP3   OH273318   0.417   3.074  13.649 -0.0921 -0.2061 -0.0625
17276TIP3    H173319   0.328   3.102  13.667 -0.2674 -0.5281 -0.4082
17276TIP3    H273320   0.426   3.079  13.554 -0.0530 -1.0588 -0.1155
17277TIP3   OH273321   2.927   1.983  12.071  0.0128 -0.0756  0.2289
17277TIP3    H173322   2.858   1.995  12.006 -0.8413 -0.5915  1.0233
17277TIP3    H273323   2.910   2.051  12.137 -0.4627 -0.9666  1.0349
17278TIP3   OH273324   3.275   1.702  50.555 -0.1231  0.3404  0.0045
17278TIP3    H173325   3.281   1.607  50.547 -0.2130  0.3542 -0.2257
17278TIP3    H273326   3.252   1.733  50.467 -1.0612  0.5027  0.2969
17279TIP3   OH273327   3.061   1.575  13.244  0.1217  0.0939  0.1322
17279TIP3    H173328   3.062   1.555  13.151  1.3166 -0.0532  0.1635
17279TIP3    H273329   2.991   1.640  13.254  1.0356  1.3270 -1.1251
17280TIP3   OH273330   1.278   2.610  61.997  0.9871 -0.2342  0.1972
17280TIP3    H173331   1.279   2.543  61.927 -1.5808  0.7933 -0.9308
17280TIP3    H273332   1.226   2.571  62.067 -1.5323  0.8867 -0.9309
17281TIP3   OH273333   2.954   2.219  28.313  0.0980 -0.0952  0.0235
17281TIP3    H173334   3.039   2.195  28.350  0.3721  1.5044  0.5330
17281TIP3    H273335   2.906   2.259  28.386 -0.9603 -0.6558 -0.3467
17282TIP3   OH273336   2.728   2.380  14.145 -0.1683  0.3021  0.1882
17282TIP3    H173337   2.705   2.400  14.236 -0.1932 -0.6377  0.3943
17282TIP3    H273338   2.759   2.463  14.110 -2.1484  1.2049  0.4325
17283TIP3   OH273339   2.887   2.688  50.915 -0.1552 -0.1627 -0.6007
17283TIP3    H173340   2.933   2.747  50.975  1.1580  0.4159 -2.1311
17283TIP3    H273341   2.926   2.602  50.930 -0.8747 -0.3409  0.3966
17284TIP3   OH273342   0.865   0.583  12.960  0.3399  0.1798 -0.1118
17284TIP3    H173343   0.870   0.497  12.917  1.4304  0.3894 -0.4329
17284TIP3    H273344   0.812   0.636  12.900  0.3557 -0.0319 -0.3160
17285TIP3   OH273345   3.429   0.934  11.523  0.1756 -0.1161 -0.0297
17285TIP3    H173346   3.513   0.969  11.495 -0.2022  1.1472  0.3742
17285TIP3    H273347   3.378   1.010  11.548 -0.8844 -0.9144  0.3153
17286TIP3   OH273348   2.328   0.021  59.649 -0.4834  0.2972  0.3831
17286TIP3    H173349   2.372  -0.059  59.677  2.1136  1.0112 -1.3493
17286TIP3    H273350   2.310   0.008  59.556 -0.6867  1.4336  0.2403
17287TIP3   OH273351   0.745   2.161  57.324 -0.3795  0.3260  0.8855
17287TIP3    H173352   0.734   2.121  57.410 -1.7922  0.2307  0.6714
17287TIP3    H273353   0.658   2.192  57.300 -0.0381  0.2146 -0.5893
17288TIP3   OH273354   1.430   0.231  47.999  0.3066  0.4293  0.2793
17288TIP3    H173355   1.398   0.293  47.934  2.1405  0.2933 -0.8372
17288TIP3    H273356   1.390   0.148  47.975  1.6577  0.1755 -1.3353
17289TIP3   OH273357   2.808   1.949  47.014 -0.0282 -0.2813  0.1547
17289TIP3    H173358   2.726   1.946  47.064 -1.5182  1.1597 -2.0057
17289TIP3    H273359   2.831   2.041  47.011 -0.8285 -0.0576 -2.8925
17290TIP3   OH273360   3.356   1.245  62.419  0.3276 -0.2874 -0.2812
17290TIP3    H173361   3.443   1.267  62.384 -0.4248  0.4407 -1.7413
17290TIP3    H273362   3.375   1.195  62.499  2.0950 -2.3741 -1.9029
17291TIP3   OH273363   0.748   2.329   8.069  0.2456 -0.4579 -0.4548
17291TIP3    H173364   0.745   2.253   8.012 -0.0947 -0.6110 -0.2331
17291TIP3    H273365   0.798   2.300   8.146  2.5464  0.3469 -1.5461
17292TIP3   OH273366   1.474   3.210  10.635 -0.0912  0.8931  0.4659
17292TIP3    H173367   1.417   3.137  10.658 -0.1150  1.5328  2.6814
17292TIP3    H273368   1.420   3.288  10.645 -0.6166  1.2719 -3.6412
17293TIP3   OH273369   0.385   2.469  59.492  0.3981 -0.2986 -0.2597
17293TIP3    H173370   0.455   2.510  59.543  1.4879 -2.3419 -0.0010
17293TIP3    H273371   0.341   2.543  59.448  1.9503  1.1516  0.4968
17294TIP3   OH273372   1.321   1.348  67.067  0.5741 -0.1260  0.0909
17294TIP3    H173373   1.398   1.299  67.097  2.0675  1.0858 -1.4908
17294TIP3    H273374   1.357   1.434  67.042 -1.0418 -0.0032 -2.0480
17295TIP3   OH273375   0.925   0.724  15.800  0.5345  0.1049 -0.1733
17295TIP3    H173376   0.931   0.661  15.872 -0.9313 -0.4964 -0.5358
17295TIP3    H273377   0.850   0.694  15.748  0.9150  1.1281 -1.3645
17296TIP3   OH273378   1.451   0.403  46.950  0.1361 -0.3562 -0.8320
17296TIP3    H173379   1.506   0.383  47.026 -1.9194 -0.7316  0.6152
17296TIP3    H273380   1.444   0.498  46.950  0.8466 -0.2924 -1.1103
17297TIP3   OH273381   2.432   1.530  15.931  0.2222 -0.1744  0.2988
17297TIP3    H173382   2.470   1.469  15.868 -0.3121  1.3869 -1.6272
17297TIP3    H273383   2.443   1.616  15.891  1.2399  1.1110  3.0514
17298TIP3   OH273384   1.314   2.666  59.302 -0.4327 -0.5302 -0.5535
17298TIP3    H173385   1.316   2.607  59.377  0.9119 -0.8335 -0.8040
17298TIP3    H273386   1.349   2.614  59.230 -1.1813 -0.0660 -1.2758
17299TIP3   OH273387   3.160   0.134  20.182 -0.2666 -0.2190 -0.1223
17299TIP3    H173388   3.240   0.173  20.216 -1.0028  0.4583  0.9069
17299TIP3    H273389   3.090   0.191  20.213 -1.2390 -1.3681 -0.0947
17300TIP3   OH273390   2.631   3.350  10.235  0.0410 -0.5584  0.2245
17300TIP3    H173391   2.650   3.302  10.315 -0.2082 -1.3442 -0.1757
17300TIP3    H273392   2.539   3.377  10.245 -0.0328 -0.7773  0.1470
17301TIP3   OH273393   3.019   1.051  20.264  0.5369 -0.6964 -0.1599
17301TIP3    H173394   2.930   1.053  20.229  0.2008 -0.7064  0.6614
17301TIP3    H273395   3.043   1.144  20.271 -0.0459 -0.6200  1.1420
17302TIP3   OH273396   1.701   0.153  13.671 -0.6810  0.1187 -0.3788
17302TIP3    H173397   1.630   0.169  13.733 -0.9764 -0.8442 -0.4384
17302TIP3    H273398   1.773   0.119  13.724 -0.8866 -0.5770 -0.5317
17303TIP3   OH273399   0.886   0.988  60.826  0.4375  0.4950  0.9856
17303TIP3    H173400   0.878   1.003  60.732  1.7272 -0.3076  0.7255
17303TIP3    H273401   0.817   0.924  60.846  2.4823 -2.3169 -0.2004
17304TIP3   OH273402   2.952   0.200  31.484  0.2749 -0.5167 -0.1730
17304TIP3    H173403   2.895   0.264  31.443  1.6547  1.6335  1.0458
17304TIP3    H273404   3.038   0.242  31.486  0.8124 -1.4947  2.5153
17305TIP3   OH273405   0.214   0.498   7.359 -0.2604  0.1277 -0.0543
17305TIP3    H173406   0.127   0.460   7.352 -0.7774  1.3965 -0.8325
17305TIP3    H273407   0.199   0.591   7.378  0.8689  0.6400 -1.4403
17306TIP3   OH273408   1.418   1.553   1.775  0.5992  0.0531 -0.4126
17306TIP3    H173409   1.349   1.544   1.709 -1.8232  1.5831  1.7001
17306TIP3    H273410   1.455   1.640   1.759  0.2385  0.2867 -0.0212
17307TIP3   OH273411   0.306   0.011  12.045 -0.5896 -0.6061 -0.7457
17307TIP3    H173412   0.355   0.092  12.030 -2.1879  0.2527 -1.6212
17307TIP3    H273413   0.346  -0.052  11.985 -0.6417  0.1306 -1.5860
17308TIP3   OH273414   2.432   2.192  59.121  0.8117  0.0937  0.6126
17308TIP3    H173415   2.381   2.157  59.195  1.5026 -0.9924  0.5942
17308TIP3    H273416   2.397   2.280  59.107 -1.5264 -0.8357  0.1812
17309TIP3   OH273417   1.866   1.134   8.080 -0.0173 -0.1920  0.4204
17309TIP3    H173418   1.898   1.223   8.061  1.7286 -0.7215  0.6792
17309TIP3    H273419   1.913   1.109   8.159  0.9781 -2.0396 -0.6901
17310TIP3   OH273420   1.387   0.327  20.855  0.0327 -0.2254 -0.3365
17310TIP3    H173421   1.375   0.420  20.872 -3.3401 -0.4747 -0.6560
17310TIP3    H273422   1.413   0.290  20.939 -0.7216  0.7223  0.3365
17311TIP3   OH273423   1.636   1.595  34.695 -0.6043 -0.5010 -0.3388
17311TIP3    H173424   1.651   1.588  34.601 -0.7667 -1.8604 -0.2834
17311TIP3    H273425   1.542   1.610  34.703 -0.2990  1.9660 -0.4433
17312TIP3   OH273426   2.017   2.646  61.544 -0.0517 -0.0181  0.2359
17312TIP3    H173427   1.990   2.716  61.484  2.4814  0.7112 -0.1597
17312TIP3    H273428   1.959   2.656  61.619 -0.4526  1.8408 -0.2627
17313TIP3   OH273429   3.105   0.518   5.565 -0.7216 -0.0687 -0.2000
17313TIP3    H173430   3.100   0.423   5.562 -2.7654 -0.0463  0.8134
17313TIP3    H273431   3.044   0.548   5.498  0.1870  0.5563 -0.7791
17314TIP3   OH273432   2.497   0.714  21.841  0.5028  0.3526  1.0522
17314TIP3    H173433   2.412   0.717  21.796  2.0170 -2.3847 -2.4434
17314TIP3    H273434   2.552   0.776  21.793  1.1138  0.3859  1.7781
17315TIP3   OH273435   1.990   2.533  49.006  0.2345  0.4175 -0.2697
17315TIP3    H173436   1.903   2.553  48.972 -0.0024  1.0551  0.6712
17315TIP3    H273437   2.044   2.605  48.977  0.2156  0.5419  0.0006
17316TIP3   OH273438   2.835   1.645   4.359 -0.0304 -0.7732 -0.1998
17316TIP3    H173439   2.747   1.619   4.330 -0.0586  0.4354 -1.3111
17316TIP3    H273440   2.868   1.569   4.406 -1.3258 -1.5885 -0.5411
17317TIP3   OH273441   3.060   2.397  62.564  0.2405 -0.1772  0.3019
17317TIP3    H173442   3.051   2.490  62.585  4.1552  1.3357 -3.3051
17317TIP3    H273443   3.123   2.363  62.627 -1.1432 -0.5004  1.5816
17318TIP3   OH273444   1.664   3.379  19.567  0.5923  0.3815 -0.5746
17318TIP3    H173445   1.674   3.444  19.497 -0.0382  2.5508  1.2738
17318TIP3    H273446   1.753   3.368  19.601  0.7077  0.2163 -0.9182
17319TIP3   OH273447   1.593   0.845  63.238 -0.1348  0.2364  0.1320
17319TIP3    H173448   1.508   0.849  63.283 -1.3970 -0.1311 -2.1114
17319TIP3    H273449   1.610   0.752  63.226 -0.4265  0.3318 -1.1821
17320TIP3   OH273450   3.045   1.044  58.418 -0.8838  0.3459 -0.2756
17320TIP3    H173451   3.071   1.036  58.326 -0.4437  3.1256 -0.4741
17320TIP3    H273452   2.989   1.121  58.421  0.3510  1.2541  1.9838
17321TIP3   OH273453   0.491   3.182   8.069 -0.1683 -0.3547 -0.4620
17321TIP3    H173454   0.449   3.221   8.146  0.6418 -1.4358  0.5543
17321TIP3    H273455   0.565   3.239   8.049 -1.4454  0.9816 -1.6313
17322TIP3   OH273456   0.923   2.920  16.037 -0.3324 -0.4360 -0.2470
17322TIP3    H173457   0.850   2.943  15.980  1.3819  1.3696 -1.8609
17322TIP3    H273458   0.944   3.001  16.083  2.4210 -0.0445 -1.9847
17323TIP3   OH273459   2.543   0.523  55.189 -0.5138 -0.5150 -0.0555
17323TIP3    H173460   2.636   0.538  55.204 -0.1953 -2.0872 -0.2872
17323TIP3    H273461   2.528   0.433  55.218 -2.2633  0.1385  1.2566
17324TIP3   OH273462   1.752   3.230  18.928 -0.0911 -0.3526 -0.0493
17324TIP3    H173463   1.760   3.286  18.851 -1.8937 -0.8539 -0.6403
17324TIP3    H273464   1.807   3.273  18.994 -1.3687  2.1194 -0.4623
17325TIP3   OH273465   1.121   3.062  61.807 -0.1281  0.1635  0.3883
17325TIP3    H173466   1.034   3.024  61.813 -0.7216  1.1780 -1.2418
17325TIP3    H273467   1.127   3.120  61.884 -0.6265 -0.3819  0.8509
17326TIP3   OH273468   2.957   2.628  43.441 -0.1670 -0.0630 -0.0589
17326TIP3    H173469   2.887   2.656  43.501 -0.5753 -0.1763 -0.4711
17326TIP3    H273470   2.938   2.675  43.360 -1.3875 -2.1547 -1.0708
17327TIP3   OH273471   2.038   1.795  12.444  0.6064  0.2884  0.2047
17327TIP3    H173472   1.958   1.745  12.461 -0.7509  2.4478  0.4945
17327TIP3    H273473   2.031   1.822  12.353  1.0025  0.5101  0.2369
17328TIP3   OH273474   1.589   2.680  61.871 -0.1735 -0.1818 -0.2487
17328TIP3    H173475   1.507   2.653  61.912 -0.1006 -1.0768 -0.6727
17328TIP3    H273476   1.622   2.601  61.828  0.4026  0.4184 -0.9407
17329TIP3   OH273477   3.272   3.129  14.482  0.7354 -0.3508  0.2074
17329TIP3    H173478   3.265   3.195  14.550  1.6849 -1.7139  1.6935
17329TIP3    H273479   3.340   3.162  14.423 -0.0817  0.8262 -0.1026
17330TIP3   OH273480   2.588   2.440  43.172  0.5185 -0.7603  0.0707
17330TIP3    H173481   2.630   2.502  43.113 -1.3557  1.1647  0.6310
17330TIP3    H273482   2.633   2.453  43.256  0.5667 -0.6130  0.0221
17331TIP3   OH273483   1.592   2.982  58.239  0.2250  0.0917  0.1386
17331TIP3    H173484   1.563   2.902  58.196 -0.1579  0.8471 -1.0661
17331TIP3    H273485   1.674   2.957  58.283  0.2545 -0.8928 -0.4362
17332TIP3   OH273486   2.202   1.599   7.326 -0.0609 -0.4741 -0.0464
17332TIP3    H173487   2.283   1.646   7.310 -0.7793  0.8626  0.0817
17332TIP3    H273488   2.196   1.535   7.255  1.0576 -0.5460 -0.0902
17333TIP3   OH273489   3.296   0.912  49.736  0.3899 -0.0369  0.2789
17333TIP3    H173490   3.379   0.960  49.735  1.1666 -1.2981  1.0098
17333TIP3    H273491   3.319   0.826  49.773 -1.1934 -0.5042  0.2358
17334TIP3   OH273492   0.849   2.713  16.217  0.4068 -0.0291  0.2556
17334TIP3    H173493   0.858   2.791  16.272  0.3463 -0.2823  0.6302
17334TIP3    H273494   0.831   2.748  16.129 -1.9209  0.3844  0.8013
17335TIP3   OH273495   2.233   3.202   2.605  0.5240 -0.1024  0.1165
17335TIP3    H173496   2.269   3.263   2.540 -0.2653 -0.5012 -0.7109
17335TIP3    H273497   2.161   3.249   2.646  0.9530  0.1093  0.6446
17336TIP3   OH273498   1.626   3.278  20.950 -0.0572 -0.2092 -0.1553
17336TIP3    H173499   1.534   3.283  20.977 -0.0795  1.1698 -0.3926
17336TIP3    H273500   1.655   3.192  20.979  0.0482  1.1645  4.7543
17337TIP3   OH273501   3.016   3.253  43.814  0.5469 -0.1797  0.7248
17337TIP3    H173502   2.967   3.270  43.733  1.5943  1.3524  0.3897
17337TIP3    H273503   2.952   3.210  43.871 -0.5414 -0.2443 -0.4893
17338TIP3   OH273504   2.818   0.373  20.925 -0.1829 -0.3199  0.0008
17338TIP3    H173505   2.825   0.379  21.020  1.8253 -1.6316 -0.0150
17338TIP3    H273506   2.733   0.331  20.910 -0.7228  0.3048  1.1674
17339TIP3   OH273507   0.603   0.273  12.487 -0.6682  0.1487 -0.0835
17339TIP3    H173508   0.615   0.269  12.392 -0.7377 -0.7501 -0.0632
17339TIP3    H273509   0.635   0.189  12.519  2.0672  1.4977  1.0182
17340TIP3   OH273510   0.076   0.759  14.484  0.0627  0.1905  0.3576
17340TIP3    H173511   0.031   0.689  14.530  0.5394 -0.7001 -0.4887
17340TIP3    H273512   0.027   0.838  14.506 -0.3176 -0.3516  1.5530
17341TIP3   OH273513   2.038   3.119  65.681 -0.6658 -0.5004  0.1309
17341TIP3    H173514   1.958   3.157  65.718 -0.3927 -0.6463  0.8913
17341TIP3    H273515   2.035   3.143  65.588 -0.9152  0.6726  0.4137
17342TIP3   OH273516   1.703   1.710  58.127  0.1320  0.1174  0.0965
17342TIP3    H173517   1.775   1.671  58.078  0.0113 -0.0852  0.0776
17342TIP3    H273518   1.640   1.736  58.060  0.7544  1.4956  0.0118
17343TIP3   OH273519   2.101   2.973  47.414  0.1147 -0.1764 -0.3683
17343TIP3    H173520   2.171   3.035  47.392 -0.1775 -0.1015 -1.1015
17343TIP3    H273521   2.147   2.892  47.434  0.4502  0.0388 -0.2591
17344TIP3   OH273522   2.918   2.445  49.900  0.0569  0.4144 -0.0308
17344TIP3    H173523   2.994   2.484  49.857 -0.4084  1.0016 -0.3464
17344TIP3    H273524   2.848   2.451  49.834 -0.0595 -0.8764 -0.0438
17345TIP3   OH273525   2.678   2.668   6.143  0.9586 -0.0235 -0.5411
17345TIP3    H173526   2.756   2.677   6.198  0.1584  0.7674  0.5066
17345TIP3    H273527   2.667   2.755   6.103  0.5248 -0.0839 -0.5561
17346TIP3   OH273528   0.459   0.918  15.886  0.3192  0.2561 -0.1422
17346TIP3    H173529   0.547   0.954  15.901 -0.8372  2.9498  0.6581
17346TIP3    H273530   0.448   0.924  15.791  0.3550  1.6438 -0.0819
17347TIP3   OH273531   0.686   3.035  52.183  0.7200 -0.4083  0.1640
17347TIP3    H173532   0.610   3.002  52.134  1.6082 -0.1297 -1.4806
17347TIP3    H273533   0.649   3.069  52.264 -1.4670  2.7440 -1.9217
17348TIP3   OH273534   1.006   2.000   3.964  0.1010 -0.5343 -0.1794
17348TIP3    H173535   0.954   1.947   3.903 -0.7664 -0.1232  0.1942
17348TIP3    H273536   1.006   1.949   4.045  0.1174 -0.4380 -0.1190
17349TIP3   OH273537   0.553   1.217  56.675  0.4844  0.0607 -0.7275
17349TIP3    H173538   0.636   1.256  56.646  0.0769 -0.1165 -2.2143
17349TIP3    H273539   0.497   1.220  56.598 -0.2557 -1.5920 -0.2887
17350TIP3   OH273540   1.584   2.905  19.179 -0.2408 -0.2358 -0.1921
17350TIP3    H173541   1.509   2.868  19.225  0.0206 -2.0299 -1.1194
17350TIP3    H273542   1.660   2.879  19.232 -0.0605 -1.0896 -0.8288
17351TIP3   OH273543   2.274   0.074  48.997 -0.1144 -0.1182  0.3372
17351TIP3    H173544   2.295   0.156  49.042  1.1070  1.2001 -2.4261
17351TIP3    H273545   2.359   0.033  48.981 -0.5785 -0.9284 -0.1204
17352TIP3   OH273546   2.660   1.699  47.071  0.1622 -0.0929 -0.1113
17352TIP3    H173547   2.602   1.762  47.113  1.4767  0.5568  0.8098
17352TIP3    H273548   2.724   1.753  47.024  0.5043 -0.7613 -0.4348
17353TIP3   OH273549   2.610   0.982  50.309 -0.2383  0.4323 -0.2705
17353TIP3    H173550   2.591   1.018  50.222  0.0588  0.4397 -0.3323
17353TIP3    H273551   2.525   0.951  50.341 -0.4437  0.9146 -0.3405
17354TIP3   OH273552   2.225   2.324  42.987 -0.0745 -0.7308 -0.2951
17354TIP3    H173553   2.194   2.251  42.934 -1.6285 -1.1397  1.0843
17354TIP3    H273554   2.250   2.284  43.070  0.8164  0.0911 -0.1460
17355TIP3   OH273555   0.007   1.040   7.984 -0.5340 -0.2095  0.0824
17355TIP3    H173556   0.018   1.002   7.897  0.3428  0.2386 -0.0126
17355TIP3    H273557  -0.085   1.025   8.005 -0.7919 -0.1884 -0.9809
17356TIP3   OH273558   2.678   2.728  16.205  0.1442 -0.6894  0.4648
17356TIP3    H173559   2.696   2.642  16.242  1.7399 -0.3913  0.4411
17356TIP3    H273560   2.716   2.790  16.268 -0.0358 -0.0478 -0.0480
17357TIP3   OH273561   2.635   2.764  61.005 -0.5538  0.4802  0.4392
17357TIP3    H173562   2.639   2.709  61.083 -1.7347  1.0557  0.9302
17357TIP3    H273563   2.726   2.787  60.987 -0.1725 -0.4829  1.0443
17358TIP3   OH273564   1.475   1.012   0.850 -0.1162  0.5828  0.3166
17358TIP3    H173565   1.486   0.922   0.819  0.6487  0.7794 -0.0009
17358TIP3    H273566   1.560   1.037   0.885  0.2023  1.7856 -1.2132
17359TIP3   OH273567   1.447   0.870   3.274 -0.5152 -0.0569  1.2413
17359TIP3    H173568   1.406   0.956   3.283 -1.0741 -0.1626 -0.1321
17359TIP3    H273569   1.374   0.809   3.262 -0.0254 -0.4036 -0.0952
17360TIP3   OH273570   0.796   1.154  51.695 -0.8718  0.0401  0.5450
17360TIP3    H173571   0.863   1.196  51.749 -1.9932  1.2017  1.0992
17360TIP3    H273572   0.794   1.205  51.615 -1.0675 -0.0124  0.5165
17361TIP3   OH273573   0.104   1.049   9.989 -0.2651 -0.6124 -0.4903
17361TIP3    H173574   0.170   1.051  10.058  1.2575  0.7448 -1.9259
17361TIP3    H273575   0.116   0.964   9.947 -1.3750 -1.5646  0.9872
17362TIP3   OH273576   2.244   2.537   1.222 -0.3741  0.3165  0.5335
17362TIP3    H173577   2.246   2.587   1.303  1.5452 -0.6647  1.1454
17362TIP3    H273578   2.204   2.597   1.158 -1.1113  1.4149  1.9613
17363TIP3   OH273579   3.232   0.195  18.424  0.6760  0.2505  0.0156
17363TIP3    H173580   3.244   0.100  18.421  0.3660  0.1304  1.8743
17363TIP3    H273581   3.188   0.216  18.341 -0.4216 -1.4125  0.1368
17364TIP3   OH273582   0.997   1.996  11.031  0.4201 -0.3443 -0.0004
17364TIP3    H173583   0.971   2.048  10.955 -0.4826 -1.0292 -0.1822
17364TIP3    H273584   1.091   2.013  11.042  0.0022  2.0029  0.4914
17365TIP3   OH273585   3.307   2.236  10.067  0.3564 -0.2670  0.3394
17365TIP3    H173586   3.300   2.277   9.981  0.7549 -1.9380 -0.5316
17365TIP3    H273587   3.358   2.297  10.119  1.3819  0.1030 -1.0648
17366TIP3   OH273588   2.483   0.636  11.567  0.3374 -0.0444  0.0538
17366TIP3    H173589   2.566   0.648  11.613  1.3649  1.0406 -1.9842
17366TIP3    H273590   2.430   0.712  11.591  0.6042  0.1642 -0.0204
17367TIP3   OH273591   0.715   3.210   2.286  0.1394 -0.4823 -0.2817
17367TIP3    H173592   0.769   3.164   2.221 -1.2296 -2.0579 -0.3691
17367TIP3    H273593   0.745   3.177   2.370 -1.1811 -2.0324 -0.3636
17368TIP3   OH273594   2.319   3.381  57.154 -0.5198 -0.0998  0.0018
17368TIP3    H173595   2.341   3.316  57.087  0.4159 -0.3443  0.5265
17368TIP3    H273596   2.241   3.424  57.121 -1.0665 -1.3757 -0.4532
17369TIP3   OH273597   2.774   2.625  43.656  0.1101 -0.2999  0.1463
17369TIP3    H173598   2.836   2.575  43.708  1.4924  2.1067  0.9807
17369TIP3    H273599   2.774   2.712  43.696  0.1987  1.3106 -3.0443
17370TIP3   OH273600   1.388   2.351  22.733  0.0917  0.1767 -0.1538
17370TIP3    H173601   1.416   2.443  22.727 -1.9888  0.9102  0.5611
17370TIP3    H273602   1.439   2.315  22.805 -0.2648  1.2608  0.6630
17371TIP3   OH273603   3.268   1.035  59.213 -0.1310  0.1214 -0.5372
17371TIP3    H173604   3.178   1.039  59.244 -0.0781  0.3010 -0.4006
17371TIP3    H273605   3.307   0.961  59.260 -0.1232  0.2344 -0.3640
17372TIP3   OH273606   3.217   2.707  17.946 -0.2396  0.3170  0.6045
17372TIP3    H173607   3.144   2.742  17.997 -1.3722 -0.8024 -0.1828
17372TIP3    H273608   3.261   2.645  18.004 -0.3395  0.4692  0.8433
17373TIP3   OH273609   1.224   1.877  14.291 -0.1319  0.2286 -0.0293
17373TIP3    H173610   1.178   1.959  14.274 -0.0952  0.5639  1.4037
17373TIP3    H273611   1.205   1.823  14.214 -1.9202  0.7833 -0.0211
17374TIP3   OH273612   2.319   2.279   3.698 -0.5264 -0.2038  0.0495
17374TIP3    H173613   2.350   2.290   3.608  1.1961 -0.8338  0.5363
17374TIP3    H273614   2.338   2.188   3.720 -0.2563  0.1324  1.2940
17375TIP3   OH273615   3.069   0.978  11.814  0.1103 -0.0537  0.0928
17375TIP3    H173616   3.063   0.990  11.719  2.6585 -1.3886 -0.3385
17375TIP3    H273617   3.063   0.883  11.826 -0.6666  0.1299  1.3593
17376TIP3   OH273618   2.129   2.018  49.193 -0.4457  0.9297  0.0041
17376TIP3    H173619   2.063   2.007  49.262 -1.0191 -0.6696 -0.7678
17376TIP3    H273620   2.153   2.110  49.198 -0.5642  0.9004  2.2657
17377TIP3   OH273621   1.094   2.667  63.137  0.1502  0.5897 -0.6340
17377TIP3    H173622   1.175   2.698  63.178 -0.2107  0.5101  0.1711
17377TIP3    H273623   1.113   2.578  63.109  0.6000  0.8678 -1.2155
17378TIP3   OH273624   1.411   2.305   4.130 -0.1785  0.0918 -0.0099
17378TIP3    H173625   1.439   2.327   4.218 -1.7982  1.9541  0.1024
17378TIP3    H273626   1.323   2.270   4.141 -0.8006  1.2982 -0.9413
17379TIP3   OH273627   0.778   2.909  35.426 -0.3873  0.4482  0.2309
17379TIP3    H173628   0.857   2.874  35.467 -0.8631 -1.7532 -0.5438
17379TIP3    H273629   0.799   3.000  35.406  1.4218  0.3255  1.3339
17380TIP3   OH273630   0.296   1.592  54.358 -0.2448  0.4551 -0.5997
17380TIP3    H173631   0.286   1.501  54.387  0.2757 -0.2948 -2.6347
17380TIP3    H273632   0.317   1.640  54.438 -1.0010 -1.1233  0.6007
17381TIP3   OH273633   0.263   0.507  59.259 -0.1907 -0.5232  0.0334
17381TIP3    H173634   0.249   0.543  59.347 -0.6339  0.5822 -0.4701
17381TIP3    H273635   0.357   0.489  59.255 -0.0185  0.2405  0.4382
17382TIP3   OH273636   2.956   0.712   7.312 -0.2691  0.3669 -0.1285
17382TIP3    H173637   3.021   0.737   7.246  0.0333  2.0606  0.7466
17382TIP3    H273638   2.885   0.774   7.300 -1.0710 -0.5308 -0.0994
17383TIP3   OH273639   2.209   2.085   1.135  0.3032 -0.0567  0.2177
17383TIP3    H173640   2.274   2.032   1.089 -0.8145 -0.6287 -0.7558
17383TIP3    H273641   2.126   2.063   1.093 -0.1535  3.0041 -0.7083
17384TIP3   OH273642   2.947   0.362  48.675  0.4113 -0.0525 -0.1317
17384TIP3    H173643   2.976   0.367  48.584  0.4447  1.1391 -0.0652
17384TIP3    H273644   3.015   0.405  48.725 -0.9540  1.9303  0.1232
17385TIP3   OH273645   3.440   2.074  60.145 -0.2251  0.0364 -0.3383
17385TIP3    H173646   3.372   2.115  60.199 -1.4883  0.2694 -2.0238
17385TIP3    H273647   3.396   2.002  60.102  1.4234 -1.7924  0.8566
17386TIP3   OH273648   3.027   2.057  20.061 -0.0589  0.4724  0.0007
17386TIP3    H173649   3.103   2.026  20.112 -1.0643 -0.9589  0.7124
17386TIP3    H273650   3.002   2.139  20.103  2.0584  1.8730 -1.2806
17387TIP3   OH273651   0.072   0.005  65.342 -0.2104 -0.0621 -0.1720
17387TIP3    H173652   0.157  -0.020  65.305 -0.0296  0.9483 -0.4513
17387TIP3    H273653   0.080  -0.017  65.435  1.4569  2.6510  0.4544
17388TIP3   OH273654   2.608   0.352  53.182 -0.8224 -0.8113 -0.4097
17388TIP3    H173655   2.639   0.360  53.092  2.7058 -0.7411  0.6457
17388TIP3    H273656   2.639   0.266  53.210 -2.7860 -1.2793  0.4690
17389TIP3   OH273657   0.419   1.447  62.314  0.2199 -0.1611 -0.5150
17389TIP3    H173658   0.382   1.533  62.336 -0.5322 -0.6791  0.2878
17389TIP3    H273659   0.496   1.439  62.370 -0.3008 -0.4415  0.1697
17390TIP3   OH273660   1.039   0.281  11.204 -0.4462  0.0246 -0.0729
17390TIP3    H173661   1.113   0.339  11.223  0.6149 -1.0316 -0.8268
17390TIP3    H273662   1.018   0.298  11.113  0.0524 -0.9302 -0.3835
17391TIP3   OH273663   2.603   2.584  21.392 -0.0198 -0.2107 -0.6645
17391TIP3    H173664   2.566   2.629  21.469  0.5433  0.7140 -0.9119
17391TIP3    H273665   2.696   2.575  21.412  0.1661  0.2053 -1.3091
17392TIP3   OH273666   3.285   2.377   8.066  0.2168  0.4877 -0.0744
17392TIP3    H173667   3.230   2.438   8.017  0.7750  0.1624 -1.1446
17392TIP3    H273668   3.234   2.296   8.070  0.5037  0.2548 -0.8725
17393TIP3   OH273669   3.002   1.805   5.015 -0.6423  0.0454 -0.5491
17393TIP3    H173670   2.996   1.845   5.102  1.1231 -0.5739 -0.1091
17393TIP3    H273671   3.042   1.720   5.030 -1.9457 -0.8319 -1.7851
17394TIP3   OH273672   3.146   0.546  53.045 -0.2925  0.2872 -0.6800
17394TIP3    H173673   3.081   0.608  53.013 -1.9031 -0.4637  0.9401
17394TIP3    H273674   3.125   0.464  52.999 -1.0717 -0.1607  0.4073
17395TIP3   OH273675   0.947   3.374  22.134  0.5065 -0.2477 -0.4728
17395TIP3    H173676   0.944   3.363  22.229 -0.1825 -0.7347 -0.5376
17395TIP3    H273677   0.856   3.359  22.106  0.4589  1.1118 -1.0825
17396TIP3   OH273678   0.161   0.261  42.433  0.5594  0.3459 -0.2680
17396TIP3    H173679   0.245   0.227  42.403  0.7248 -0.1098  0.6727
17396TIP3    H273680   0.100   0.189  42.419  0.5365  0.3104  0.0156
17397TIP3   OH273681   2.053   1.181  49.068 -0.4778 -0.1693 -0.1717
17397TIP3    H173682   1.992   1.246  49.033 -0.1248  0.1919 -0.1249
17397TIP3    H273683   2.132   1.231  49.090  0.3116 -0.8198 -1.4086
17398TIP3   OH273684   1.432   1.225  45.529 -0.6910 -0.5572 -0.5024
17398TIP3    H173685   1.427   1.229  45.625  1.2767  0.2664 -0.3892
17398TIP3    H273686   1.369   1.158  45.505 -1.7874 -0.2469  1.3132
17399TIP3   OH273687   3.174   1.973  51.381 -0.1846  0.2688 -0.1160
17399TIP3    H173688   3.110   2.011  51.321 -1.0567 -0.9895 -0.0022
17399TIP3    H273689   3.232   2.046  51.403 -0.4872  1.0013 -1.6418
17400TIP3   OH273690   3.419   2.089  61.684 -0.0292  0.3420 -0.0472
17400TIP3    H173691   3.384   2.094  61.595 -1.1261  0.8390  0.3932
17400TIP3    H273692   3.459   2.002  61.690  0.0256  0.2893 -1.0022
17401TIP3   OH273693   3.347   2.765   5.366 -0.4517  0.2704 -0.0733
17401TIP3    H173694   3.425   2.753   5.421  0.6978  2.3054 -1.1266
17401TIP3    H273695   3.381   2.767   5.277 -1.9687 -0.4924 -0.7077
17402TIP3   OH273696   3.024   2.811  12.425 -0.1656 -0.8013  0.2991
17402TIP3    H173697   2.961   2.739  12.433 -2.0562  0.4505 -1.9917
17402TIP3    H273698   3.057   2.803  12.335  1.3032 -0.1306  0.7631
17403TIP3   OH273699   0.410   2.274  11.020 -0.6059  0.1263  0.4706
17403TIP3    H173700   0.396   2.351  11.076  1.8946  0.3120  0.9868
17403TIP3    H273701   0.434   2.204  11.081 -0.9963 -0.5616 -0.1445
17404TIP3   OH273702   0.218   3.031  58.619  0.2998  0.2112  0.0693
17404TIP3    H173703   0.232   2.947  58.575 -1.0736  0.3691 -0.7397
17404TIP3    H273704   0.246   3.096  58.555  1.2915  0.3909  0.6674
17405TIP3   OH273705   0.396   0.046  62.515  0.0507 -0.0727 -0.1341
17405TIP3    H173706   0.329  -0.022  62.503 -0.0194  0.2122 -1.4557
17405TIP3    H273707   0.460   0.006  62.574 -1.2563 -0.3648  1.1540
17406TIP3   OH273708   1.435   3.134  62.484 -0.1386 -0.2846 -0.5683
17406TIP3    H173709   1.524   3.155  62.456  0.0289 -2.3032 -1.8075
17406TIP3    H273710   1.445   3.101  62.574  0.4319 -0.7920 -0.8098
17407TIP3   OH273711   0.275   1.839  13.736 -0.6179 -0.0834 -0.2034
17407TIP3    H173712   0.368   1.855  13.724 -0.2795 -0.1439  1.9463
17407TIP3    H273713   0.234   1.866  13.653  1.2414  0.2955 -1.0315
17408TIP3   OH273714   0.932   2.145   0.589  0.1507 -0.0520  0.3691
17408TIP3    H173715   0.974   2.134   0.675  0.3757 -0.4279  0.2129
17408TIP3    H273716   0.994   2.106   0.527  0.0529  0.3404  0.0179
17409TIP3   OH273717   1.017   2.918   2.705 -0.3908  0.2735  1.1277
17409TIP3    H173718   1.105   2.955   2.705  0.1215 -0.8742  0.0230
17409TIP3    H273719   0.965   2.978   2.652  0.2721 -0.1906 -0.0921
17410TIP3   OH273720   0.013   1.626  60.666  0.0139 -0.2697 -0.3560
17410TIP3    H173721   0.056   1.622  60.580  0.5653 -0.5007 -0.0721
17410TIP3    H273722   0.027   1.539  60.704  0.4779  0.0909  0.3055
17411TIP3   OH273723   2.851   1.579  25.737  0.3316  0.1745 -0.1303
17411TIP3    H173724   2.945   1.560  25.729  0.4244  0.2243  0.7904
17411TIP3    H273725   2.847   1.653  25.797 -0.4441 -1.6979  2.2854
17412TIP3   OH273726   3.080   2.575  54.922 -0.5874 -0.3151 -1.1275
17412TIP3    H173727   3.008   2.527  54.882 -0.9489  0.4524 -1.4266
17412TIP3    H273728   3.053   2.588  55.013 -0.1112 -1.3866 -0.8123
17413TIP3   OH273729   1.138   2.737  44.722 -0.2745  0.6974  0.2445
17413TIP3    H173730   1.069   2.767  44.781 -0.3461  0.4819  0.2678
17413TIP3    H273731   1.216   2.785  44.751 -0.4032  0.9063  0.2465
17414TIP3   OH273732   2.106   1.608   1.198 -0.7948 -0.0376  0.0978
17414TIP3    H173733   2.037   1.651   1.148 -2.6327 -0.5336  2.0887
17414TIP3    H273734   2.061   1.546   1.254  1.2784 -0.3351  1.5600
17415TIP3   OH273735   1.326   1.174  44.062 -0.0741  0.0020  0.1484
17415TIP3    H173736   1.258   1.149  44.125 -0.9346  0.1013 -0.7278
17415TIP3    H273737   1.304   1.127  43.982  1.0683 -0.1949 -0.0685
17416TIP3   OH273738   3.126   3.172   3.835  0.4243  0.0642 -0.1562
17416TIP3    H173739   3.043   3.182   3.788  0.9300 -0.3186 -1.1732
17416TIP3    H273740   3.172   3.255   3.820  0.3232  0.1888  0.2140
17417TIP3   OH273741   2.161   1.324  56.547 -0.3081 -0.0038 -0.4620
17417TIP3    H173742   2.224   1.324  56.619  0.2565  1.1676 -0.9372
17417TIP3    H273743   2.125   1.412  56.546 -0.7492 -0.1795 -1.2370
17418TIP3   OH273744   2.031   2.262  44.753  0.3885  0.3061 -0.1556
17418TIP3    H173745   2.017   2.319  44.677  0.1948  0.6394  0.1234
17418TIP3    H273746   2.033   2.322  44.828  2.9252  0.2771 -0.1030
17419TIP3   OH273747   0.414   2.955  21.451  0.4934 -0.1081  0.0551
17419TIP3    H173748   0.484   2.986  21.508  0.6332 -0.1794 -0.0751
17419TIP3    H273749   0.459   2.908  21.381  0.4999  1.7212 -1.2506
17420TIP3   OH273750   2.082   0.113   6.583  0.2370  0.0783 -0.8606
17420TIP3    H173751   2.069   0.051   6.511  0.2977  0.4231 -1.1719
17420TIP3    H273752   2.025   0.080   6.653  0.3079 -0.3574 -1.0013
17421TIP3   OH273753   3.331   1.155  20.855  0.1434 -0.6282 -0.0399
17421TIP3    H173754   3.269   1.087  20.828 -0.1570 -0.3145 -0.1515
17421TIP3    H273755   3.376   1.179  20.775 -0.5218  0.0749 -0.2174
17422TIP3   OH273756   1.103   3.041  49.778 -0.2485 -0.3221 -0.3073
17422TIP3    H173757   1.035   3.056  49.843  0.4123 -0.9357  0.5528
17422TIP3    H273758   1.056   3.026  49.696 -1.1328 -0.6169  0.2483
17423TIP3   OH273759   2.335   3.152  55.111 -0.0863 -0.3389  0.5402
17423TIP3    H173760   2.355   3.226  55.053 -0.2429 -0.5374  0.2294
17423TIP3    H273761   2.259   3.110  55.070 -1.6398  0.8452  2.0961
17424TIP3   OH273762   0.540   1.436  37.233 -0.9398  0.5094 -0.0336
17424TIP3    H173763   0.467   1.486  37.271  0.2589  0.8401  2.0190
17424TIP3    H273764   0.579   1.496  37.169 -1.8589  0.7102 -0.4173
17425TIP3   OH273765   1.770   0.599  53.851  0.1808 -0.0614 -0.2151
17425TIP3    H173766   1.791   0.686  53.887 -0.9027  0.3022 -0.4327
17425TIP3    H273767   1.705   0.617  53.783  0.1306 -1.0276 -0.4250
17426TIP3   OH273768   2.279   0.660  18.476  0.6070  0.0454  0.3503
17426TIP3    H173769   2.231   0.659  18.393  0.4415 -1.7129  0.4239
17426TIP3    H273770   2.227   0.603  18.534  1.6667 -0.1878  1.0917
17427TIP3   OH273771   0.276   3.093  65.900 -0.0665 -0.3115  0.2584
17427TIP3    H173772   0.269   3.183  65.868  4.3244  0.5276  0.9482
17427TIP3    H273773   0.244   3.039  65.828 -0.9638  1.7481 -0.9604
17428TIP3   OH273774   2.128   1.241   6.845 -0.4251  0.2650  0.0796
17428TIP3    H173775   2.147   1.291   6.766  0.1737  0.3596  0.2811
17428TIP3    H273776   2.206   1.251   6.900 -0.0493 -1.3278 -0.1037
17429TIP3   OH273777   2.504   2.176  21.711 -0.1474  0.1517  0.0449
17429TIP3    H173778   2.464   2.109  21.766 -0.5606  1.0483  0.8711
17429TIP3    H273779   2.557   2.228  21.772  0.5351  0.3035 -0.6602
17430TIP3   OH273780   2.860   0.905  62.376  0.2611 -0.0645  1.1637
17430TIP3    H173781   2.927   0.935  62.315 -0.3316 -0.1113  0.4736
17430TIP3    H273782   2.905   0.841  62.431  0.6465 -0.5246  0.3330
17431TIP3   OH273783   3.017   0.173  30.793  0.2347  0.3134 -0.2978
17431TIP3    H173784   3.093   0.226  30.816  1.5323 -1.5282 -0.1002
17431TIP3    H273785   2.986   0.136  30.876  0.5046 -0.6701 -0.6119
17432TIP3   OH273786   1.710   2.937   5.654  0.0885 -0.0824 -0.3486
17432TIP3    H173787   1.784   2.878   5.671  0.8899  0.2324 -2.3484
17432TIP3    H273788   1.751   3.018   5.622 -1.0905  0.0376 -1.6860
17433TIP3   OH273789   1.449   1.209  19.744 -0.1498  0.4589 -0.4129
17433TIP3    H173790   1.479   1.295  19.714 -0.7941  0.9005  0.1725
17433TIP3    H273791   1.353   1.214  19.738 -0.1850 -0.2408 -0.4394
17434TIP3   OH273792   0.990   0.421   4.642  0.2414  0.2871  0.1307
17434TIP3    H173793   1.041   0.351   4.683 -0.1066 -0.4804 -0.7158
17434TIP3    H273794   0.921   0.441   4.705  0.8778  0.5230  0.7772
17435TIP3   OH273795   1.108   3.025   5.000  0.5387  0.1809 -0.0999
17435TIP3    H173796   1.181   2.995   4.947  0.1678 -1.6282  0.3259
17435TIP3    H273797   1.081   2.947   5.050 -1.2003  0.9761  0.2905
17436TIP3   OH273798   2.760   0.271  43.897  0.5250  0.0839  0.6896
17436TIP3    H173799   2.853   0.251  43.886  0.4392 -1.5788  2.4125
17436TIP3    H273800   2.721   0.189  43.928 -1.6361  0.5857 -0.4414
17437TIP3   OH273801   1.951   1.193   5.148  0.3939  0.5707 -0.5119
17437TIP3    H173802   1.897   1.169   5.073 -0.4458 -0.4097  0.3668
17437TIP3    H273803   1.969   1.110   5.192  1.6287  1.0250 -0.1178
17438TIP3   OH273804   1.327   2.986   8.297  0.2136  0.1682  0.0416
17438TIP3    H173805   1.380   3.033   8.362  0.5816 -1.1840  0.7508
17438TIP3    H273806   1.250   3.041   8.285  0.9224  1.2709  0.3621
17439TIP3   OH273807   1.473   3.105   5.711 -0.1461  0.5460 -0.0437
17439TIP3    H173808   1.534   3.032   5.703 -1.0694 -0.0537 -2.3526
17439TIP3    H273809   1.528   3.183   5.704  0.6454  0.0802  0.7433
17440TIP3   OH273810   2.917   3.174  42.730  0.4550  0.2739  0.3630
17440TIP3    H173811   2.961   3.246  42.684  0.5036  1.5884  2.3290
17440TIP3    H273812   2.855   3.139  42.666  1.1552  1.3978 -0.9820
17441TIP3   OH273813   2.873   2.730  50.485  0.3899  0.6670  0.5745
17441TIP3    H173814   2.912   2.786  50.553 -1.4263  0.9778  1.4030
17441TIP3    H273815   2.828   2.791  50.428  0.8915  0.2845 -0.2439
17442TIP3   OH273816   2.410   0.835  19.016  0.0416 -0.9190  0.2172
17442TIP3    H173817   2.347   0.903  19.037 -2.2864 -1.2052 -4.5081
17442TIP3    H273818   2.466   0.874  18.949  1.1470 -2.5150  0.1501
17443TIP3   OH273819   0.866   1.224  19.851 -0.1557  0.4004 -0.3202
17443TIP3    H173820   0.903   1.275  19.923 -0.1430  0.5349 -0.4230
17443TIP3    H273821   0.851   1.287  19.781  2.7562 -0.1711 -1.6065
17444TIP3   OH273822   3.194   1.206  17.326  0.2661 -0.5336 -0.3097
17444TIP3    H173823   3.162   1.239  17.242  0.6756 -0.4431 -0.4282
17444TIP3    H273824   3.162   1.115  17.329  3.0460 -1.7159 -2.0979
17445TIP3   OH273825   0.470   0.289  52.743 -0.2627 -0.2493 -0.0871
17445TIP3    H173826   0.519   0.349  52.800  0.7596 -1.6855  0.6179
17445TIP3    H273827   0.439   0.344  52.672  1.2185  1.0009  0.1733
17446TIP3   OH273828   2.215   1.287  63.200 -0.4122 -0.4330  0.2263
17446TIP3    H173829   2.147   1.230  63.163 -2.0802  1.3924  0.3530
17446TIP3    H273830   2.221   1.360  63.139  0.6480 -0.0120  0.8096
17447TIP3   OH273831   3.154   1.834   0.045  0.1829 -0.3526  0.1970
17447TIP3    H173832   3.105   1.785   0.111  1.3643  0.2874  1.6028
17447TIP3    H273833   3.170   1.771  -0.025  1.3661 -1.9146  1.8099
17448TIP3   OH273834   1.175   1.149  55.655 -0.4136  0.9129 -0.0883
17448TIP3    H173835   1.199   1.065  55.695 -0.8377 -0.8685 -3.2467
17448TIP3    H273836   1.257   1.180  55.615 -0.4210  1.6539  0.4628
17449TIP3   OH273837   3.307   1.367  49.223 -0.3290  0.0054 -0.2066
17449TIP3    H173838   3.311   1.458  49.251  0.0139  0.5585 -1.9275
17449TIP3    H273839   3.352   1.365  49.139 -1.2911 -1.5378 -0.7411
17450TIP3   OH273840   2.977   3.428   5.062  0.4165 -0.1792  0.0099
17450TIP3    H173841   2.977   3.349   5.008 -0.7052  1.0433 -1.8953
17450TIP3    H273842   2.885   3.443   5.082  0.0981  2.5315 -2.7335
17451TIP3   OH273843   3.229   2.464  45.218 -0.5330  0.3008  0.1222
17451TIP3    H173844   3.269   2.547  45.245  1.6490 -0.5656 -0.2064
17451TIP3    H273845   3.265   2.399  45.278 -1.2092 -0.6095 -0.4255
17452TIP3   OH273846   0.510   0.966  20.635 -0.6302 -0.3879 -0.3265
17452TIP3    H173847   0.532   0.873  20.647 -0.8401 -0.4243 -0.2082
17452TIP3    H273848   0.568   0.996  20.565 -0.1533 -0.4561  0.0362
17453TIP3   OH273849   2.891   1.966   6.832  0.1964  0.4281  0.1662
17453TIP3    H173850   2.899   1.899   6.899 -0.1655 -2.3533 -2.3583
17453TIP3    H273851   2.975   2.010   6.831  1.1444 -1.2960  0.6783
17454TIP3   OH273852   0.290   2.703  44.289  0.0868 -0.0691  0.3617
17454TIP3    H173853   0.219   2.650  44.253 -1.5393  2.2023 -0.0406
17454TIP3    H273854   0.357   2.703  44.220 -1.5713  1.5088 -1.3572
17455TIP3   OH273855   0.353   0.042  21.562 -0.4357 -0.1770  0.6179
17455TIP3    H173856   0.388  -0.003  21.486 -0.0493  1.3520 -0.1454
17455TIP3    H273857   0.386  -0.009  21.637  0.6718 -0.6618 -0.1748
17456TIP3   OH273858   0.902   1.054  18.363  0.1381 -0.4656  0.4739
17456TIP3    H173859   0.913   1.061  18.268  1.6754  0.9595  0.7058
17456TIP3    H273860   0.961   1.121  18.399 -1.8238  0.3889  2.3613
17457TIP3   OH273861   2.103   2.362   1.482  0.2602  0.5586  0.1318
17457TIP3    H173862   2.028   2.336   1.428 -0.9313  1.2162  1.4060
17457TIP3    H273863   2.118   2.287   1.540 -1.7176  1.6356  2.2438
17458TIP3   OH273864   0.097   0.076   9.335  0.0331  0.3811 -0.6438
17458TIP3    H173865   0.171   0.131   9.363  0.3911  0.7964 -2.3062
17458TIP3    H273866   0.138  -0.004   9.303 -0.2467  0.4608 -1.2119
17459TIP3   OH273867   1.159   0.369  21.895  0.1810 -0.8546  0.0254
17459TIP3    H173868   1.174   0.399  21.806 -1.2138 -0.9639 -0.2580
17459TIP3    H273869   1.102   0.434  21.935  0.6305 -0.9047  0.7918
17460TIP3   OH273870   0.996   0.126  60.155 -0.1071 -0.4291  0.6317
17460TIP3    H173871   1.061   0.197  60.162  0.1024 -0.5206 -0.3677
17460TIP3    H273872   1.043   0.048  60.186  0.2435 -0.4774  0.0044
17461TIP3   OH273873   0.016   0.860   2.663  0.5135 -0.0124 -0.2194
17461TIP3    H173874   0.014   0.955   2.675  0.7016 -0.1927  1.4445
17461TIP3    H273875   0.080   0.847   2.593  2.2983  0.9716  1.1528
17462TIP3   OH273876   2.875   0.968   8.949 -0.0436 -0.4192 -0.4663
17462TIP3    H173877   2.793   0.935   8.985 -1.7508  1.5329 -2.2956
17462TIP3    H273878   2.917   1.013   9.023 -0.8298 -0.9956  0.3581
17463TIP3   OH273879   1.533   2.090  36.648 -0.1504  0.0410  0.7098
17463TIP3    H173880   1.566   2.075  36.737  0.6710 -0.0557  0.3962
17463TIP3    H273881   1.553   2.182  36.630 -0.8803  0.2317  0.8537
17464TIP3   OH273882   1.413   1.101  58.301  0.5440  0.2481  0.4081
17464TIP3    H173883   1.499   1.092  58.260  0.1944  0.2300 -0.3396
17464TIP3    H273884   1.358   1.141  58.233  0.1973  1.1385  1.1939
17465TIP3   OH273885   2.448   3.448  62.977 -0.2505  0.4993  0.2225
17465TIP3    H173886   2.423   3.356  62.986 -1.5851  0.9587  1.8710
17465TIP3    H273887   2.381   3.495  63.027  0.9951  2.2872  0.2835
17466TIP3   OH273888   2.544   0.207  13.470  0.3921  0.2147 -0.2827
17466TIP3    H173889   2.586   0.293  13.457  0.8440 -0.0568 -0.6603
17466TIP3    H273890   2.614   0.150  13.500  0.5447 -0.4884 -1.8486
17467TIP3   OH273891   1.433   1.513   0.091  0.3758 -0.1286 -0.5943
17467TIP3    H173892   1.377   1.457   0.037 -1.5467 -0.0150  1.1404
17467TIP3    H273893   1.396   1.600   0.081 -0.7169 -0.2641  1.6162
17468TIP3   OH273894   2.345   1.067  10.135 -0.1927  0.7040  0.0561
17468TIP3    H173895   2.368   1.005  10.065 -1.4807 -1.8143  1.7349
17468TIP3    H273896   2.260   1.102  10.108  0.3327  1.4923 -0.6712
17469TIP3   OH273897   0.575   1.748  20.241 -0.5544 -0.2954  0.7782
17469TIP3    H173898   0.547   1.714  20.326 -1.4406  1.2926  1.1773
17469TIP3    H273899   0.665   1.777  20.256 -1.2025  1.4147  1.6867
17470TIP3   OH273900   1.110   0.976  13.036  0.1403  0.1299 -0.0515
17470TIP3    H173901   1.061   0.894  13.030  0.1683  0.2079 -1.9064
17470TIP3    H273902   1.171   0.972  12.963  1.0283  1.2529  0.6066
17471TIP3   OH273903   2.733   2.613  50.678  0.5183  0.0753 -0.1057
17471TIP3    H173904   2.769   2.645  50.595 -0.1132  0.7200 -0.1435
17471TIP3    H273905   2.795   2.644  50.744  1.6248 -1.3963 -0.4086
17472TIP3   OH273906   2.971   2.767  57.323  1.0261  0.7231  0.2436
17472TIP3    H173907   2.893   2.734  57.277  1.3461  0.5738 -0.2020
17472TIP3    H273908   2.940   2.787  57.411  0.1242  2.1808 -0.3812
17473TIP3   OH273909   1.938   1.281   2.671 -0.4916  0.2393  0.1061
17473TIP3    H173910   1.946   1.350   2.737  2.3248  1.0976 -1.0230
17473TIP3    H273911   1.996   1.308   2.600  0.9144 -3.3642 -0.3312
17474TIP3   OH273912   1.939   1.209   5.995  0.3186  1.0106  0.6475
17474TIP3    H173913   1.956   1.164   5.912  1.2417  1.2774  0.6759
17474TIP3    H273914   1.855   1.174   6.025  0.1927  0.5759 -0.1700
17475TIP3   OH273915   0.949   2.841  17.435 -0.0285 -0.4565  0.3898
17475TIP3    H173916   0.984   2.926  17.460  0.6489 -1.0433  1.5207
17475TIP3    H273917   0.952   2.789  17.515  0.4754 -1.8312 -0.4794
17476TIP3   OH273918   0.454   0.316  51.484  0.2362 -0.3088 -0.4592
17476TIP3    H173919   0.522   0.249  51.494 -0.1424 -0.3754  2.2508
17476TIP3    H273920   0.428   0.339  51.573 -2.3161  0.7485 -1.3607
17477TIP3   OH273921   1.956   2.448  14.627  0.2796 -0.2562  0.1492
17477TIP3    H173922   1.918   2.465  14.541 -1.2822 -1.0563  0.6494
17477TIP3    H273923   1.969   2.353  14.629  0.3563 -0.2373  0.7822
17478TIP3   OH273924   0.216   1.565  64.175  0.4310 -0.1009  0.2897
17478TIP3    H173925   0.143   1.517  64.215  0.6007 -1.0986 -0.5756
17478TIP3    H273926   0.175   1.642  64.137 -0.3855 -1.1810 -1.1268
17479TIP3   OH273927   1.138   1.246  61.685 -0.6812  0.2398  0.0669
17479TIP3    H173928   1.181   1.166  61.715 -2.5422 -0.8862 -0.0868
17479TIP3    H273929   1.081   1.272  61.758 -0.4998  1.1308 -0.0936
17480TIP3   OH273930   3.329   0.804  67.132 -0.1811 -0.0697  0.0161
17480TIP3    H173931   3.383   0.727  67.111  0.1342  0.0066  0.5319
17480TIP3    H273932   3.358   0.871  67.071 -0.2138 -0.2512 -0.2056
17481TIP3   OH273933   3.447   2.653  16.003  0.3260  0.5095  0.1098
17481TIP3    H173934   3.518   2.692  15.951  0.9588 -1.9754 -1.1001
17481TIP3    H273935   3.493   2.607  16.074  0.2250 -2.4227 -1.5556
17482TIP3   OH273936   2.640   3.194  28.107 -0.6468 -0.3436  0.1856
17482TIP3    H173937   2.733   3.205  28.129 -0.2198 -1.1731 -1.0841
17482TIP3    H273938   2.598   3.173  28.191  0.1589  0.8369  0.9101
17483TIP3   OH273939   2.505   0.355  44.311  0.5013 -0.0541 -0.3670
17483TIP3    H173940   2.454   0.297  44.368  2.1577 -1.3662 -0.1613
17483TIP3    H273941   2.465   0.441  44.323 -0.3738 -0.6590  1.3527
17484TIP3   OH273942   3.368   2.444  43.502  0.4033 -0.2472 -0.2677
17484TIP3    H173943   3.434   2.382  43.471 -0.5088 -1.2586 -0.2959
17484TIP3    H273944   3.370   2.435  43.597 -0.2697 -0.9413 -0.3040
17485TIP3   OH273945   3.399   1.335  19.650  0.0796 -0.3848  0.2173
17485TIP3    H173946   3.352   1.318  19.731  1.4623  0.1446  1.1604
17485TIP3    H273947   3.361   1.417  19.617  0.2068 -0.0632  0.8635
17486TIP3   OH273948   1.477   2.231  13.386  0.1016  0.0337  0.5736
17486TIP3    H173949   1.425   2.158  13.353 -0.1794  0.2967  0.4305
17486TIP3    H273950   1.495   2.208  13.477  0.4227 -0.4400  0.3938
17487TIP3   OH273951   3.355   2.401  43.793  0.4706 -0.2271 -0.2228
17487TIP3    H173952   3.434   2.348  43.797  1.0710  0.5284 -1.3339
17487TIP3    H273953   3.284   2.341  43.815  1.3170 -0.9870  0.5139
17488TIP3   OH273954   1.715   2.850  42.933 -0.0974  0.1094  0.1520
17488TIP3    H173955   1.804   2.832  42.904  0.2864 -0.7375  1.7117
17488TIP3    H273956   1.713   2.944  42.948  0.6673  0.0797  0.4787
17489TIP3   OH273957   2.363   1.300   2.586  0.6354  0.4349 -0.4095
17489TIP3    H173958   2.401   1.249   2.658 -0.1699 -0.0485 -0.3079
17489TIP3    H273959   2.328   1.378   2.628  0.6207  0.3994 -0.3551
17490TIP3   OH273960   2.869   2.628  62.657  0.3043 -0.5406  0.2313
17490TIP3    H173961   2.789   2.586  62.689  0.6554 -0.1423  1.7058
17490TIP3    H273962   2.872   2.711  62.703  0.4371  0.4486 -1.4849
17491TIP3   OH273963   3.113   2.319  16.483  0.4290 -0.5428 -0.1912
17491TIP3    H173964   3.151   2.234  16.460 -0.4334 -0.9375 -0.2097
17491TIP3    H273965   3.084   2.356  16.399  0.5126 -0.3712 -0.1454
17492TIP3   OH273966   1.241   0.851   6.512 -0.6072 -0.0542  0.1028
17492TIP3    H173967   1.328   0.875   6.542 -1.0439 -0.5966  1.9299
17492TIP3    H273968   1.189   0.930   6.525 -0.6700 -0.1157  0.2258
17493TIP3   OH273969   1.814   1.337  13.000 -0.6751 -0.0882 -0.1071
17493TIP3    H173970   1.815   1.391  13.080 -0.7677  0.4482 -0.4590
17493TIP3    H273971   1.905   1.310  12.989 -0.6682 -0.1988  0.2058
17494TIP3   OH273972   2.968   0.094  52.245  0.1843  0.4351  0.2707
17494TIP3    H173973   2.918   0.175  52.260 -0.5404  0.2638 -1.0711
17494TIP3    H273974   3.022   0.113  52.168 -0.9319 -0.7368 -0.8472
17495TIP3   OH273975   0.100   2.923  13.351 -0.2942 -0.1111  0.1873
17495TIP3    H173976   0.104   2.942  13.257 -0.2596 -1.5091 -0.1155
17495TIP3    H273977   0.161   2.986  13.390  0.0145  0.2105 -0.7685
17496TIP3   OH273978   0.538   3.158   9.808  0.1186  0.3878  0.4852
17496TIP3    H173979   0.611   3.108   9.770 -0.0802  0.7823 -0.4613
17496TIP3    H273980   0.577   3.208   9.879  0.0909 -2.0844  2.3685
17497TIP3   OH273981   1.026   1.936  20.513  0.3396 -0.1404 -0.3258
17497TIP3    H173982   1.009   1.980  20.597 -0.0735  1.1646 -1.0719
17497TIP3    H273983   1.120   1.946  20.500  0.3768 -0.1898 -0.1046
17498TIP3   OH273984   2.283   2.090  19.291 -0.4214 -0.8458  0.3208
17498TIP3    H173985   2.187   2.090  19.286 -0.4266  1.3279 -0.5115
17498TIP3    H273986   2.312   2.132  19.210  1.2140 -0.7647  0.9052
17499TIP3   OH273987   2.859   3.383  18.635  0.6141  0.2490 -0.2252
17499TIP3    H173988   2.921   3.456  18.637 -2.6097  3.2051  0.5187
17499TIP3    H273989   2.775   3.422  18.659 -1.3915 -3.7216 -0.0264
17500TIP3   OH273990   2.922   1.903  19.421 -0.2189  0.0967  0.1787
17500TIP3    H173991   2.881   1.988  19.432  2.0396  1.3333 -0.3949
17500TIP3    H273992   2.849   1.843  19.402 -1.6732  2.2408 -1.3726
17501TIP3   OH273993   1.412   2.385  64.409  0.1442  0.2532  0.2331
17501TIP3    H173994   1.506   2.367  64.402 -0.0084 -1.0928  1.2277
17501TIP3    H273995   1.395   2.388  64.503 -0.5611  2.0435  0.0866
17502TIP3   OH273996   1.249   2.810  14.480  0.0680 -0.4828 -0.5618
17502TIP3    H173997   1.250   2.870  14.555  0.2325 -1.5578  0.3358
17502TIP3    H273998   1.285   2.860  14.408 -0.7436  0.8114 -0.1001
17503TIP3   OH273999   3.256   0.846  54.151 -0.2305  0.6784  0.7803
17503TIP3    H174000   3.263   0.933  54.191  1.0354  1.1640 -0.4283
17503TIP3    H274001   3.321   0.847  54.081 -0.5262 -1.0919  0.4494
17504TIP3   OH274002   0.009   1.044  65.977  0.2663 -0.3565 -0.5610
17504TIP3    H174003  -0.038   0.970  65.939  1.4944 -1.6584  0.3262
17504TIP3    H274004   0.064   1.077  65.905  1.4787 -1.8667 -0.4028
17505TIP3   OH274005   2.364   1.158  53.661 -0.2609  0.1826  0.0334
17505TIP3    H174006   2.347   1.202  53.578  0.8405  0.0039 -0.3059
17505TIP3    H274007   2.305   1.083  53.661  0.3289 -0.3027 -0.9959
17506TIP3   OH274008   0.532   1.784  12.385 -0.0846 -0.3483  0.4487
17506TIP3    H174009   0.567   1.695  12.396 -1.8344 -1.1948 -0.4707
17506TIP3    H274010   0.438   1.772  12.377 -0.3373  1.5862  0.0395
17507TIP3   OH274011   1.623   0.073  51.422 -0.5453  0.0827  0.2457
17507TIP3    H174012   1.606   0.166  51.407 -0.4903  0.2437  1.1222
17507TIP3    H274013   1.602   0.059  51.514  2.3579 -0.0856  0.9724
17508TIP3   OH274014   1.822   0.434  50.347 -0.3383 -0.4844 -0.4254
17508TIP3    H174015   1.871   0.387  50.279  1.0675 -1.3437  1.1042
17508TIP3    H274016   1.731   0.420  50.324  0.0909 -0.6270 -2.2086
17509TIP3   OH274017   2.166   0.786   8.783  0.1905 -0.3569 -0.1477
17509TIP3    H174018   2.183   0.845   8.856  1.3597 -2.9546  1.8437
17509TIP3    H274019   2.079   0.812   8.751 -0.7639  0.4034  2.7446
17510TIP3   OH274020   2.663   2.029  42.816 -0.0004 -0.1424  1.1026
17510TIP3    H174021   2.679   2.021  42.910 -1.5816  1.7945  1.6166
17510TIP3    H274022   2.637   2.121  42.805  1.7748  0.1454 -1.5186
17511TIP3   OH274023   3.035   2.440  23.204 -0.5137  0.0552 -0.0993
17511TIP3    H174024   3.014   2.499  23.131 -0.7401 -0.1839 -0.2279
17511TIP3    H274025   3.108   2.388  23.172 -1.4147 -0.9116 -0.6289
17512TIP3   OH274026   3.225   3.021  59.052  0.2777 -0.2291 -0.1199
17512TIP3    H174027   3.239   3.114  59.072 -1.7216  0.1789 -0.3813
17512TIP3    H274028   3.207   3.020  58.958  1.4266 -1.0573 -0.3498
17513TIP3   OH274029   2.417   3.008  57.170  0.2087  0.5097 -0.5916
17513TIP3    H174030   2.479   2.960  57.115  0.1991  0.1409 -0.2838
17513TIP3    H274031   2.370   3.066  57.109  0.6405  0.5669 -0.8719
17514TIP3   OH274032   1.939   0.481  46.211 -0.1214  0.6073  0.0736
17514TIP3    H174033   2.002   0.551  46.227  0.0589 -0.0709  2.7765
17514TIP3    H274034   1.862   0.527  46.176  1.2547  1.6131 -1.8873
17515TIP3   OH274035   2.972   0.955  43.072  0.4222  0.5571  0.2310
17515TIP3    H174036   3.010   0.867  43.064 -0.7313  0.0043  0.5846
17515TIP3    H274037   3.034   1.012  43.027  0.8742 -0.5246 -0.5702
17516TIP3   OH274038   0.316   2.341  10.782  0.4067 -0.5384  0.5050
17516TIP3    H174039   0.251   2.274  10.764  2.2417 -2.2459 -0.2101
17516TIP3    H274040   0.358   2.313  10.863 -1.2831  1.8616  2.3312
17517TIP3   OH274041   2.504   1.463  10.044 -0.0313  0.2283  0.1700
17517TIP3    H174042   2.591   1.483  10.008 -1.1506  0.4489 -2.6705
17517TIP3    H274043   2.504   1.368  10.055  0.8565  0.3171  1.1449
17518TIP3   OH274044   0.321   2.805  11.454  0.1476  0.4375 -0.1134
17518TIP3    H174045   0.303   2.894  11.484 -2.0269 -0.2889  0.9027
17518TIP3    H274046   0.358   2.761  11.531 -0.7718 -0.0967  0.0291
17519TIP3   OH274047   0.636   3.206  17.076  0.0892 -0.2212  0.1632
17519TIP3    H174048   0.555   3.188  17.125  0.1732 -1.4930 -0.1431
17519TIP3    H274049   0.651   3.300  17.089 -1.1902 -0.0562  0.5933
17520TIP3   OH274050   0.580   1.053  52.855 -0.3558 -0.5561 -0.7960
17520TIP3    H174051   0.516   1.031  52.788  0.1913 -0.7320 -1.2702
17520TIP3    H274052   0.648   0.986  52.847 -0.3116 -0.6132 -0.0227
17521TIP3   OH274053   2.373   3.319  42.964 -0.2471  0.2524 -0.0984
17521TIP3    H174054   2.417   3.360  43.039 -2.5721 -0.2304  1.6481
17521TIP3    H274055   2.441   3.267  42.922  0.6632 -1.4934  3.2078
17522TIP3   OH274056   2.535   2.318  62.874  0.1918  0.0912 -0.6314
17522TIP3    H174057   2.452   2.271  62.879 -0.2974  1.0172  0.5096
17522TIP3    H274058   2.563   2.310  62.783 -2.2010  1.5264 -1.5761
17523TIP3   OH274059   1.181   0.964   4.489  0.5137  0.1519  0.7843
17523TIP3    H174060   1.268   0.928   4.477  0.7675  1.0396 -0.1366
17523TIP3    H274061   1.186   1.011   4.572  0.5226 -0.8722  1.3825
17524TIP3   OH274062   0.376   0.359  51.775  0.1618  0.0212  0.7858
17524TIP3    H174063   0.281   0.355  51.787  0.2714 -1.1250  1.4525
17524TIP3    H274064   0.405   0.426  51.836 -0.1107 -0.4335  1.4271
17525TIP3   OH274065   0.021   2.221  20.501 -0.3401  0.4279  0.5431
17525TIP3    H174066   0.065   2.283  20.559 -0.7163  0.4231  0.8410
17525TIP3    H274067   0.080   2.212  20.426  0.5021 -0.1334  1.2519
17526TIP3   OH274068   0.249   1.375  29.520 -0.7446 -0.7639 -0.0471
17526TIP3    H174069   0.199   1.294  29.534 -2.3980  0.0555 -0.9102
17526TIP3    H274070   0.219   1.406  29.435  0.7551  0.1542 -0.2565
17527TIP3   OH274071   0.491   0.345   7.707 -0.0735  0.2134  0.1544
17527TIP3    H174072   0.492   0.420   7.648 -0.3841  1.3255  1.4931
17527TIP3    H274073   0.542   0.278   7.662 -0.5307  0.9191 -1.4652
17528TIP3   OH274074   1.687   2.749  62.632  0.0162  0.0054 -0.5749
17528TIP3    H174075   1.775   2.725  62.663 -0.4186  0.2557  0.9264
17528TIP3    H274076   1.701   2.776  62.541  2.1324  3.4127  0.5834
17529TIP3   OH274077   0.295   1.805  65.242  0.2722 -0.4598  0.4185
17529TIP3    H174078   0.331   1.836  65.325 -1.0067  1.7581  0.2009
17529TIP3    H274079   0.358   1.738  65.213  2.0588  0.4399  1.9687
17530TIP3   OH274080   1.640   1.455   8.745 -0.9416  0.2038 -0.2457
17530TIP3    H174081   1.719   1.509   8.738  0.0510 -1.3563 -5.1101
17530TIP3    H274082   1.570   1.511   8.710 -0.3167 -0.6623 -3.2251
17531TIP3   OH274083   3.110   1.411  53.922  0.4738 -0.4531 -0.0797
17531TIP3    H174084   3.155   1.449  53.997 -1.8864  2.2429  0.1688
17531TIP3    H274085   3.167   1.429  53.847  2.5833 -2.6778  0.8771
17532TIP3   OH274086   3.253   0.197  15.272 -0.3524 -0.2658 -0.4406
17532TIP3    H174087   3.185   0.134  15.246  0.2504 -1.0010 -0.2626
17532TIP3    H274088   3.238   0.273  15.215 -0.2375 -1.1053 -1.6184
17533TIP3   OH274089   0.377   0.781  16.633 -0.3215 -0.1419 -0.6413
17533TIP3    H174090   0.436   0.855  16.644  0.4306 -0.8899  0.6084
17533TIP3    H274091   0.414   0.712  16.688 -1.5129 -1.1470 -1.0409
17534TIP3   OH274092   0.234   1.595  43.394  0.4569 -0.2717 -0.0967
17534TIP3    H174093   0.281   1.512  43.383 -1.1666 -1.0082 -2.0989
17534TIP3    H274094   0.207   1.595  43.486  0.9914 -1.6765  0.0816
17535TIP3   OH274095   2.874   2.893  44.688  0.5245  0.8440  0.1313
17535TIP3    H174096   2.934   2.823  44.661 -0.5424  0.2987 -0.9347
17535TIP3    H274097   2.921   2.973  44.666  0.4667  0.4276 -1.7559
17536TIP3   OH274098   1.171   2.014  58.211  0.0872  0.0128 -0.4257
17536TIP3    H174099   1.130   1.964  58.140  1.8911 -1.6825 -0.3475
17536TIP3    H274100   1.253   2.046  58.173  1.6385 -1.8751  1.1153
17537TIP3   OH274101   3.134   1.019  14.660  0.2899 -0.1267  0.0871
17537TIP3    H174102   3.217   1.005  14.705  1.2912  1.1115 -1.2796
17537TIP3    H274103   3.067   0.995  14.724  1.6814 -0.3662  1.4923
17538TIP3   OH274104   1.199   1.121  38.060  0.1315 -0.2853  0.0624
17538TIP3    H174105   1.183   1.175  37.982  0.8002  1.3284  1.0067
17538TIP3    H274106   1.290   1.136  38.082 -0.6197  1.2216  2.5364
17539TIP3   OH274107   0.551   1.156  46.408 -0.7319 -0.4011 -0.3931
17539TIP3    H174108   0.478   1.096  46.392 -0.0106 -1.4963  0.3327
17539TIP3    H274109   0.602   1.155  46.326 -1.1853 -0.0919 -0.6855
17540TIP3   OH274110   1.478   0.778  13.545 -0.4943 -0.1563  0.3988
17540TIP3    H174111   1.516   0.860  13.513  0.9028 -0.9213  0.0486
17540TIP3    H274112   1.526   0.709  13.499 -1.0877 -1.2047  1.2990
17541TIP3   OH274113   0.418   1.399  52.812 -0.5315  0.5615  0.7816
17541TIP3    H174114   0.455   1.487  52.817 -2.0313  1.1732  1.9279
17541TIP3    H274115   0.478   1.346  52.865  1.5546  0.3778 -1.5719
17542TIP3   OH274116   2.687   0.419  50.351 -0.8139  0.4243 -0.1145
17542TIP3    H174117   2.605   0.379  50.381 -0.3709 -0.0734  0.4574
17542TIP3    H274118   2.691   0.503  50.397 -0.0618 -0.3987  1.4194
17543TIP3   OH274119   1.122   0.916  50.820  0.3490  0.4204  0.0702
17543TIP3    H174120   1.131   0.820  50.819 -0.4453  0.3247 -2.0946
17543TIP3    H274121   1.200   0.946  50.868  0.2406 -1.3006  1.4552
17544TIP3   OH274122   2.174   3.111  56.582 -0.1697  0.2461 -0.3065
17544TIP3    H174123   2.153   3.032  56.533  0.4941  0.3975 -0.8571
17544TIP3    H274124   2.270   3.109  56.590 -0.3105 -0.6210  2.4242
17545TIP3   OH274125   0.413   1.006  53.660 -0.6466 -0.6775  0.1782
17545TIP3    H174126   0.380   1.081  53.708 -0.3912 -0.6667  0.3376
17545TIP3    H274127   0.507   1.020  53.654 -0.8080 -0.0987 -1.3294
17546TIP3   OH274128   1.061   1.191  67.444 -0.6920 -0.3543  0.0017
17546TIP3    H174129   1.099   1.137  67.375 -0.3839 -1.3305  0.9195
17546TIP3    H274130   0.993   1.136  67.483 -2.5356  1.0488 -1.0580
17547TIP3   OH274131   1.294   1.657  46.373 -0.0082  0.0205 -0.2514
17547TIP3    H174132   1.389   1.661  46.360 -0.2279  1.0331 -1.8090
17547TIP3    H274133   1.273   1.564  46.372  0.7017 -0.1608 -2.3123
17548TIP3   OH274134   2.510   2.466  20.007 -0.6475  0.0632  0.2558
17548TIP3    H174135   2.508   2.489  20.100 -0.5840 -2.7622  1.0681
17548TIP3    H274136   2.439   2.403  19.997 -1.2309  1.0026 -1.8571
17549TIP3   OH274137   2.629   1.211  44.491  0.1760  0.1590  0.5039
17549TIP3    H174138   2.651   1.241  44.579  2.5482  2.3345 -0.7079
17549TIP3    H274139   2.612   1.117  44.501 -0.2266  0.4512  3.3178
17550TIP3   OH274140   1.456   0.664  13.123  0.0062 -0.0539 -0.0835
17550TIP3    H174141   1.526   0.692  13.063  0.4593 -0.2559  0.3441
17550TIP3    H274142   1.377   0.706  13.088  0.4861  0.9194 -0.0555
17551TIP3   OH274143   3.123   3.162  62.660  0.1936 -0.2084  0.2730
17551TIP3    H174144   3.218   3.154  62.655  0.1822 -0.7117  0.7123
17551TIP3    H274145   3.090   3.090  62.605  0.0718 -0.0240  0.1039
17552TIP3   OH274146   0.565   1.736  59.535  0.1969 -0.6268 -0.8193
17552TIP3    H174147   0.495   1.791  59.569 -0.4687 -1.4883 -0.7678
17552TIP3    H274148   0.527   1.648  59.530  1.5904 -1.3235  0.2260
17553TIP3   OH274149   1.106   0.319  56.327 -0.4399 -0.2860  0.4728
17553TIP3    H174150   1.038   0.350  56.267 -0.0054  1.4086  0.7882
17553TIP3    H274151   1.184   0.312  56.273 -0.6098 -1.1674  0.3378
17554TIP3   OH274152   1.013   1.439   1.412 -0.2740  0.0951 -0.3661
17554TIP3    H174153   0.943   1.374   1.411  0.7574 -1.0656  0.2017
17554TIP3    H274154   0.970   1.520   1.439 -1.2751 -0.7307  0.6048
17555TIP3   OH274155   2.800   1.386  63.541 -0.1212  0.0525  0.8943
17555TIP3    H174156   2.822   1.471  63.579 -1.1929 -0.3643  2.5480
17555TIP3    H274157   2.735   1.407  63.473  0.8770  0.6778  0.0893
17556TIP3   OH274158   2.393   0.816  43.414  0.2701  0.1405  0.3751
17556TIP3    H174159   2.355   0.813  43.326 -0.5445  0.1465  0.7286
17556TIP3    H274160   2.476   0.768  43.405  0.2597  0.2508 -0.4208
17557TIP3   OH274161   0.871   2.557   7.494 -0.2905 -0.0500 -0.0979
17557TIP3    H174162   0.862   2.600   7.579  0.7181  1.8264 -0.8916
17557TIP3    H274163   0.883   2.628   7.432  0.9664 -1.4568 -1.5590
17558TIP3   OH274164   0.802   1.350   0.995  0.3864 -0.3022  0.3431
17558TIP3    H174165   0.725   1.292   0.991  0.8940 -0.9915  0.3714
17558TIP3    H274166   0.821   1.371   0.904  0.9641 -1.2263  0.2353
17559TIP3   OH274167   3.252   3.436  47.354 -0.0659  0.1899  0.1022
17559TIP3    H174168   3.175   3.489  47.333 -0.0574  0.7917  1.5272
17559TIP3    H274169   3.268   3.386  47.273 -0.4532  1.8672 -1.0735
17560TIP3   OH274170   2.939   3.226  28.607 -0.8846  1.0249 -0.6061
17560TIP3    H174171   3.027   3.205  28.578 -0.1314  0.3208  1.8926
17560TIP3    H274172   2.951   3.297  28.671 -2.1206  0.9325 -0.2306
17561TIP3   OH274173   0.622   1.924   2.283 -0.1240  0.0269  0.6518
17561TIP3    H174174   0.632   1.830   2.303 -0.2821 -0.1551 -0.0963
17561TIP3    H274175   0.530   1.942   2.303 -1.0542 -0.8045 -2.3571
17562TIP3   OH274176   3.080   0.196  49.481 -0.0283  0.0696 -0.4085
17562TIP3    H174177   3.101   0.249  49.404  0.3118 -0.0515 -0.4048
17562TIP3    H274178   3.070   0.107  49.447  5.4607 -1.1761  0.2310
17563TIP3   OH274179   0.444   1.959  56.204 -0.3050 -0.1872  0.7565
17563TIP3    H174180   0.392   2.036  56.182  0.7855  0.4317  0.2412
17563TIP3    H274181   0.382   1.887  56.205 -1.0179  0.3787 -0.7087
17564TIP3   OH274182   0.059   1.105  20.449 -0.0608 -0.3307  0.1153
17564TIP3    H174183  -0.023   1.066  20.419  0.2204 -0.0303 -1.0819
17564TIP3    H274184   0.116   1.031  20.469 -0.7900 -0.5514  1.4950
17565TIP3   OH274185   1.059   1.503  59.002  0.0680  0.0439  0.1893
17565TIP3    H174186   1.037   1.485  58.910  1.1146 -1.0668  0.1407
17565TIP3    H274187   1.106   1.587  58.999 -2.3606  1.4990  0.0853
17566TIP3   OH274188   2.550   1.413   8.637  0.5733 -0.1695  0.0891
17566TIP3    H174189   2.574   1.343   8.576  0.8600 -0.6144  0.6893
17566TIP3    H274190   2.538   1.490   8.583  0.0545 -0.7330 -0.6114
17567TIP3   OH274191   2.080   0.648  50.681  0.8712 -0.4236 -0.4070
17567TIP3    H174192   2.033   0.686  50.607 -0.6074  0.4481  0.8951
17567TIP3    H274193   2.012   0.607  50.734  1.8024 -0.5730  0.7161
17568TIP3   OH274194   3.279   1.995  22.411  0.1594  0.1615 -0.3464
17568TIP3    H174195   3.295   1.934  22.483 -1.6375 -0.2529 -0.2341
17568TIP3    H274196   3.281   1.940  22.332 -0.4066  0.1387 -0.3493
17569TIP3   OH274197   1.246   0.426  65.169  0.4108  0.2135 -0.4853
17569TIP3    H174198   1.200   0.357  65.120  1.8154 -1.2703  0.1850
17569TIP3    H274199   1.301   0.469  65.103  1.6432 -1.2131 -0.4601
17570TIP3   OH274200   0.889   0.446  63.332 -0.1832  0.3355  0.1694
17570TIP3    H174201   0.938   0.519  63.372  2.0190 -1.2651  0.6089
17570TIP3    H274202   0.816   0.430  63.392 -1.6872  3.1133 -0.7450
17571TIP3   OH274203   0.503   2.078  63.259  0.6011 -0.2822  0.1724
17571TIP3    H174204   0.420   2.107  63.221  0.9636 -0.4432 -0.7439
17571TIP3    H274205   0.519   1.992  63.221  1.0074 -0.4207  0.6421
17572TIP3   OH274206   2.320   0.300  54.984 -0.3832  0.1559 -0.1059
17572TIP3    H174207   2.250   0.294  54.920 -0.7375 -0.9551  0.3519
17572TIP3    H274208   2.322   0.213  55.025  1.6583 -0.0565 -0.5281
17573TIP3   OH274209   1.207   1.380  19.140  0.1717  0.4547  0.4868
17573TIP3    H174210   1.228   1.397  19.232  2.4714  1.3050 -0.1388
17573TIP3    H274211   1.202   1.466  19.101 -1.9686  0.1562 -0.0108
17574TIP3   OH274212   0.946   2.867   1.107 -0.1996 -0.0230  0.1609
17574TIP3    H174213   1.040   2.853   1.115 -0.1463 -0.8271 -1.4142
17574TIP3    H274214   0.928   2.946   1.159  1.4277  0.4598  0.0280
17575TIP3   OH274215   1.262   1.762  59.916 -0.6842 -0.1350  0.0836
17575TIP3    H174216   1.285   1.783  59.826 -0.9008 -2.2039 -0.5170
17575TIP3    H274217   1.224   1.674  59.911 -1.7429  0.1483  2.0487
17576TIP3   OH274218   0.601   0.865  43.916 -0.1242 -0.3064  0.2164
17576TIP3    H174219   0.646   0.790  43.956  1.6174  1.1111  1.0644
17576TIP3    H274220   0.665   0.937  43.921 -1.1821  0.8821 -1.9109
17577TIP3   OH274221   0.133   1.595  19.709 -0.5213 -0.3820 -1.0847
17577TIP3    H174222   0.066   1.571  19.774 -0.6257  0.5723 -0.8227
17577TIP3    H274223   0.214   1.602  19.759 -0.5649  0.1610 -1.0732
17578TIP3   OH274224   1.425   0.123  61.027 -0.4428  0.0946 -0.4122
17578TIP3    H174225   1.434   0.180  61.104  0.0769  0.9920 -1.1220
17578TIP3    H274226   1.505   0.137  60.977 -0.5704 -0.8314 -0.8912
17579TIP3   OH274227   2.436   2.887  13.099 -0.1051 -0.2213  0.1531
17579TIP3    H174228   2.452   2.812  13.041 -2.1177 -0.5223 -0.0653
17579TIP3    H274229   2.477   2.961  13.054 -0.0181 -0.7934 -0.7259
17580TIP3   OH274230   0.137   2.772  22.564 -0.7248 -0.0694 -0.1583
17580TIP3    H174231   0.206   2.819  22.517 -1.0350 -0.3913 -0.9446
17580TIP3    H274232   0.173   2.759  22.652 -0.2365  0.7559 -0.2195
17581TIP3   OH274233   2.397   1.824  53.031  0.2540  0.0681  0.0766
17581TIP3    H174234   2.356   1.897  52.987 -0.6989 -0.1756  0.5327
17581TIP3    H274235   2.491   1.841  53.024  0.0710  0.8314 -0.6456
17582TIP3   OH274236   0.865   1.642  54.636 -0.0313  0.0679  0.4244
17582TIP3    H174237   0.897   1.551  54.640 -0.9851 -0.2575  0.9168
17582TIP3    H274238   0.842   1.664  54.726 -0.3360  0.6107  0.2179
17583TIP3   OH274239   2.567   2.649  14.734 -0.1042 -0.3359 -0.2607
17583TIP3    H174240   2.593   2.667  14.643 -0.4119  1.1459 -0.0820
17583TIP3    H274241   2.649   2.637  14.781  0.0486 -1.3374 -0.7784
17584TIP3   OH274242   1.952   0.689  13.093  0.0718 -0.6436 -0.8419
17584TIP3    H174243   2.031   0.638  13.071  2.1731  0.9215  2.3376
17584TIP3    H274244   1.966   0.717  13.183 -2.5919  2.6392 -1.2746
17585TIP3   OH274245   2.348   2.573  48.560  0.4351  0.0593  0.3334
17585TIP3    H174246   2.421   2.541  48.614  0.5900 -0.1047  0.0289
17585TIP3    H274247   2.369   2.665  48.545  0.0414  0.2912  1.1203
17586TIP3   OH274248   0.190   1.358   2.699  0.1354  0.2565 -0.0115
17586TIP3    H174249   0.256   1.330   2.635 -0.7693  0.4188 -1.0433
17586TIP3    H274250   0.231   1.430   2.746  1.2713 -0.6506  0.4454
17587TIP3   OH274251   1.046   2.708  65.899 -0.6401  0.2028 -0.2321
17587TIP3    H174252   1.014   2.797  65.913  0.2708  0.8832 -2.1225
17587TIP3    H274253   1.126   2.702  65.950 -1.3515  0.0029  0.9103
17588TIP3   OH274254   0.914   0.292   4.153  0.2729 -0.2742 -0.5102
17588TIP3    H174255   0.951   0.298   4.241 -0.3294  0.2141 -0.2832
17588TIP3    H274256   0.936   0.204   4.123 -0.3148 -0.7829  0.5029
17589TIP3   OH274257   0.357   2.162  46.954  0.9417 -0.3166  0.6130
17589TIP3    H174258   0.299   2.206  46.891  1.9348  2.5736  1.5189
17589TIP3    H274259   0.320   2.184  47.039  1.7043 -1.0095  1.1306
17590TIP3   OH274260   1.899   0.507  58.709 -0.8825 -0.1075  0.3884
17590TIP3    H174261   1.814   0.469  58.684  0.0082 -1.4956 -0.6924
17590TIP3    H274262   1.952   0.431  58.735  1.2750  0.1511 -2.7132
17591TIP3   OH274263   1.061   0.800  18.830  0.2090 -0.5092  0.1266
17591TIP3    H174264   1.030   0.843  18.751 -0.3260  0.8672  1.0425
17591TIP3    H274265   1.028   0.710  18.823 -0.7862 -0.1023 -0.6800
17592TIP3   OH274266   1.309   1.722  58.949 -0.2869 -0.5778  0.3155
17592TIP3    H174267   1.303   1.695  58.857 -1.4442 -0.9471  0.4860
17592TIP3    H274268   1.397   1.760  58.957 -0.1052 -0.7062 -0.8954
17593TIP3   OH274269   3.127   2.861  22.900  0.0580  0.2750  0.7022
17593TIP3    H174270   3.217   2.840  22.873  0.1033  1.2488  0.0420
17593TIP3    H274271   3.099   2.786  22.952  0.5051 -1.0278 -0.8730
17594TIP3   OH274272   2.733   0.660  13.699  0.3028  0.4838 -0.7152
17594TIP3    H174273   2.780   0.735  13.664 -0.1999  0.7549 -0.8142
17594TIP3    H274274   2.646   0.693  13.721  0.4309  0.1792  0.2694
17595TIP3   OH274275   0.961   3.200  60.072  0.1142 -0.1045  0.0115
17595TIP3    H174276   1.018   3.136  60.030  0.0377 -0.5905  0.6275
17595TIP3    H274277   1.004   3.221  60.155  0.0578  0.5226 -0.1133
17596TIP3   OH274278   1.752   3.378  54.036  0.1826  0.1095 -0.6704
17596TIP3    H174279   1.799   3.374  53.952 -1.1254  0.2266 -1.4465
17596TIP3    H274280   1.758   3.470  54.062  0.7780  0.0304 -0.5312
17597TIP3   OH274281   0.034   2.022  56.255  0.3745  0.2269 -0.6090
17597TIP3    H174282   0.088   2.043  56.331  1.8901 -1.2671 -1.2191
17597TIP3    H274283  -0.049   1.990  56.292  0.8583  0.1174  0.3977
17598TIP3   OH274284   0.170   1.555  46.571 -0.1425 -0.4274  0.1113
17598TIP3    H174285   0.122   1.613  46.512  0.7357 -0.0895 -0.2952
17598TIP3    H274286   0.262   1.575  46.555  0.2049 -2.0642 -0.1703
17599TIP3   OH274287   2.372   2.767  17.123  0.1307 -0.1010  0.3753
17599TIP3    H174288   2.432   2.797  17.191  0.2008  1.2923 -0.2614
17599TIP3    H274289   2.287   2.758  17.168  0.4359 -0.3889  0.8983
17600TIP3   OH274290   2.733   1.442   9.698  0.3041 -0.1908  0.7147
17600TIP3    H174291   2.751   1.481   9.784  1.8523  0.1606  0.2472
17600TIP3    H274292   2.766   1.505   9.635  0.2510 -0.9836 -0.1294
17601TIP3   OH274293   2.920   2.500  48.286  0.4317 -0.5300 -0.0974
17601TIP3    H174294   2.827   2.513  48.308  0.2707 -0.7297 -0.6537
17601TIP3    H274295   2.958   2.587  48.290  0.9536 -0.7435  3.2877
17602TIP3   OH274296   0.922   2.655  38.706  0.0808  0.1198  0.1793
17602TIP3    H174297   0.877   2.629  38.625 -2.1151 -1.5623  1.8256
17602TIP3    H274298   1.010   2.619  38.697 -0.4696 -1.0014 -0.9958
17603TIP3   OH274299   0.702   0.147  57.659 -0.0238  0.0967  0.3768
17603TIP3    H174300   0.727   0.148  57.752 -0.2814 -1.4548  0.4907
17603TIP3    H274301   0.622   0.199  57.656 -1.1661 -1.4965  1.4227
17604TIP3   OH274302   0.790   0.463  17.820 -0.4954 -0.4178 -0.1227
17604TIP3    H174303   0.776   0.527  17.891  1.6886 -0.2555  0.2354
17604TIP3    H274304   0.826   0.515  17.748 -1.8460 -0.7385 -1.0533
17605TIP3   OH274305   1.499   1.262  17.975 -0.2252  0.0900  0.1562
17605TIP3    H174306   1.458   1.251  18.061 -0.0562 -1.2936  0.0795
17605TIP3    H274307   1.589   1.233  17.987  0.7949  2.9391  0.2780
17606TIP3   OH274308   2.921   1.230  64.400  0.0789  0.4130 -0.2126
17606TIP3    H174309   2.900   1.213  64.491  2.0435  0.2419  0.2360
17606TIP3    H274310   2.989   1.167  64.378 -0.5193  0.2946 -1.8840
17607TIP3   OH274311   0.377   2.499  56.649 -0.2443  0.0523  0.0828
17607TIP3    H174312   0.392   2.503  56.555  2.7957 -2.6984  0.2434
17607TIP3    H274313   0.451   2.547  56.687  1.0844 -2.5419  0.9875
17608TIP3   OH274314   1.652   1.672  61.381 -0.3692  1.0877  0.0395
17608TIP3    H174315   1.572   1.659  61.331 -0.6732  2.5391  0.1013
17608TIP3    H274316   1.642   1.617  61.459 -0.4271 -0.2434 -0.8950
17609TIP3   OH274317   2.592   0.029  46.511 -0.0120 -0.1155 -0.4442
17609TIP3    H174318   2.504   0.067  46.511 -1.2162 -2.0463  4.9687
17609TIP3    H274319   2.591  -0.032  46.438 -2.6019  0.9290 -1.4154
17610TIP3   OH274320   2.725   1.200  63.211  0.4771 -0.0166 -0.0689
17610TIP3    H174321   2.653   1.150  63.173  1.4418 -1.0983 -0.5817
17610TIP3    H274322   2.707   1.291  63.188 -0.5467 -0.3100 -0.4708
17611TIP3   OH274323   0.295   0.600   6.429  0.3142  0.1238  0.1911
17611TIP3    H174324   0.319   0.532   6.366 -0.4652  1.3411 -1.5203
17611TIP3    H274325   0.365   0.665   6.421 -0.8519  1.2929 -1.0700
17612TIP3   OH274326   1.986   1.173  49.425 -0.3236 -0.2879  0.4489
17612TIP3    H174327   2.074   1.138  49.436  0.4730  0.4117 -2.7921
17612TIP3    H274328   1.928   1.097  49.436  0.9256 -1.4067 -0.4671
17613TIP3   OH274329   2.480   0.766  57.054 -0.1677  0.5777  0.1596
17613TIP3    H174330   2.436   0.838  57.008 -0.6493 -0.2528 -0.7186
17613TIP3    H274331   2.530   0.809  57.124 -1.2678  1.6670  0.3069
17614TIP3   OH274332   2.151   2.126   7.339  0.0964 -0.1611 -0.1080
17614TIP3    H174333   2.235   2.161   7.368 -0.4213  1.0396  0.0071
17614TIP3    H274334   2.089   2.198   7.352 -0.9600 -1.0313 -0.1586
17615TIP3   OH274335   0.921   2.614   1.755  0.2511  0.0992  0.7619
17615TIP3    H174336   0.859   2.614   1.682 -0.9479  0.2433  1.7576
17615TIP3    H274337   0.951   2.705   1.761  1.4669 -0.1863 -0.4361
17616TIP3   OH274338   1.171   0.485   4.119  0.0663 -0.3003 -0.4061
17616TIP3    H174339   1.084   0.459   4.090 -0.3804  0.4059  0.2549
17616TIP3    H274340   1.231   0.428   4.070 -0.7090 -0.0886 -1.6512
17617TIP3   OH274341   1.868   3.386  44.813  0.0630  0.1264 -0.1762
17617TIP3    H174342   1.930   3.450  44.848 -1.1885 -0.3677  3.3685
17617TIP3    H274343   1.782   3.417  44.843 -0.9892 -1.3201 -1.5122
17618TIP3   OH274344   2.674   2.146  22.112 -0.4809 -0.7892  0.0042
17618TIP3    H174345   2.715   2.144  22.199  0.3329 -1.0961 -0.3823
17618TIP3    H274346   2.745   2.126  22.051 -1.2115 -1.3395 -0.6825
17619TIP3   OH274347   2.006   2.863  22.152 -0.5331 -0.1938 -0.5424
17619TIP3    H174348   1.948   2.788  22.141  1.9756 -2.2225 -0.8200
17619TIP3    H274349   2.004   2.881  22.246  0.8132 -2.4114 -0.0078
17620TIP3   OH274350   0.911   3.417  46.377  0.6021 -0.3378  0.2735
17620TIP3    H174351   0.844   3.436  46.443 -1.0785  0.6861 -1.6104
17620TIP3    H274352   0.925   3.501  46.332  1.3114 -1.1047 -0.9961
17621TIP3   OH274353   0.886   1.607  17.744 -0.4551 -0.4945 -0.2042
17621TIP3    H174354   0.853   1.680  17.797 -2.6595  0.0368 -2.0947
17621TIP3    H274355   0.820   1.538  17.755  0.4842 -1.4047 -0.1366
17622TIP3   OH274356   2.932   2.828  43.264  0.6586 -0.6443 -0.1019
17622TIP3    H174357   2.940   2.852  43.357  2.5348 -3.5175  0.6059
17622TIP3    H274358   2.930   2.912  43.218 -0.9981  0.9021  2.5346
17623TIP3   OH274359   2.280   0.771  15.238 -0.5240 -0.0947  0.1816
17623TIP3    H174360   2.375   0.761  15.238 -0.2009  2.0032  2.4257
17623TIP3    H274361   2.265   0.859  15.271 -3.2819 -0.4238  0.0437
17624TIP3   OH274362   2.005   1.912  21.763 -0.0444  0.5449 -0.2407
17624TIP3    H174363   2.015   1.816  21.762 -0.6231  0.4784 -0.4841
17624TIP3    H274364   1.914   1.926  21.737  0.5406  1.2246 -2.0592
17625TIP3   OH274365   2.456   0.676  62.245  0.1288 -0.0961  0.3224
17625TIP3    H174366   2.515   0.752  62.239 -0.1586  0.1151  0.1410
17625TIP3    H274367   2.465   0.646  62.336  0.4846 -0.0409  0.3079
17626TIP3   OH274368   2.969   0.443  14.976 -0.2050 -0.2590 -0.5638
17626TIP3    H174369   3.046   0.398  14.943  0.9110  1.3827 -0.3486
17626TIP3    H274370   2.983   0.449  15.071 -0.8725 -0.4558 -0.4498
17627TIP3   OH274371   0.733   0.236  10.022  0.6064  0.1007  0.0507
17627TIP3    H174372   0.771   0.321  10.000  1.4937  0.2656  1.9835
17627TIP3    H274373   0.642   0.255  10.043  1.0644  0.7862  1.5115
17628TIP3   OH274374   0.912   1.795  33.971 -0.3902 -0.2477  0.2986
17628TIP3    H174375   0.888   1.706  33.995 -3.0425 -0.0400 -1.2264
17628TIP3    H274376   0.834   1.847  33.990 -0.0934  1.1421 -1.9803
17629TIP3   OH274377   2.873   1.167   5.153  0.0465  0.6008 -0.1609
17629TIP3    H174378   2.782   1.162   5.127  0.3188  0.9117 -1.2201
17629TIP3    H274379   2.875   1.239   5.218 -0.3612  0.9909 -0.5721
17630TIP3   OH274380   0.810   2.824  57.832 -0.0711  0.0671  0.1612
17630TIP3    H174381   0.767   2.772  57.900  2.7745  0.5809  2.5266
17630TIP3    H274382   0.852   2.759  57.775 -0.1111 -0.3068  0.5556
17631TIP3   OH274383   0.932   2.514  36.335 -0.0954  0.3228  0.0753
17631TIP3    H174384   0.963   2.447  36.396 -1.2105  1.7074  2.3150
17631TIP3    H274385   0.989   2.589  36.350 -0.5015  0.7473 -0.4517
17632TIP3   OH274386   1.472   2.104   9.651 -0.7654  0.0532 -0.4613
17632TIP3    H174387   1.529   2.030   9.672  0.9117  0.9881 -1.5282
17632TIP3    H274388   1.397   2.064   9.607  0.4472 -1.0073 -1.6698
17633TIP3   OH274389   3.194   2.648  48.562 -0.7153  0.0490 -0.1693
17633TIP3    H174390   3.212   2.621  48.472  1.2941  0.9827 -0.0873
17633TIP3    H274391   3.122   2.591  48.590  0.5550 -2.3092 -1.3878
17634TIP3   OH274392   0.815   2.018  63.262 -0.6245 -0.5645 -0.0675
17634TIP3    H174393   0.815   2.102  63.217  0.7493 -0.3255  0.3231
17634TIP3    H274394   0.740   1.971  63.226 -1.2212  0.6960 -0.5212
17635TIP3   OH274395   2.470   1.519  45.032 -0.2166 -0.1846  0.2111
17635TIP3    H174396   2.501   1.609  45.041 -0.6255 -0.0920  0.7125
17635TIP3    H274397   2.397   1.513  45.093 -1.1841 -0.4021 -0.9348
17636TIP3   OH274398   2.927   0.617  18.951  0.0720 -0.5146  0.1014
17636TIP3    H174399   2.898   0.702  18.918  1.9925  0.6177  1.1613
17636TIP3    H274400   2.998   0.637  19.012  2.2865 -2.9984 -1.4452
17637TIP3   OH274401   0.103   0.924  29.684 -0.3428  0.4946 -0.3819
17637TIP3    H174402   0.111   0.999  29.626 -0.0138 -0.0831 -1.1104
17637TIP3    H274403   0.150   0.950  29.764  0.0193  0.9503 -0.7367
17638TIP3   OH274404   2.607   3.219   6.835  0.5623  0.3135  0.7934
17638TIP3    H174405   2.514   3.199   6.834  0.6172  0.0609 -0.1847
17638TIP3    H274406   2.611   3.313   6.854  0.0622  0.4890  0.0833
17639TIP3   OH274407   0.894   0.194  19.217 -0.4990  0.1878  0.1879
17639TIP3    H174408   0.982   0.159  19.228 -0.4263  0.2428 -0.2007
17639TIP3    H274409   0.836   0.124  19.249 -0.3493 -0.2476 -0.4865
17640TIP3   OH274410   2.361   2.210  55.803  0.6691  0.0330 -0.2390
17640TIP3    H174411   2.289   2.146  55.810 -0.3046  1.1511  0.5185
17640TIP3    H274412   2.437   2.164  55.837  0.4158 -1.3199 -1.4237
17641TIP3   OH274413   2.393   2.762   4.370 -0.3775 -0.2001 -0.3147
17641TIP3    H174414   2.459   2.723   4.428  1.5736  1.8880 -0.9589
17641TIP3    H274415   2.378   2.695   4.303  1.1434 -0.7406 -0.1659
17642TIP3   OH274416   1.559   0.806  19.967 -0.0501  0.4032  0.1634
17642TIP3    H174417   1.585   0.895  19.946  3.3113 -0.0740  1.5551
17642TIP3    H274418   1.540   0.807  20.061 -1.9096 -0.0177 -0.1704
17643TIP3   OH274419   2.675   2.026  67.390  0.1618 -0.0836 -0.3193
17643TIP3    H174420   2.654   1.950  67.445  1.1377 -0.6608 -0.7190
17643TIP3    H274421   2.770   2.033  67.394  0.2109  0.1519 -1.5555
17644TIP3   OH274422   0.239   2.824  56.920  0.1779 -0.1370 -0.1458
17644TIP3    H174423   0.246   2.917  56.942 -0.2322  0.0955 -0.9697
17644TIP3    H274424   0.265   2.819  56.828  1.1942 -0.9953  0.1783
17645TIP3   OH274425   3.040   1.286  55.843 -0.0263 -0.3385 -0.2049
17645TIP3    H174426   3.121   1.314  55.886  0.4874 -0.5767 -0.9793
17645TIP3    H274427   3.034   1.342  55.765 -0.8204 -0.0528  0.0540
17646TIP3   OH274428   1.198   1.373  12.163  0.2069 -0.5894  0.4964
17646TIP3    H174429   1.167   1.375  12.072  3.3925  0.7698 -0.7110
17646TIP3    H274430   1.207   1.465  12.187  0.0112 -0.9400  1.9977
17647TIP3   OH274431   3.306   2.290   3.832  0.0299 -0.0493 -0.5767
17647TIP3    H174432   3.395   2.259   3.852  0.1479  0.4795 -0.2560
17647TIP3    H274433   3.249   2.232   3.882  0.2491  0.2796  0.0640
17648TIP3   OH274434   1.348   0.048  56.130 -0.1884  0.0570  0.2784
17648TIP3    H174435   1.380  -0.009  56.199  1.9876 -0.2017 -0.8630
17648TIP3    H274436   1.320   0.127  56.175 -0.5246 -0.7751  1.6026
17649TIP3   OH274437   1.204   2.991  34.306  0.1058 -0.4382 -0.1957
17649TIP3    H174438   1.279   3.036  34.269 -0.1150  0.1032  0.0023
17649TIP3    H274439   1.225   2.898  34.297  1.0184 -0.2917  0.3044
17650TIP3   OH274440   1.204   2.183  50.423  0.1584  0.2895  0.0643
17650TIP3    H174441   1.208   2.257  50.362 -0.7090 -0.1874 -0.6065
17650TIP3    H274442   1.268   2.121  50.389 -1.8917 -0.9786 -1.8269
17651TIP3   OH274443   2.837   3.316  18.955  0.0965 -0.3818 -0.2492
17651TIP3    H174444   2.836   3.405  18.919  2.7055  0.0892  0.6124
17651TIP3    H274445   2.892   3.323  19.033  0.1634 -2.7091 -0.0362
17652TIP3   OH274446   2.549   3.096  28.365  0.3067  0.1763 -0.3556
17652TIP3    H174447   2.569   3.010  28.328 -0.3201  0.3249 -1.0794
17652TIP3    H274448   2.454   3.096  28.374  0.3588  0.5670  0.2203
17653TIP3   OH274449   1.826   0.207  20.297 -0.6349  0.2205 -0.1939
17653TIP3    H174450   1.852   0.123  20.259 -1.0462  0.4440 -0.9844
17653TIP3    H274451   1.738   0.223  20.263  0.1146  1.8198 -1.5208
17654TIP3   OH274452   2.007   0.445  54.287  0.7742  0.0855  0.6436
17654TIP3    H174453   2.075   0.448  54.220 -1.2033  0.1288 -1.5050
17654TIP3    H274454   1.982   0.352  54.292 -1.0581  0.4371 -0.9000
17655TIP3   OH274455   3.306   1.634  53.641  0.3811  0.0248 -0.2810
17655TIP3    H174456   3.320   1.697  53.712  1.5310 -0.6309  0.1012
17655TIP3    H274457   3.330   1.550  53.679  2.5323 -0.1589 -1.8451
17656TIP3   OH274458   1.573   1.578  18.947 -0.3762  0.7254  0.0595
17656TIP3    H174459   1.602   1.489  18.969 -1.3847  0.0993 -1.0203
17656TIP3    H274460   1.653   1.629  18.940  0.3008 -0.3859 -0.5057
17657TIP3   OH274461   1.906   2.300  47.437 -0.4130 -0.5752  1.1470
17657TIP3    H174462   1.871   2.324  47.522  0.3656  0.0233  1.3132
17657TIP3    H274463   1.917   2.205  47.441 -0.4596 -0.5585  1.6884
17658TIP3   OH274464   1.873   3.438  56.161  0.4957 -0.0179 -0.2981
17658TIP3    H174465   1.895   3.345  56.155 -0.5931 -0.2615 -0.6403
17658TIP3    H274466   1.781   3.443  56.136  0.6115  1.1910 -0.5361
17659TIP3   OH274467   3.267   2.872   8.405 -0.1985 -0.5489  0.0668
17659TIP3    H174468   3.355   2.834   8.407  1.7634  3.4934  0.5513
17659TIP3    H274469   3.241   2.878   8.497  0.9353  1.9793  0.2876
17660TIP3   OH274470   2.843   3.185  56.992 -0.8584  0.6181 -0.0757
17660TIP3    H174471   2.817   3.275  56.972 -1.9308  0.8079  1.8966
17660TIP3    H274472   2.806   3.168  57.078  2.7848 -0.3241  1.4805
17661TIP3   OH274473   2.395   1.768  12.715  0.5703  0.4406  0.1709
17661TIP3    H174474   2.417   1.834  12.780  1.1334 -1.8009  2.4169
17661TIP3    H274475   2.369   1.818  12.638  5.5170  3.3667 -0.0187
17662TIP3   OH274476   1.900   3.418  17.596  0.8374  0.1312  0.1796
17662TIP3    H174477   1.871   3.360  17.666  0.3584 -1.1184 -1.0188
17662TIP3    H274478   1.952   3.485  17.641 -0.9027  0.3899  1.9364
17663TIP3   OH274479   0.259   0.875   9.832  0.5507 -0.8483  0.3731
17663TIP3    H174480   0.174   0.838   9.809  0.3967  0.0999 -0.6972
17663TIP3    H274481   0.322   0.811   9.798  0.2826 -1.4018  0.8930
17664TIP3   OH274482   2.286   2.810  19.348  0.4266  1.5014 -0.2761
17664TIP3    H174483   2.315   2.721  19.366 -1.0984  1.2019  0.9441
17664TIP3    H274484   2.288   2.817  19.253 -0.0286 -0.0486 -0.4276
17665TIP3   OH274485   0.481   2.712   9.657 -0.1583  0.4062  0.1340
17665TIP3    H174486   0.497   2.627   9.617 -0.0900  0.8348 -0.7570
17665TIP3    H274487   0.495   2.697   9.751  2.0208 -0.0723 -0.2011
17666TIP3   OH274488   3.001   0.063  11.149  0.2271 -0.4245 -0.8374
17666TIP3    H174489   2.908   0.084  11.157  0.6053  0.5350  1.9712
17666TIP3    H274490   3.003  -0.032  11.138 -1.0865 -1.2248  3.7959
17667TIP3   OH274491   1.512   2.769  14.106  0.6877  0.4371 -0.0399
17667TIP3    H174492   1.565   2.717  14.166  0.3876  0.7973  0.5436
17667TIP3    H274493   1.437   2.714  14.085 -0.0994  0.9637  1.2991
17668TIP3   OH274494   3.355   2.993  59.738 -0.3864 -0.3555 -0.2519
17668TIP3    H174495   3.330   2.913  59.692  2.4324 -1.0148 -0.8450
17668TIP3    H274496   3.426   2.965  59.797 -1.2877  1.2158  1.6901
17669TIP3   OH274497   1.838   0.034  58.170  0.0173  0.5445  0.1042
17669TIP3    H174498   1.862  -0.058  58.153 -0.9816  0.1974  0.5196
17669TIP3    H274499   1.788   0.030  58.251  1.0426  1.6303  0.8208
17670TIP3   OH274500   2.766   2.445  43.370  0.3648  0.3915  0.2235
17670TIP3    H174501   2.789   2.538  43.364 -0.0328  0.4368 -0.7038
17670TIP3    H274502   2.846   2.399  43.343  0.8604  0.4264  1.5633
17671TIP3   OH274503   0.676   1.544  49.170 -0.0762 -0.0594 -0.2168
17671TIP3    H174504   0.591   1.501  49.177  0.7729 -1.8208 -0.1621
17671TIP3    H274505   0.687   1.563  49.077  0.0349 -1.0900 -0.4262
17672TIP3   OH274506   1.783   1.740   0.788  0.1119  0.1352  0.1365
17672TIP3    H174507   1.796   1.726   0.882 -2.2444  1.4913  0.7564
17672TIP3    H274508   1.749   1.830   0.782 -0.0169 -0.0031 -2.0082
17673TIP3   OH274509   3.000   2.754  18.847 -0.2457 -0.6586 -0.2870
17673TIP3    H174510   2.937   2.691  18.812  1.5102 -3.1009  0.6531
17673TIP3    H274511   3.019   2.722  18.935  2.7631 -0.4587 -0.7664
17674TIP3   OH274512   1.585   2.336  20.179 -0.4879 -0.3246  0.2566
17674TIP3    H174513   1.671   2.336  20.138  0.4933  3.3545  1.9140
17674TIP3    H274514   1.524   2.346  20.106  0.7368  0.3211 -0.7238
17675TIP3   OH274515   1.386   1.188  18.224 -0.4568  0.1023 -0.2735
17675TIP3    H174516   1.322   1.121  18.201 -0.8451 -0.0409  1.1201
17675TIP3    H274517   1.347   1.233  18.299 -0.4082  2.1989 -1.4227
17676TIP3   OH274518   0.564   0.858  12.920  0.2373 -0.4317 -0.6578
17676TIP3    H174519   0.621   0.914  12.867 -0.3734  0.4632 -0.3955
17676TIP3    H274520   0.610   0.850  13.003  0.4490 -0.5285 -0.7832
17677TIP3   OH274521   2.590   1.644  30.521 -0.2368  0.0021  0.5727
17677TIP3    H174522   2.684   1.629  30.511 -0.1598  0.4098  0.6929
17677TIP3    H274523   2.555   1.558  30.543  0.3265  0.1690  2.2112
17678TIP3   OH274524   1.027   0.630  13.609 -0.0804 -0.3592 -0.4580
17678TIP3    H174525   1.019   0.610  13.702  0.7179 -1.5196 -0.6202
17678TIP3    H274526   1.101   0.691  13.604  1.4040 -2.0971 -0.5300
17679TIP3   OH274527   3.083   0.562  44.567  0.3307 -0.5297  0.0248
17679TIP3    H174528   3.177   0.553  44.585  0.0845 -0.2359  1.6246
17679TIP3    H274529   3.048   0.474  44.576  0.1857 -0.3623  1.2541
17680TIP3   OH274530   0.111   1.677  62.172  0.1399 -0.3415 -0.6080
17680TIP3    H174531   0.041   1.732  62.209  0.4469  0.1839 -0.7925
17680TIP3    H274532   0.064   1.613  62.119 -0.2201 -0.1564 -0.5241
17681TIP3   OH274533   1.226   0.186  58.060  0.2631 -0.1719 -0.3078
17681TIP3    H174534   1.296   0.182  57.995  1.8649 -0.1251  1.3096
17681TIP3    H274535   1.178   0.104  58.049  1.2184 -0.6865 -0.8200
17682TIP3   OH274536   0.444   0.123  38.378  0.3056  0.6615 -0.0710
17682TIP3    H174537   0.364   0.072  38.385  0.7688 -0.1489 -0.5898
17682TIP3    H274538   0.515   0.060  38.390  0.8774  1.4532  0.9395
17683TIP3   OH274539   0.382   1.046  47.586  0.7553  0.4552  0.5609
17683TIP3    H174540   0.418   0.958  47.574 -0.1621  0.1293  0.1263
17683TIP3    H274541   0.350   1.046  47.676 -0.0804  0.0222  0.2743
17684TIP3   OH274542   3.172   0.088   6.691 -0.2617  0.3520  0.4643
17684TIP3    H174543   3.239   0.021   6.699 -0.7669  0.0096  2.2914
17684TIP3    H274544   3.094   0.049   6.731 -1.3437  1.0415 -0.8747
17685TIP3   OH274545   0.397   2.798  43.900  0.1079  0.3537  0.1483
17685TIP3    H174546   0.415   2.809  43.994 -0.5272  2.7024  0.0705
17685TIP3    H274547   0.481   2.770  43.863  1.2759  2.4309  1.0270
17686TIP3   OH274548   2.703   1.373  45.114  0.1467  0.0493 -0.5967
17686TIP3    H174549   2.619   1.408  45.085 -0.0002  0.3768  0.1926
17686TIP3    H274550   2.680   1.306  45.178  0.4872  1.2886  0.8940
17687TIP3   OH274551   3.090   1.505  66.601 -0.4791 -0.2121 -0.2815
17687TIP3    H174552   3.110   1.497  66.694 -0.4416  0.2734 -0.2476
17687TIP3    H274553   3.044   1.424  66.579  0.7366 -0.9690 -0.1644
17688TIP3   OH274554   0.656   0.433  57.853  0.0574  0.2254  0.4197
17688TIP3    H174555   0.737   0.441  57.803  0.6060  1.4605  1.4764
17688TIP3    H274556   0.684   0.414  57.942 -0.8913 -1.0665  0.4782
17689TIP3   OH274557   3.221   1.581  19.181  0.2292 -0.1387 -0.2508
17689TIP3    H174558   3.245   1.506  19.236  2.3019 -0.7470 -1.8096
17689TIP3    H274559   3.261   1.656  19.224 -1.7486  0.1303  1.2539
17690TIP3   OH274560   3.381   1.100  13.690  0.5500 -0.0717 -0.1171
17690TIP3    H174561   3.385   1.166  13.621 -2.1592  0.4433  0.1293
17690TIP3    H274562   3.379   1.150  13.772 -1.8739 -0.3526  0.0587
17691TIP3   OH274563   1.869   0.969   9.285  0.2779 -0.3779  0.1362
17691TIP3    H174564   1.894   0.993   9.196  0.6453 -0.6764  0.1573
17691TIP3    H274565   1.784   0.926   9.276  0.7661 -1.3072 -0.1955
17692TIP3   OH274566   3.313   2.419   9.820 -0.0247  0.4315 -0.6499
17692TIP3    H174567   3.221   2.393   9.821  0.5765 -1.9609  0.2410
17692TIP3    H274568   3.356   2.353   9.766  1.1525  1.6716 -1.2833
17693TIP3   OH274569   2.292   0.947  52.959 -0.7272 -0.5876 -0.5734
17693TIP3    H174570   2.208   0.988  52.979 -0.5455 -0.4532 -0.0569
17693TIP3    H274571   2.340   1.014  52.910 -0.1197  0.1508  0.9729
17694TIP3   OH274572   2.252   0.536  46.440  0.0836 -0.3923 -0.1973
17694TIP3    H174573   2.294   0.598  46.499 -0.7326 -0.6918  0.7187
17694TIP3    H274574   2.158   0.551  46.450 -0.2486 -2.8813  1.3704
17695TIP3   OH274575   0.902   0.893  52.350  0.1145  0.0606  0.3615
17695TIP3    H174576   0.969   0.946  52.393 -0.6881 -0.1421  1.9119
17695TIP3    H274577   0.822   0.910  52.399 -0.5218 -1.2983 -0.1535
17696TIP3   OH274578   2.927   2.472  43.845 -0.4813  0.1414 -0.4493
17696TIP3    H174579   2.901   2.416  43.918 -1.9342 -1.0609 -1.8177
17696TIP3    H274580   3.008   2.514  43.875  0.3775 -2.2308  0.8742
17697TIP3   OH274581   1.989   2.428  16.335  0.0456 -0.9116 -0.5751
17697TIP3    H174582   1.995   2.408  16.429 -2.1012  0.5763 -0.0678
17697TIP3    H274583   2.004   2.522  16.329 -1.0175 -0.7907 -1.5824
17698TIP3   OH274584   0.727   0.817  54.234  0.2166  0.0867  0.2461
17698TIP3    H174585   0.705   0.815  54.141 -2.3189 -0.1157  0.7848
17698TIP3    H274586   0.800   0.755  54.243 -0.7834 -1.3920 -1.3097
17699TIP3   OH274587   0.426   2.314  21.882 -0.0811 -0.2875 -0.2867
17699TIP3    H174588   0.446   2.295  21.790  1.6671  2.0902 -0.5172
17699TIP3    H274589   0.360   2.383  21.878  1.0489  0.8600  0.1457
17700TIP3   OH274590   3.133   0.371  65.284  0.0867 -0.2944  0.5328
17700TIP3    H174591   3.179   0.344  65.364 -0.1435 -2.6356 -0.0486
17700TIP3    H274592   3.041   0.371  65.308  0.1480  1.2678  0.8436
17701TIP3   OH274593   0.477   0.312   1.414  0.5529  0.5953  0.1123
17701TIP3    H174594   0.452   0.252   1.485 -1.3004  1.5959  0.3569
17701TIP3    H274595   0.440   0.273   1.335 -2.4993  2.3156  0.5373
17702TIP3   OH274596   1.731   0.315  63.936  0.3029  0.7634  0.0616
17702TIP3    H174597   1.784   0.261  63.877  0.8543  1.5051 -0.1253
17702TIP3    H274598   1.772   0.304  64.021 -0.9463 -0.9208  0.5002
17703TIP3   OH274599   2.045   3.070   4.713  0.2136 -0.0834  0.2192
17703TIP3    H174600   2.029   3.156   4.752  1.6727  1.0066 -1.4316
17703TIP3    H274601   1.957   3.033   4.700 -0.3897  0.0250  3.1669
17704TIP3   OH274602   0.379   0.747  55.191  0.4277 -0.1984 -0.3021
17704TIP3    H174603   0.351   0.836  55.171  1.5362  0.8550  2.3396
17704TIP3    H274604   0.307   0.710  55.241  0.2505 -0.5787 -0.8240
17705TIP3   OH274605   1.225   1.748   6.922 -0.4838  0.2748  0.4529
17705TIP3    H174606   1.209   1.840   6.903  0.5505  0.6755  1.4179
17705TIP3    H274607   1.320   1.740   6.923 -0.5597 -0.6996  0.8749
17706TIP3   OH274608   3.302   0.178  47.685  0.5626  0.3501 -0.4752
17706TIP3    H174609   3.323   0.244  47.751 -1.1854 -0.4652  0.9857
17706TIP3    H274610   3.218   0.205  47.648  0.4181 -0.4046 -0.7371
17707TIP3   OH274611   0.645   2.243  42.024 -0.1172  0.2220 -0.1665
17707TIP3    H174612   0.587   2.312  42.057 -1.7377 -0.0701 -2.1621
17707TIP3    H274613   0.664   2.269  41.934 -2.2606 -2.6862 -1.6348
17708TIP3   OH274614   2.397   0.685  57.839  0.0349 -0.4546 -0.3130
17708TIP3    H174615   2.406   0.726  57.753 -2.0484 -0.1351 -0.4227
17708TIP3    H274616   2.424   0.752  57.901  0.8648 -0.4494 -0.6560
17709TIP3   OH274617   2.117   0.631  42.409  0.2630 -0.2499 -0.4020
17709TIP3    H174618   2.139   0.595  42.495  1.1612 -1.9416 -1.2839
17709TIP3    H274619   2.105   0.725  42.425  0.2261 -0.5443  1.5801
17710TIP3   OH274620   1.378   1.637  18.766  0.0392  0.3282  0.1731
17710TIP3    H174621   1.424   1.629  18.850 -0.1932  1.6226  0.4459
17710TIP3    H274622   1.286   1.649  18.790 -0.1126  0.1093 -0.2915
17711TIP3   OH274623   2.200   2.034  20.336 -0.5713  0.0385 -0.0125
17711TIP3    H174624   2.242   1.949  20.337  1.7286  1.0544 -1.6301
17711TIP3    H274625   2.229   2.076  20.417 -3.7876 -1.4835  2.1543
17712TIP3   OH274626   2.843   2.347  56.335 -0.0891  0.1524  0.3612
17712TIP3    H174627   2.858   2.344  56.241 -0.0014 -0.1560  0.3854
17712TIP3    H274628   2.825   2.439  56.354 -1.9024 -0.0345 -0.2364
17713TIP3   OH274629   2.936   1.944  61.532 -0.2665  0.0916 -0.0743
17713TIP3    H174630   2.993   1.989  61.471 -0.5215  1.4621  0.6556
17713TIP3    H274631   2.851   1.986  61.521 -0.3433  0.2881  1.1197
17714TIP3   OH274632   0.521   1.714  20.977  0.3572  0.5632 -0.0864
17714TIP3    H174633   0.471   1.786  21.017  0.3173 -0.5234  1.9388
17714TIP3    H274634   0.469   1.636  20.996  2.7136 -0.5986  2.0379
17715TIP3   OH274635   1.891   3.288  45.565 -0.4917  0.3339  0.2294
17715TIP3    H174636   1.863   3.355  45.627 -0.4955  0.8836 -0.3521
17715TIP3    H274637   1.816   3.277  45.507 -0.3993  0.0055  0.1715
17716TIP3   OH274638   1.032   1.121  11.769 -0.0018 -0.7284  0.2373
17716TIP3    H174639   1.061   1.064  11.840 -1.4399 -0.7177  0.8620
17716TIP3    H274640   0.948   1.085  11.743  0.0869 -0.1797 -0.8584
17717TIP3   OH274641   3.231   3.311  63.149 -0.3355  0.1897 -0.0232
17717TIP3    H174642   3.313   3.350  63.120 -0.9692  1.8296  0.2779
17717TIP3    H274643   3.220   3.234  63.093  2.8479 -1.8891  1.9202
17718TIP3   OH274644   0.469   0.096   7.130  0.0250 -0.0701  0.1040
17718TIP3    H174645   0.398   0.160   7.131 -0.1988 -0.3117  1.6013
17718TIP3    H274646   0.549   0.148   7.138 -0.0836  0.1004  0.0802
17719TIP3   OH274647   0.575   1.466  61.604  0.0943  0.9372  0.1190
17719TIP3    H174648   0.666   1.494  61.602  0.2973  0.2940 -1.3853
17719TIP3    H274649   0.525   1.547  61.616  0.8698  1.0911  3.3289
17720TIP3   OH274650   2.012   1.282   7.128  0.1916  0.5399 -0.5817
17720TIP3    H174651   2.096   1.303   7.167 -0.2518  1.9752 -0.3431
17720TIP3    H274652   1.981   1.364   7.090 -1.8207  0.4511  0.7027
17721TIP3   OH274653   2.102   2.259  58.844 -0.9533  0.0244  0.2655
17721TIP3    H174654   2.012   2.238  58.820 -0.6752 -0.2023 -0.6030
17721TIP3    H274655   2.111   2.352  58.823 -1.2866  0.3184  1.3343
17722TIP3   OH274656   0.492   2.725  18.315 -1.0603  0.3788  0.4835
17722TIP3    H174657   0.529   2.760  18.396 -0.5156  0.9684 -0.0042
17722TIP3    H274658   0.552   2.756  18.247 -2.0129  0.6637 -0.2408
17723TIP3   OH274659   0.423   1.009  52.242 -0.2605 -0.1315  0.0662
17723TIP3    H174660   0.414   0.914  52.239 -1.9320  0.0060 -0.0990
17723TIP3    H274661   0.409   1.038  52.151 -1.4749  0.3788  0.3950
17724TIP3   OH274662   2.249   1.876   8.682 -0.2136 -0.0195  0.2551
17724TIP3    H174663   2.296   1.817   8.741 -0.3733 -0.9649 -0.5352
17724TIP3    H274664   2.186   1.921   8.738  0.2129 -0.2776  0.9508
17725TIP3   OH274665   1.984   1.188  54.471  0.4496  0.2201  0.1759
17725TIP3    H174666   2.042   1.159  54.541  0.2575 -0.1488  0.1855
17725TIP3    H274667   1.897   1.162  54.499  0.5918 -2.1410 -1.2622
17726TIP3   OH274668   1.920   1.813  66.506  0.2055  0.0524  0.5204
17726TIP3    H174669   1.908   1.780  66.417  0.5151 -1.4035  0.9906
17726TIP3    H274670   1.970   1.894  66.495 -0.7665  0.5266 -0.6859
17727TIP3   OH274671   3.089   0.605  18.635  0.1922  0.0866 -0.1062
17727TIP3    H174672   3.031   0.608  18.712  0.3092 -0.9918  0.0387
17727TIP3    H274673   3.170   0.646  18.665  0.0052  0.2868  0.1347
17728TIP3   OH274674   0.878   0.975  53.047  0.1276  0.3024  0.0764
17728TIP3    H174675   0.834   0.947  52.967  1.2402  2.8951 -1.5563
17728TIP3    H274676   0.839   0.920  53.116 -2.8321 -0.1757 -1.8024
17729TIP3   OH274677   0.499   2.529   5.793  0.1315 -0.0891  0.2439
17729TIP3    H174678   0.518   2.472   5.719 -0.7612  0.8294 -0.7240
17729TIP3    H274679   0.404   2.534   5.796  0.1891  1.3583  0.2806
17730TIP3   OH274680   0.570   2.499  52.048 -0.8869 -0.5782 -0.3999
17730TIP3    H174681   0.651   2.469  52.006 -1.0622 -0.0084 -1.1697
17730TIP3    H274682   0.593   2.583  52.088 -1.1782 -0.2344 -0.9373
17731TIP3   OH274683   1.612   0.543  47.375 -0.0106  0.2359 -0.2780
17731TIP3    H174684   1.603   0.637  47.387 -2.0838 -0.0399  0.8643
17731TIP3    H274685   1.703   0.524  47.395  0.6699  2.0772 -1.3857
17732TIP3   OH274686   3.225   1.144  27.813 -0.2417 -0.4522 -0.3388
17732TIP3    H174687   3.232   1.050  27.796 -0.9115 -0.3493 -1.2717
17732TIP3    H274688   3.229   1.184  27.726  0.6554  0.4341  0.0949
17733TIP3   OH274689   2.525   0.196  60.360  0.1632 -0.0552 -0.2735
17733TIP3    H174690   2.597   0.204  60.422 -1.2436  1.6668  1.2363
17733TIP3    H274691   2.449   0.172  60.413 -1.0885  1.4706 -1.2579
17734TIP3   OH274692   2.298   1.480   8.759  0.7067 -0.3445 -0.9817
17734TIP3    H174693   2.349   1.551   8.798  0.3548 -0.9369  0.6589
17734TIP3    H274694   2.363   1.416   8.732  0.9226 -0.4946 -0.1438
17735TIP3   OH274695   3.250   2.878  61.447 -0.7225 -0.0738  0.2774
17735TIP3    H174696   3.194   2.951  61.420 -0.3155 -0.1281 -0.7559
17735TIP3    H274697   3.190   2.805  61.460 -1.0315  0.2037  0.4498
17736TIP3   OH274698   1.750   1.240  20.442  0.0916 -0.1721 -0.0026
17736TIP3    H174699   1.797   1.323  20.448  0.3627 -0.4325  3.4182
17736TIP3    H274700   1.673   1.253  20.498 -1.6890 -1.2108 -2.0449
17737TIP3   OH274701   0.184   1.619  67.456  0.3943  0.0681 -0.3766
17737TIP3    H174702   0.240   1.557  67.502  0.5641  0.3680 -0.1715
17737TIP3    H274703   0.120   1.646  67.522  0.2547  0.0279 -0.4950
17738TIP3   OH274704   2.316   2.099   9.359  0.7358  0.0722 -0.3235
17738TIP3    H174705   2.232   2.070   9.324  0.3123  0.5494  0.2752
17738TIP3    H274706   2.371   2.021   9.356  0.0375 -0.4422 -0.0143
17739TIP3   OH274707   0.798   0.946  37.181 -0.4152 -0.1334  0.3305
17739TIP3    H174708   0.849   0.947  37.101 -2.1013 -2.5517 -0.8959
17739TIP3    H274709   0.740   1.022  37.174  2.1773  2.0781  1.3019
17740TIP3   OH274710   3.040   2.889  50.664  0.0116 -0.2758 -0.3010
17740TIP3    H174711   3.072   2.833  50.736 -1.3361 -0.9095 -0.1691
17740TIP3    H274712   3.117   2.938  50.637  0.3591  0.7048  2.2147
17741TIP3   OH274713   0.708   1.567  60.116 -0.0098  0.5156  0.0385
17741TIP3    H174714   0.701   1.646  60.169 -0.4481 -0.0747  0.8892
17741TIP3    H274715   0.802   1.554  60.105  0.0663  2.4152 -2.0861
17742TIP3   OH274716   2.795   3.340  49.863 -0.1197 -0.1814  0.2330
17742TIP3    H174717   2.876   3.316  49.909 -0.5414 -0.9740  0.5822
17742TIP3    H274718   2.767   3.260  49.820 -0.9875 -0.0540  0.5334
17743TIP3   OH274719   2.512   3.346  57.552  0.0307 -0.5507  0.2609
17743TIP3    H174720   2.563   3.303  57.621  0.2698 -0.0783  0.3858
17743TIP3    H274721   2.546   3.435  57.549 -0.3778 -0.4001 -0.0731
17744TIP3   OH274722   0.628   2.446  63.830  0.1015  0.4971 -0.1854
17744TIP3    H174723   0.543   2.491  63.834  0.2218  0.6343  1.4538
17744TIP3    H274724   0.692   2.517  63.835  0.2946  0.2853  0.4955
17745TIP3   OH274725   0.251   2.740   6.026 -0.1177  0.5214  0.2689
17745TIP3    H174726   0.196   2.755   5.950 -0.2683  0.0105  0.2786
17745TIP3    H274727   0.319   2.807   6.019 -0.8240  1.2656  0.3503
17746TIP3   OH274728   2.055   1.571  59.386  0.9087 -0.9926  0.2324
17746TIP3    H174729   2.007   1.613  59.458 -0.6922  0.8610 -1.7592
17746TIP3    H274730   2.040   1.478  59.399  1.2390 -0.7795  2.6255
17747TIP3   OH274731   1.981   0.661  63.148 -0.0782  0.1206 -0.0854
17747TIP3    H174732   2.028   0.625  63.073 -2.1659  0.7255 -1.7864
17747TIP3    H274733   1.953   0.584  63.198  1.0907 -0.2996 -0.0492
17748TIP3   OH274734   0.248   2.018  12.043  0.1896  0.7193  0.1330
17748TIP3    H174735   0.262   1.924  12.047 -1.0241  0.4717 -0.8346
17748TIP3    H274736   0.236   2.037  11.950 -0.7358  1.6372  0.4166
17749TIP3   OH274737   1.742   1.105  12.815  0.0138  0.1322  0.1814
17749TIP3    H174738   1.751   1.175  12.879  0.2172  0.5967 -0.3456
17749TIP3    H274739   1.758   1.025  12.865  0.7884  0.5281  0.5943
17750TIP3   OH274740   3.190   1.233  51.443  0.2089 -0.3148  0.1388
17750TIP3    H174741   3.177   1.321  51.479 -0.7975 -0.0061 -0.9396
17750TIP3    H274742   3.131   1.228  51.368 -0.8310 -2.4289  1.0233
17751TIP3   OH274743   2.732   3.152  50.632 -0.3058  0.1077 -0.4007
17751TIP3    H174744   2.820   3.137  50.665 -0.4371 -0.8729 -0.4585
17751TIP3    H274745   2.685   3.070  50.651 -0.8651  0.1752 -1.4280
17752TIP3   OH274746   1.422   0.883  60.158 -0.1032 -0.2083  0.1711
17752TIP3    H174747   1.406   0.797  60.196 -0.8142  0.2353  0.9113
17752TIP3    H274748   1.483   0.925  60.219  1.0475 -0.5395 -0.7121
17753TIP3   OH274749   1.645   0.424   3.107 -0.2658  0.1170 -0.0021
17753TIP3    H174750   1.687   0.495   3.057  0.4907 -0.8940 -0.8526
17753TIP3    H274751   1.554   0.425   3.076 -1.0999  2.5639  2.1236
17754TIP3   OH274752   0.725   0.656  11.367  0.3536 -0.3732  0.6850
17754TIP3    H174753   0.804   0.602  11.372  0.1264 -0.6008  1.8703
17754TIP3    H274754   0.741   0.713  11.291  2.0581  0.2127  1.4418
17755TIP3   OH274755   0.955   2.313  57.188 -0.0788  0.2680 -0.2387
17755TIP3    H174756   0.898   2.255  57.238  1.0501 -0.5612  0.1294
17755TIP3    H274757   1.010   2.254  57.136  1.6393  0.9221  0.7373
17756TIP3   OH274758   2.200   1.483   9.143  0.5947  0.0040 -0.0514
17756TIP3    H174759   2.197   1.574   9.113  0.6723  0.1269  0.3100
17756TIP3    H274760   2.147   1.482   9.222  1.8154  0.0589  0.7964
17757TIP3   OH274761   0.156   3.417  62.705  0.1631 -0.1350  0.2224
17757TIP3    H174762   0.239   3.459  62.728  0.0187  0.1477  0.2361
17757TIP3    H274763   0.092   3.489  62.703 -0.3752 -0.5361  1.5841
17758TIP3   OH274764   0.573   2.905  15.107 -0.1308 -0.2633 -0.3631
17758TIP3    H174765   0.664   2.927  15.086 -0.2067 -0.5803 -1.0690
17758TIP3    H274766   0.563   2.929  15.199  0.7125 -0.3692 -0.2319
17759TIP3   OH274767   1.822   1.145  57.669 -0.4809  0.0515  0.0549
17759TIP3    H174768   1.900   1.131  57.616  0.5090  1.0770  1.1604
17759TIP3    H274769   1.769   1.206  57.618 -0.6305 -0.7660 -0.7745
17760TIP3   OH274770   0.555   2.534   1.010  0.3242  0.1373 -0.3562
17760TIP3    H174771   0.583   2.574   1.093  0.8143  0.2472 -0.5677
17760TIP3    H274772   0.469   2.498   1.029 -0.3218  1.6616 -0.2689
17761TIP3   OH274773   0.244   0.803  50.792  0.7238  0.1394 -0.3208
17761TIP3    H174774   0.209   0.834  50.875  3.1067  0.6246  0.6004
17761TIP3    H274775   0.168   0.772  50.743 -0.6423 -1.4482  2.5540
17762TIP3   OH274776   3.222   2.363  54.580 -0.2308  0.0908  0.4332
17762TIP3    H174777   3.155   2.299  54.556  1.5328 -1.5547 -0.3717
17762TIP3    H274778   3.305   2.315  54.574  1.1153  2.2467  0.6084
17763TIP3   OH274779   1.640   1.956  25.978 -0.4650  0.0786 -0.2130
17763TIP3    H174780   1.733   1.960  26.001 -0.3410  1.0905 -0.8297
17763TIP3    H274781   1.637   1.904  25.898 -0.2598  1.1038 -0.9123
17764TIP3   OH274782   1.968   1.471  17.387  0.1118 -0.4499  0.5501
17764TIP3    H174783   2.015   1.392  17.412  0.2285 -0.6502 -0.3025
17764TIP3    H274784   1.978   1.529  17.463  2.2359 -0.2572  0.1799
17765TIP3   OH274785   1.159   2.458  49.859  0.3069  0.3449  0.3365
17765TIP3    H174786   1.198   2.460  49.947  1.7798 -0.7089 -0.2708
17765TIP3    H274787   1.230   2.484  49.801 -0.3213 -0.1319 -0.6602
17766TIP3   OH274788   1.439   1.904  44.271 -0.3126  0.1511 -0.6940
17766TIP3    H174789   1.431   1.998  44.252  1.5107  0.1809 -1.4677
17766TIP3    H274790   1.372   1.863  44.216 -0.0175  0.8813 -1.6308
17767TIP3   OH274791   1.063   1.174  10.861  0.3434  0.3817  0.2847
17767TIP3    H174792   1.140   1.205  10.813  0.0570 -0.6159 -0.8778
17767TIP3    H274793   1.009   1.132  10.794 -0.6902  0.0841  1.2819
17768TIP3   OH274794   1.821   1.137  61.889 -0.3144  0.2306 -0.3633
17768TIP3    H174795   1.818   1.165  61.980 -1.0015 -1.6197  0.2209
17768TIP3    H274796   1.730   1.126  61.864 -0.1884  1.7855 -1.6562
17769TIP3   OH274797   3.147   0.200  50.150 -0.2048 -0.1573 -0.0670
17769TIP3    H174798   3.062   0.216  50.189  0.4757  0.1887  1.3372
17769TIP3    H274799   3.172   0.284  50.111  1.2346  1.0157  3.0799
17770TIP3   OH274800   0.198   1.524  21.550 -0.4277  0.5079 -0.4914
17770TIP3    H174801   0.285   1.521  21.590 -0.5992 -0.4076 -0.1654
17770TIP3    H274802   0.138   1.531  21.625 -0.6211  1.6285 -0.7349
17771TIP3   OH274803   0.322   2.613   3.930 -0.1073 -0.2356  0.1902
17771TIP3    H174804   0.347   2.673   3.860  0.7039 -2.2377 -1.3643
17771TIP3    H274805   0.356   2.653   4.010  0.8301  1.1109 -0.8420
17772TIP3   OH274806   2.212   0.564  52.173  0.1312 -0.4229 -0.5055
17772TIP3    H174807   2.206   0.541  52.265 -2.6497 -2.0271 -0.9898
17772TIP3    H274808   2.242   0.655  52.172  1.2813 -0.7109  1.8837
17773TIP3   OH274809   0.096   1.195  44.707  0.5135  0.3742  0.7028
17773TIP3    H174810   0.155   1.254  44.660  0.0461  1.5720  1.5319
17773TIP3    H274811   0.133   1.191  44.796  0.6330 -0.7479  0.6098
17774TIP3   OH274812   2.621   0.756   9.399 -0.1338  0.0791 -0.5506
17774TIP3    H174813   2.666   0.707   9.467  1.2943  0.2858 -1.3001
17774TIP3    H274814   2.528   0.735   9.411  0.3271 -1.9726 -0.2201
17775TIP3   OH274815   1.409   1.192  15.904 -0.1011 -0.3618  0.2727
17775TIP3    H174816   1.464   1.132  15.954  0.0948  0.0356  0.5351
17775TIP3    H274817   1.468   1.261  15.876 -0.4734  0.0869  0.5836
17776TIP3   OH274818   3.122   1.396  66.209  0.1590 -0.1565 -0.2410
17776TIP3    H174819   3.194   1.420  66.151  0.3882 -0.4332 -0.0760
17776TIP3    H274820   3.118   1.467  66.273  0.0031  0.0742 -0.5056
17777TIP3   OH274821   1.663   0.377  58.710  0.3997  0.3557 -0.3534
17777TIP3    H174822   1.656   0.285  58.734  1.0538  0.8940  2.1312
17777TIP3    H274823   1.602   0.422  58.768  1.6269  1.6844 -0.0388
17778TIP3   OH274824   0.060   0.739   2.082 -0.4566 -0.1421  0.5710
17778TIP3    H174825   0.046   0.781   1.997 -0.3709  1.0009  1.0962
17778TIP3    H274826  -0.028   0.731   2.119 -0.5427 -1.0761  0.1911
17779TIP3   OH274827   3.155   0.505  14.627 -0.4166 -0.6470 -0.2255
17779TIP3    H174828   3.164   0.441  14.698 -0.6669  0.6496  1.0325
17779TIP3    H274829   3.064   0.534  14.633 -0.2068  0.0931 -0.5176
17780TIP3   OH274830   2.946   2.183  15.577 -0.0338 -0.2001  0.7410
17780TIP3    H174831   2.900   2.137  15.507  0.0189 -0.1134  0.6489
17780TIP3    H274832   3.022   2.129  15.596  0.0623 -0.1186  0.5884
17781TIP3   OH274833   0.970   3.447   0.526  0.0628  0.0833  0.1411
17781TIP3    H174834   1.012   3.363   0.547  0.9103  0.7971  1.4503
17781TIP3    H274835   1.036   3.512   0.549 -1.3552  1.2030  1.1265
17782TIP3   OH274836   2.019   2.585  42.699 -0.2047  0.2476  0.6973
17782TIP3    H174837   2.034   2.531  42.621  1.8313  2.6022 -0.6808
17782TIP3    H274838   2.006   2.521  42.769  0.6640 -2.0333 -1.0718
17783TIP3   OH274839   0.179   0.940  47.440 -0.0031  0.0909  0.1737
17783TIP3    H174840   0.084   0.947  47.450  0.1007 -0.0580  1.4299
17783TIP3    H274841   0.210   1.031  47.447  0.4237 -0.1337  6.0325
17784TIP3   OH274842   1.510   0.799  21.187 -0.2099 -0.0900 -0.0558
17784TIP3    H174843   1.507   0.703  21.182  1.6962 -0.1561 -0.5926
17784TIP3    H274844   1.470   0.819  21.271  1.4517 -1.5566  1.1731
17785TIP3   OH274845   3.300   2.283   2.000  0.3133  0.1010 -0.4043
17785TIP3    H174846   3.305   2.322   1.913  0.9425  0.2126 -0.3272
17785TIP3    H274847   3.264   2.196   1.986  1.2069 -0.2014 -0.8914
17786TIP3   OH274848   0.351   3.137   3.468 -0.2226 -0.0879 -0.1612
17786TIP3    H174849   0.356   3.161   3.560  2.8338  0.7534 -0.4322
17786TIP3    H274850   0.321   3.218   3.424 -0.6713 -0.1783 -0.0283
17787TIP3   OH274851   0.671   2.356  39.068  0.1323  0.5250 -0.1919
17787TIP3    H174852   0.621   2.438  39.068 -0.9456 -0.0885 -1.7871
17787TIP3    H274853   0.702   2.347  38.978  0.7708 -0.4984  0.1152
17788TIP3   OH274854   1.711   3.236   3.153  0.4756  0.2208 -0.1720
17788TIP3    H174855   1.783   3.210   3.211  0.2094 -0.0166  0.0549
17788TIP3    H274856   1.693   3.327   3.177  0.1314  0.0147  0.3671
17789TIP3   OH274857   1.877   0.833  55.116  0.4622  0.0331  0.1233
17789TIP3    H174858   1.872   0.866  55.205  0.4185  2.0214 -0.5676
17789TIP3    H274859   1.786   0.819  55.090  0.3281  1.6158 -0.3374
17790TIP3   OH274860   2.149   1.230   9.022 -0.7837  0.2227  0.1322
17790TIP3    H174861   2.054   1.232   9.028 -0.8404  2.0285 -0.5875
17790TIP3    H274862   2.178   1.308   9.070  0.2316  0.5203 -0.9136
17791TIP3   OH274863   3.306   2.354  22.148  0.1080 -0.1442 -0.7598
17791TIP3    H174864   3.317   2.383  22.239 -0.0750  0.7807 -1.0221
17791TIP3    H274865   3.262   2.427  22.105 -0.3233 -0.8095 -1.4614
17792TIP3   OH274866   2.544   1.617  22.296 -0.6946  0.0145  0.4919
17792TIP3    H174867   2.613   1.556  22.322 -0.6025  0.6607  1.8504
17792TIP3    H274868   2.474   1.601  22.359 -1.7105 -0.4456 -0.7058
17793TIP3   OH274869   2.205   2.922   2.600  0.1992 -0.2012  0.0689
17793TIP3    H174870   2.140   2.864   2.640 -0.6140  0.2649 -0.5475
17793TIP3    H274871   2.185   3.008   2.637  0.6114 -0.0949  0.0452
17794TIP3   OH274872   1.721   1.811  21.246  0.4565 -0.0415 -0.3088
17794TIP3    H174873   1.761   1.853  21.322  0.2561 -3.0471  1.6017
17794TIP3    H274874   1.636   1.856  21.236  0.6737  0.6979  0.9553
17795TIP3   OH274875   2.320   0.154   6.674  0.0892 -0.4076  0.2235
17795TIP3    H174876   2.304   0.103   6.754  0.3261  1.5002  1.5749
17795TIP3    H274877   2.233   0.169   6.638 -0.0456 -1.0455  0.2700
17796TIP3   OH274878   2.191   0.202   6.070  0.3981  0.0999 -0.4823
17796TIP3    H174879   2.109   0.158   6.046 -0.6747  1.6658  0.1389
17796TIP3    H274880   2.214   0.252   5.992  1.9315 -1.8862 -1.3995
17797TIP3   OH274881   1.492   0.698  53.046  0.0478 -0.3273  0.1745
17797TIP3    H174882   1.484   0.712  53.140  1.1705 -0.9554  0.3879
17797TIP3    H274883   1.536   0.614  53.038  0.7276  0.1006 -0.8914
17798TIP3   OH274884   0.966   1.434  63.728 -0.8288 -0.6612 -0.0655
17798TIP3    H174885   0.975   1.438  63.823 -1.6629 -0.3713  0.0039
17798TIP3    H274886   0.875   1.457  63.711 -0.8211 -1.2024 -0.9034
17799TIP3   OH274887   1.996   1.651   5.846 -0.1261  0.4499  0.5784
17799TIP3    H174888   1.939   1.721   5.814 -1.3820 -1.0939 -0.7588
17799TIP3    H274889   1.948   1.612   5.919 -1.0447 -1.0650 -0.7571
17800TIP3   OH274890   0.634   0.846  65.912 -0.5567  0.0360  0.8165
17800TIP3    H174891   0.648   0.868  66.004  0.2787 -0.8366  0.9122
17800TIP3    H274892   0.709   0.792  65.889  0.2210  1.7143 -0.8787
17801TIP3   OH274893   0.610   2.149  49.322 -0.3336 -0.0918  0.2395
17801TIP3    H174894   0.529   2.135  49.371 -0.7757  0.2809 -0.3734
17801TIP3    H274895   0.596   2.104  49.238 -0.7007  1.6162 -0.6608
17802TIP3   OH274896   1.393   0.821   2.853 -0.2112  0.0313 -0.4243
17802TIP3    H174897   1.372   0.850   2.942 -0.9587  1.8842 -1.1406
17802TIP3    H274898   1.455   0.749   2.865  0.0420  0.5109  1.5838
17803TIP3   OH274899   1.526   2.106   2.486  0.4265  0.5350 -0.1000
17803TIP3    H174900   1.434   2.102   2.462  0.3699 -0.5742  0.2699
17803TIP3    H274901   1.550   2.016   2.509  1.7392  0.6993 -0.7053
17804TIP3   OH274902   2.962   1.729  16.144  0.7442  0.0719 -0.2795
17804TIP3    H174903   2.937   1.650  16.096  1.6956  0.4479 -1.4370
17804TIP3    H274904   2.882   1.756  16.190  0.0277 -0.7522 -1.0189
17805TIP3   OH274905   1.595   0.571  19.813  0.0577 -0.4181 -0.6032
17805TIP3    H174906   1.571   0.633  19.882 -1.3139 -0.6604 -0.8357
17805TIP3    H274907   1.520   0.511  19.808  0.0939 -0.3511 -2.3770
17806TIP3   OH274908   2.446   3.175  52.297 -0.0267  0.0936 -0.3378
17806TIP3    H174909   2.400   3.124  52.230 -0.2723 -0.1443  0.0067
17806TIP3    H274910   2.426   3.130  52.379  0.8217 -0.0083 -0.1845
17807TIP3   OH274911   2.336   1.839  20.233 -0.1006  0.2635 -0.0541
17807TIP3    H174912   2.389   1.842  20.313 -2.0389 -1.1144  1.3611
17807TIP3    H274913   2.385   1.781  20.175  0.6118  0.0807  0.7070
17808TIP3   OH274914   0.705   1.915  11.717  0.0616  0.1098 -0.5182
17808TIP3    H174915   0.686   2.009  11.719 -2.8527 -0.3497  3.0277
17808TIP3    H274916   0.653   1.882  11.644 -0.1128  1.0450 -0.8318
17809TIP3   OH274917   0.337   3.438  20.572  0.0224  0.0366  0.1337
17809TIP3    H174918   0.332   3.478  20.485  1.6576 -0.6293 -0.3024
17809TIP3    H274919   0.338   3.344  20.556 -1.9198 -0.1896  1.0478
17810TIP3   OH274920   1.827   2.524   2.689  0.0408  0.4565  0.2854
17810TIP3    H174921   1.839   2.479   2.606 -0.1930 -0.0592  0.5279
17810TIP3    H274922   1.808   2.615   2.665  1.4348  0.6458 -0.1814
17811TIP3   OH274923   1.079   1.073  65.760 -0.0675 -0.0677  0.0960
17811TIP3    H174924   1.035   1.132  65.821 -0.6212  0.5033 -0.8351
17811TIP3    H274925   1.123   1.009  65.817 -2.6464 -1.0923  1.0605
17812TIP3   OH274926   0.836   0.376  54.509  0.3022 -0.3882  0.6197
17812TIP3    H174927   0.757   0.325  54.527  0.4462 -0.9276 -0.2211
17812TIP3    H274928   0.840   0.440  54.581 -0.2273 -1.1465  1.3438
17813TIP3   OH274929   3.382   2.074   1.344 -0.1832 -0.9237  0.2477
17813TIP3    H174930   3.343   2.026   1.417 -1.2131 -0.0768  0.2824
17813TIP3    H274931   3.475   2.082   1.368 -0.4573 -0.8605  1.3599
17814TIP3   OH274932   1.340   0.764  21.692 -0.2268 -0.3321  0.4440
17814TIP3    H174933   1.347   0.793  21.783  0.0392  3.3520 -0.6123
17814TIP3    H274934   1.257   0.800  21.661  0.6587  0.2916 -1.3263
17815TIP3   OH274935   3.325   1.069  50.487  0.6131 -0.3368 -0.0943
17815TIP3    H174936   3.411   1.090  50.449  0.6127  0.6898  0.4637
17815TIP3    H274937   3.267   1.062  50.411  1.4848 -2.6997 -0.6351
17816TIP3   OH274938   1.368   0.945  11.805  0.3212 -0.0475  0.2774
17816TIP3    H174939   1.381   0.952  11.711 -1.5451  0.0295  0.0007
17816TIP3    H274940   1.457   0.949  11.842  1.0261  0.5638 -1.4158
17817TIP3   OH274941   2.768   1.394  51.092 -0.5255  0.0044  0.1353
17817TIP3    H174942   2.699   1.402  51.158 -0.0833  0.4817  0.5431
17817TIP3    H274943   2.721   1.393  51.008 -0.9288  2.6758  0.2505
17818TIP3   OH274944   0.983   1.644   1.079 -0.6255 -0.4440  0.0348
17818TIP3    H174945   0.931   1.565   1.094 -0.3438 -0.3380  1.6722
17818TIP3    H274946   0.921   1.716   1.090 -0.5438 -0.3852  0.1161
17819TIP3   OH274947   2.154   1.128   4.155 -0.2928  0.1399  0.2160
17819TIP3    H174948   2.229   1.127   4.096  0.0974  1.3111  0.6635
17819TIP3    H274949   2.191   1.113   4.242 -0.0791  3.6781  0.8755
17820TIP3   OH274950   0.739   1.062  67.059  0.2013 -0.3782 -0.0492
17820TIP3    H174951   0.691   0.983  67.087  2.0464 -1.6183 -0.2249
17820TIP3    H274952   0.831   1.038  67.068  0.8292  1.0915 -2.0242
17821TIP3   OH274953   1.681   0.797  65.310 -0.8618 -0.0142  0.0155
17821TIP3    H174954   1.774   0.797  65.332 -1.4705 -1.2080  3.0395
17821TIP3    H274955   1.663   0.886  65.280  1.1611  0.3171 -0.3235
17822TIP3   OH274956   1.301   2.637  65.174 -0.0041 -0.6447  0.0844
17822TIP3    H174957   1.379   2.691  65.161 -0.8048  0.3852 -0.5826
17822TIP3    H274958   1.283   2.643  65.268 -0.9058  1.4777 -0.1738
17823TIP3   OH274959   3.367   0.005  42.736 -0.6472  0.5744 -0.2696
17823TIP3    H174960   3.303  -0.017  42.804 -0.2175 -0.2012 -0.1069
17823TIP3    H274961   3.368  -0.071  42.678 -0.0453  0.6755 -0.3964
17824TIP3   OH274962   2.347   0.101   5.464 -0.0397  0.2626  0.2597
17824TIP3    H174963   2.442   0.103   5.455  0.2380  0.8450  2.5620
17824TIP3    H274964   2.317   0.042   5.395  2.1949 -1.5435  0.7103
17825TIP3   OH274965   0.881   2.252  64.066 -0.3952 -0.5286  0.0974
17825TIP3    H174966   0.854   2.340  64.093 -0.0646 -0.8650  1.5968
17825TIP3    H274967   0.813   2.224  64.005 -0.4017  0.8430 -0.5520
17826TIP3   OH274968   2.135   1.723  19.110  0.0695  0.2156 -0.0612
17826TIP3    H174969   2.142   1.721  19.206  2.4140  0.3101 -0.1587
17826TIP3    H274970   2.213   1.675  19.080 -1.0593 -0.5507 -1.9315
17827TIP3   OH274971   0.142   0.940  63.682 -0.0553  0.4594  0.1936
17827TIP3    H174972   0.053   0.966  63.708 -0.1421 -0.1854  0.5445
17827TIP3    H274973   0.191   1.022  63.682  0.0951  0.4623  2.9207
17828TIP3   OH274974   2.988   2.040  56.283  0.5682  0.1452 -0.2242
17828TIP3    H174975   3.000   2.060  56.190 -1.2946  1.0137 -0.3326
17828TIP3    H274976   2.918   1.975  56.284  2.5411 -2.1031  0.4716
17829TIP3   OH274977   3.234   1.009   3.951  0.2655  0.0194  0.3444
17829TIP3    H174978   3.313   0.965   3.983  0.3991  0.9705  1.3631
17829TIP3    H274979   3.185   1.032   4.030 -0.7777 -0.0768 -0.2557
17830TIP3   OH274980   2.146   2.550  63.009 -0.7989  0.0548  0.3680
17830TIP3    H174981   2.072   2.597  62.969 -1.1237  0.4451  1.4037
17830TIP3    H274982   2.109   2.466  63.034 -0.7583  0.0542  0.4247
17831TIP3   OH274983   2.427   2.205   9.745 -0.1728  0.3427 -0.1129
17831TIP3    H174984   2.386   2.269   9.802 -0.8010  0.7356 -0.9915
17831TIP3    H274985   2.355   2.168   9.694  0.5396  1.1015 -1.7399
17832TIP3   OH274986   2.768   1.327  21.201 -0.2261  0.2695 -0.1141
17832TIP3    H174987   2.718   1.384  21.259  1.5689  1.9665 -0.1253
17832TIP3    H274988   2.791   1.251  21.255 -0.1102  0.9710  0.8359
17833TIP3   OH274989   2.473   0.718  17.365 -0.1545  0.6015 -0.2859
17833TIP3    H174990   2.382   0.690  17.378  0.0581  0.5798  1.3606
17833TIP3    H274991   2.467   0.795  17.309 -0.8592 -1.7546 -3.7573
17834TIP3   OH274992   1.140   0.981  21.487  0.2439 -0.0052 -0.3587
17834TIP3    H174993   1.108   1.028  21.564  1.6718 -1.0081  0.8871
17834TIP3    H274994   1.061   0.962  21.437 -0.7344  0.5601  0.9061
17835TIP3   OH274995   1.146   0.620  17.974 -0.5659 -0.2840 -0.7228
17835TIP3    H174996   1.128   0.544  18.028  0.9216 -1.1142 -1.3478
17835TIP3    H274997   1.156   0.692  18.036 -2.3425 -0.4726 -0.1523
17836TIP3   OH274998   3.168   2.184  43.759  0.7697 -0.3067 -0.3224
17836TIP3    H174999   3.096   2.124  43.779 -0.1173  1.0502  0.7522
17836TIP3    H275000   3.146   2.221  43.673  0.3310 -0.0973 -0.1188
17837TIP3   OH275001   1.783   2.353   5.816  0.0996 -0.2917 -0.4574
17837TIP3    H175002   1.781   2.387   5.726 -1.6341  0.2564 -0.2418
17837TIP3    H275003   1.738   2.268   5.810 -1.5815  0.5034  0.1409
17838TIP3   OH275004   0.426   0.600   2.760  0.2121  0.1241  0.4315
17838TIP3    H175005   0.391   0.519   2.721  1.6558 -0.4597  0.2896
17838TIP3    H275006   0.442   0.657   2.685  2.1733 -0.6763  0.1837
17839TIP3   OH275007   2.222   0.814  12.291 -0.3738 -0.2969 -0.6174
17839TIP3    H175008   2.301   0.858  12.323 -0.8139 -0.1718  0.3322
17839TIP3    H275009   2.236   0.807  12.197  0.6892 -0.1122 -0.4945
17840TIP3   OH275010   0.285   1.764  21.841  0.9218  0.7096 -0.1421
17840TIP3    H175011   0.318   1.688  21.793 -0.0093  1.0159 -1.3095
17840TIP3    H275012   0.309   1.839  21.787  2.0027  1.3010  1.0951
17841TIP3   OH275013   1.715   3.128  52.315  0.0239 -0.7414 -0.0136
17841TIP3    H175014   1.688   3.058  52.256 -2.5074 -1.6916  2.0601
17841TIP3    H275015   1.653   3.122  52.388  1.0659  2.3238  1.2572
17842TIP3   OH275016   1.458   3.104  46.536 -0.1634 -0.3552  0.0623
17842TIP3    H175017   1.531   3.043  46.551  0.1858 -0.2419 -1.1058
17842TIP3    H275018   1.446   3.148  46.621  2.2535  0.8468 -0.1296
17843TIP3   OH275019   0.858   0.079  53.491  0.3993 -0.4351 -0.5851
17843TIP3    H175020   0.864   0.123  53.576 -2.5929 -0.8335 -0.0621
17843TIP3    H275021   0.863  -0.014  53.512 -1.9720 -0.6139 -0.5489
17844TIP3   OH275022   2.063   2.457  15.700 -0.0298 -0.4087 -0.1198
17844TIP3    H175023   2.033   2.368  15.684 -0.7600 -0.2992  0.6088
17844TIP3    H275024   2.091   2.489  15.614  0.4992 -1.4247 -0.3411
17845TIP3   OH275025   0.198   0.538  50.519  0.1930 -0.6366 -0.7218
17845TIP3    H175026   0.274   0.594  50.505  0.7835 -0.5610  2.1298
17845TIP3    H275027   0.130   0.598  50.552  0.2959 -1.2732  0.7414
17846TIP3   OH275028   2.457   1.007  62.351  0.9742  0.1287  0.5694
17846TIP3    H175029   2.511   1.033  62.425 -1.5512 -0.5869  2.8121
17846TIP3    H275030   2.423   0.920  62.375 -0.6845  0.2936 -0.9464
17847TIP3   OH275031   1.873   2.185   8.979 -0.0925  0.0806 -0.0849
17847TIP3    H175032   1.825   2.185   9.061  1.3236  0.1260  0.7709
17847TIP3    H275033   1.916   2.271   8.976 -1.5255  0.8004 -1.7460
17848TIP3   OH275034   3.322   1.296  21.101 -0.2324  0.3012 -0.4208
17848TIP3    H175035   3.350   1.265  21.014  0.5220  1.1071 -0.4841
17848TIP3    H275036   3.318   1.217  21.154  0.6906 -0.0381 -0.8278
17849TIP3   OH275037   2.014   0.012  52.898  0.0092 -0.2990  0.1516
17849TIP3    H175038   1.944  -0.013  52.838  0.7644 -0.7683 -0.5576
17849TIP3    H275039   1.969   0.037  52.979 -1.1366  1.4280 -0.9367
17850TIP3   OH275040   1.662   2.901  19.586  0.1017  0.1003  0.2210
17850TIP3    H175041   1.621   2.868  19.666  1.2354 -0.0000  0.7739
17850TIP3    H275042   1.657   2.997  19.594 -1.7369  0.1277 -0.6355
17851TIP3   OH275043   2.418   0.249  66.783  0.3759 -0.9997 -0.4281
17851TIP3    H175044   2.480   0.322  66.782  0.4299 -1.0395 -1.5435
17851TIP3    H275045   2.353   0.273  66.717 -0.7227 -1.0375  0.6036
17852TIP3   OH275046   2.122   1.294  56.261 -0.4027 -0.2701 -0.1518
17852TIP3    H175047   2.082   1.296  56.348 -1.5132  0.3567 -0.6497
17852TIP3    H275048   2.204   1.247  56.273 -0.1736  0.4464  1.3904
17853TIP3   OH275049   0.952   3.350  56.325  0.2547 -0.3839  0.3642
17853TIP3    H175050   0.963   3.378  56.234  1.0909  0.5552  0.7320
17853TIP3    H275051   0.895   3.273  56.320 -3.5556  2.2109 -0.6148
17854TIP3   OH275052   0.971   2.410  36.682 -0.0949  0.0684  0.9163
17854TIP3    H175053   0.985   2.354  36.758 -1.6798 -0.9036  0.5348
17854TIP3    H275054   0.950   2.349  36.611 -0.1367  1.0560  0.0638
17855TIP3   OH275055   1.986   0.240  44.400 -0.3499 -0.4985 -0.7143
17855TIP3    H175056   2.031   0.164  44.363 -1.5838 -1.4566 -0.3126
17855TIP3    H275057   1.897   0.235  44.364 -0.4018  0.8836 -0.8357
17856TIP3   OH275058   2.584   0.099  67.379 -0.3740 -0.4943  0.0501
17856TIP3    H175059   2.492   0.120  67.361 -0.7192 -0.9417  1.1633
17856TIP3    H275060   2.600   0.137  67.466  0.8793  0.6643 -0.6558
17857TIP3   OH275061   1.677   0.018  38.404 -0.2498 -0.7859  0.2126
17857TIP3    H175062   1.695  -0.022  38.319  0.1254  0.3118 -0.2519
17857TIP3    H275063   1.697   0.111  38.391 -1.5124 -0.3637  1.1183
17858TIP3   OH275064   0.646   0.978  64.051  0.5632 -0.0797 -0.5551
17858TIP3    H175065   0.618   0.888  64.072 -0.5268 -0.4269 -3.1325
17858TIP3    H275066   0.641   0.983  63.955  0.7871  2.6946 -0.4975
17859TIP3   OH275067   1.771   1.600  53.258  0.1027 -0.3768 -0.2906
17859TIP3    H175068   1.843   1.654  53.224  1.9132 -2.5935 -0.2498
17859TIP3    H275069   1.700   1.613  53.195  0.0051  2.8097  0.3091
17860TIP3   OH275070   2.206   0.148   7.224  0.1843 -0.0282  0.8610
17860TIP3    H175071   2.183   0.178   7.312 -0.7709  2.9295 -0.2681
17860TIP3    H275072   2.138   0.085   7.202 -2.6536  2.9145  0.4805
17861TIP3   OH275073   0.781   1.724   8.081  0.7289 -0.4005  0.1887
17861TIP3    H175074   0.757   1.752   7.993 -0.8396 -1.8607  0.1060
17861TIP3    H275075   0.748   1.793   8.139 -2.0220 -1.4000 -0.0903
17862TIP3   OH275076   1.290   3.350  62.866  0.7084 -0.0130 -0.4381
17862TIP3    H175077   1.365   3.383  62.915 -1.0576  1.5242  1.4052
17862TIP3    H275078   1.308   3.257  62.854  2.1662 -0.0185  1.3820
17863TIP3   OH275079   0.045   1.767  59.168 -0.4150 -0.3456 -0.0439
17863TIP3    H175080   0.087   1.842  59.210  0.1731 -0.4882 -0.3564
17863TIP3    H275081   0.117   1.706  59.151 -0.6293 -0.2670 -1.3142
17864TIP3   OH275082   2.316   3.124  43.248 -0.0695  0.2396 -0.4455
17864TIP3    H175083   2.237   3.098  43.295  1.1263 -1.5084  0.6710
17864TIP3    H275084   2.283   3.168  43.169 -2.1286  0.4337  0.4682
17865TIP3   OH275085   0.727   0.459  55.389  0.3703 -0.1184  0.1494
17865TIP3    H175086   0.634   0.440  55.402  0.7184 -0.2061  3.1043
17865TIP3    H275087   0.771   0.375  55.399  0.7770 -0.3171 -2.4798
17866TIP3   OH275088   0.992   0.691  20.512  0.2808 -0.4020 -0.0546
17866TIP3    H175089   1.027   0.739  20.436 -1.2355  0.9824  0.0761
17866TIP3    H275090   0.905   0.727  20.526 -0.2432 -2.0085  1.1700
17867TIP3   OH275091   2.782   1.851  61.732 -0.3235  0.6996 -0.4930
17867TIP3    H175092   2.843   1.872  61.660 -1.1457 -0.6875 -1.6489
17867TIP3    H275093   2.835   1.802  61.794 -0.3442 -1.1970 -1.8619
17868TIP3   OH275094   0.013   1.583  53.173 -0.1651  0.2343  0.3484
17868TIP3    H175095  -0.067   1.538  53.199  1.5930 -2.7909  0.9767
17868TIP3    H275096   0.058   1.600  53.256  0.8032 -0.0472 -0.1118
17869TIP3   OH275097   1.762   1.196  49.235 -0.2129  0.1418  0.3189
17869TIP3    H175098   1.771   1.101  49.245  0.1353 -0.2673 -2.6964
17869TIP3    H275099   1.851   1.227  49.221 -0.4984  0.5285 -0.8163
17870TIP3   OH275100   1.704   1.050  48.447 -0.5367  0.5896 -0.1193
17870TIP3    H175101   1.786   1.077  48.407 -0.6073  0.9233 -0.0419
17870TIP3    H275102   1.722   0.963  48.484 -0.7487 -0.1668 -1.7161
17871TIP3   OH275103   1.490   0.580  55.450  0.1819 -0.3022 -0.0822
17871TIP3    H175104   1.540   0.624  55.382  1.3497 -0.9480  0.3426
17871TIP3    H275105   1.546   0.508  55.479 -0.3106 -0.0703  1.5278
17872TIP3   OH275106   1.418   0.114   6.785  0.5110 -0.0165 -0.4294
17872TIP3    H175107   1.339   0.141   6.738  0.1822  0.8104  0.5509
17872TIP3    H275108   1.422   0.019   6.774 -0.5070 -0.0412 -0.6639
17873TIP3   OH275109   2.079   1.216  10.449 -0.2598 -0.3355  0.4724
17873TIP3    H175110   2.136   1.218  10.525  0.0482 -0.9316  0.2660
17873TIP3    H275111   2.116   1.281  10.389  0.7280 -1.3137 -0.0144
17874TIP3   OH275112   0.290   0.262  21.089 -0.3582 -0.2347 -0.2438
17874TIP3    H175113   0.237   0.329  21.046  1.2632 -0.2719 -2.4853
17874TIP3    H275114   0.331   0.308  21.162 -1.1772  0.5597 -0.2639
17875TIP3   OH275115   2.053   1.614  55.903  0.5904 -0.0871  0.7538
17875TIP3    H175116   2.107   1.662  55.966  0.9922 -0.6111  0.8144
17875TIP3    H275117   2.107   1.540  55.876  0.9922  0.8908 -1.2981
17876TIP3   OH275118   3.112   2.398  19.523  0.0122 -0.1698  0.4825
17876TIP3    H175119   3.093   2.344  19.446 -0.5901 -0.4613  0.8248
17876TIP3    H275120   3.061   2.478  19.509  1.1340  0.4550 -0.1670
17877TIP3   OH275121   1.625   2.280  18.768  0.0508 -0.2608  0.2310
17877TIP3    H175122   1.600   2.301  18.678  0.1889 -0.0146  0.2479
17877TIP3    H275123   1.645   2.365  18.808  0.3900 -0.4033  0.3728
17878TIP3   OH275124   0.286   0.338  61.415 -0.2997 -0.4150  0.5304
17878TIP3    H175125   0.346   0.267  61.393 -1.1333 -1.3047  1.0603
17878TIP3    H275126   0.199   0.300  61.407 -0.7424  0.3654  1.3994
17879TIP3   OH275127   2.891   1.701  52.777  0.1204 -0.1911  0.5328
17879TIP3    H175128   2.888   1.677  52.684  0.3411  1.7148 -0.0123
17879TIP3    H275129   2.884   1.618  52.823 -1.0533 -1.1124 -1.1679
17880TIP3   OH275130   2.344   1.372   0.340  0.0466 -0.5875 -0.0145
17880TIP3    H175131   2.394   1.325   0.407 -0.5374 -1.4944 -0.1987
17880TIP3    H275132   2.408   1.428   0.297  0.6415 -0.7766  0.6082
17881TIP3   OH275133   0.168   0.056  21.201  0.0465 -0.7062 -0.1243
17881TIP3    H175134   0.145   0.093  21.285  0.6351 -2.2436  0.7679
17881TIP3    H275135   0.223   0.122  21.159  0.3071 -0.2017  0.9898
17882TIP3   OH275136   1.248   1.934   3.432  0.4888  0.4567 -0.0290
17882TIP3    H175137   1.310   1.874   3.391  0.8344  0.3397  0.6453
17882TIP3    H275138   1.261   1.921   3.526 -0.8237  0.1570  0.1339
17883TIP3   OH275139   0.517   0.338  48.185  0.6239 -0.0225  0.1191
17883TIP3    H175140   0.440   0.288  48.214  2.4335 -1.7834  2.2163
17883TIP3    H275141   0.509   0.340  48.089 -0.5047 -2.7960  0.0475
17884TIP3   OH275142   2.316   1.980  12.316  0.1675  0.2631 -0.0215
17884TIP3    H175143   2.239   2.029  12.286  2.3856  3.3960 -1.0065
17884TIP3    H275144   2.321   1.999  12.409 -0.7200 -0.7883  0.2753
17885TIP3   OH275145   2.114   1.512  19.691  0.1343  0.5463  0.1601
17885TIP3    H175146   2.198   1.526  19.735  0.8242 -1.5855 -0.3584
17885TIP3    H275147   2.065   1.457  19.753 -0.0139 -0.0304 -0.4627
17886TIP3   OH275148   2.624   2.211  29.218 -0.1786  0.4277  0.2083
17886TIP3    H175149   2.609   2.118  29.235 -0.3712  0.1651 -1.2302
17886TIP3    H275150   2.590   2.225  29.129  0.3053  1.7633  0.2049
17887TIP3   OH275151   1.846   3.260  19.769 -0.0552  0.0376 -0.2254
17887TIP3    H175152   1.888   3.219  19.693  0.4373  0.0145  0.0555
17887TIP3    H275153   1.912   3.322  19.801 -0.3988  0.3009 -0.0279
17888TIP3   OH275154   2.398   0.332  10.168  0.5544 -0.1981 -0.0776
17888TIP3    H175155   2.362   0.357  10.253  0.1785 -0.4301 -0.1640
17888TIP3    H275156   2.405   0.414  10.119  0.3061 -0.1289  0.0043
17889TIP3   OH275157   0.116   2.560  58.726  0.1875 -0.1568 -0.0724
17889TIP3    H175158   0.071   2.625  58.780  1.6867  0.9938 -0.1240
17889TIP3    H275159   0.061   2.550  58.648 -1.9655 -1.7588  1.5318
17890TIP3   OH275160   1.670   2.010  59.667  0.3220 -0.1774 -0.4515
17890TIP3    H175161   1.626   1.936  59.709  1.5519 -0.7991 -0.1960
17890TIP3    H275162   1.618   2.086  59.691 -2.2205 -1.1366 -2.4455
17891TIP3   OH275163   1.458   1.447  20.908 -0.2388 -0.4435 -0.5521
17891TIP3    H175164   1.406   1.383  20.956 -2.2387  0.7994 -0.9180
17891TIP3    H275165   1.401   1.476  20.837  0.9024  1.1278 -0.9010
17892TIP3   OH275166   0.622   1.572   9.167 -0.2490 -0.0907  0.1931
17892TIP3    H175167   0.535   1.587   9.204  0.3902 -1.1996  2.3219
17892TIP3    H275168   0.671   1.530   9.238  0.8681 -3.1476 -2.1707
17893TIP3   OH275169   0.144   0.925  16.651 -0.2176 -0.2718  0.0302
17893TIP3    H175170   0.129   0.929  16.746 -1.3638 -1.2305 -0.0777
17893TIP3    H275171   0.221   0.870  16.641 -0.4313 -0.6452  0.3942
17894TIP3   OH275172   0.394   0.740  50.554  0.3765  0.1924 -0.3367
17894TIP3    H175173   0.387   0.805  50.483 -0.8439  1.4107  0.8311
17894TIP3    H275174   0.379   0.791  50.634  1.8362 -1.1303  0.8283
17895TIP3   OH275175   1.864   1.789   5.201  0.4778  0.0077 -0.0968
17895TIP3    H175176   1.917   1.840   5.141  0.4891  0.9925  0.7245
17895TIP3    H275177   1.780   1.835   5.204  0.1386 -0.5988 -0.1200
17896TIP3   OH275178   1.323   2.021  58.462 -0.5146 -0.1604  0.2248
17896TIP3    H175179   1.299   1.995  58.374  0.5379  2.7458 -1.0525
17896TIP3    H275180   1.243   2.012  58.513 -1.3282 -1.2281 -1.1798
17897TIP3   OH275181   2.002   0.055  51.532  0.5407  0.2213 -0.4019
17897TIP3    H175182   2.084   0.040  51.578  1.6156  1.3911 -1.8554
17897TIP3    H275183   2.019   0.129  51.475 -1.5185  0.4467 -0.8146
17898TIP3   OH275184   1.974   1.412  52.004  0.3450 -0.8492 -0.1506
17898TIP3    H175185   1.910   1.351  52.040 -0.3560 -0.3218 -0.4888
17898TIP3    H275186   1.942   1.499  52.028  0.6171 -0.5501 -0.8248
17899TIP3   OH275187   1.533   3.176  65.836  0.0791 -0.1102  0.8508
17899TIP3    H175188   1.487   3.169  65.753  0.5837 -1.4220  0.6552
17899TIP3    H275189   1.569   3.264  65.837  0.3946 -0.2122 -0.4994
17900TIP3   OH275190   1.619   2.096  64.192  0.1141 -0.1440 -0.5186
17900TIP3    H175191   1.549   2.034  64.211  0.0567  0.2920  0.7868
17900TIP3    H275192   1.634   2.088  64.098 -0.7524 -1.2208 -0.5757
17901TIP3   OH275193   2.825   2.494  11.542  0.1320 -0.5898  0.3744
17901TIP3    H175194   2.750   2.512  11.485 -0.8432  0.2419  1.8699
17901TIP3    H275195   2.890   2.454  11.483 -1.5222 -1.5154 -0.9298
17902TIP3   OH275196   2.928   0.252  15.636 -0.2064 -0.6982  0.5491
17902TIP3    H175197   3.022   0.253  15.657 -0.1666 -2.0592  0.4694
17902TIP3    H275198   2.890   0.188  15.695 -1.1814  0.1483  0.8755
17903TIP3   OH275199   1.060   3.437   8.335  0.0836  0.1251  0.5233
17903TIP3    H175200   1.002   3.461   8.407 -0.8546 -0.5219  0.0082
17903TIP3    H275201   1.042   3.501   8.267  0.6439  0.4682  0.6943
17904TIP3   OH275202   1.280   2.822  19.599  0.1378 -0.4070 -0.4969
17904TIP3    H175203   1.278   2.770  19.679 -1.4233 -0.5087 -0.5679
17904TIP3    H275204   1.312   2.907  19.627  0.3568 -0.6769  0.0913
17905TIP3   OH275205   1.024   2.478  47.575  0.5394  0.5597 -0.7133
17905TIP3    H175206   0.976   2.557  47.599  0.6556  0.3226  0.3193
17905TIP3    H275207   1.104   2.509  47.534 -0.0341  0.9645 -1.5481
17906TIP3   OH275208   2.395   3.437  18.133  0.0049  0.5356 -0.4841
17906TIP3    H175209   2.383   3.359  18.079  1.2646 -0.1794  0.2056
17906TIP3    H275210   2.371   3.409  18.222 -0.1822  1.1258 -0.3460
17907TIP3   OH275211   0.318   0.174  16.832 -0.0053  0.2366  0.1797
17907TIP3    H175212   0.311   0.081  16.852 -0.0268  0.0168 -0.7800
17907TIP3    H275213   0.290   0.219  16.911  0.8596 -0.5716  0.9649
17908TIP3   OH275214   0.001   2.695  49.754 -0.0919  0.4667  0.6181
17908TIP3    H175215   0.081   2.742  49.780 -0.4307  1.2397  0.3100
17908TIP3    H275216  -0.064   2.721  49.818 -0.1730  0.0726  0.6953
17909TIP3   OH275217   3.289   2.437  48.807  0.4771 -0.1971 -0.2991
17909TIP3    H175218   3.269   2.510  48.866 -0.0910 -1.3982  1.0398
17909TIP3    H275219   3.306   2.363  48.865 -1.6768 -1.8340 -1.6068
17910TIP3   OH275220   1.418   1.862  59.424  0.3351  0.2982  0.4545
17910TIP3    H175221   1.496   1.816  59.395  0.1935 -0.1330  0.7530
17910TIP3    H275222   1.439   1.955  59.413  0.8029  0.1767  0.3239
17911TIP3   OH275223   1.629   2.798  17.481  0.1868 -0.5213 -0.8565
17911TIP3    H175224   1.560   2.779  17.418  1.4989 -0.6736 -2.3126
17911TIP3    H275225   1.681   2.718  17.486  0.7852 -0.1242 -0.4838
17912TIP3   OH275226   1.784   0.402  46.934 -0.2257  0.2132  0.1544
17912TIP3    H175227   1.849   0.415  47.002  0.8535 -0.5153 -0.7086
17912TIP3    H275228   1.704   0.378  46.982 -0.3951  2.8250  1.3216
17913TIP3   OH275229   0.687   1.173  58.483  0.1913  0.5438 -0.2916
17913TIP3    H175230   0.598   1.205  58.499  0.1114  0.3957 -0.4410
17913TIP3    H275231   0.710   1.126  58.563  1.2587  3.0764  0.9900
17914TIP3   OH275232   2.268   3.170  26.301  0.3339 -0.5044 -0.4624
17914TIP3    H175233   2.186   3.218  26.310 -0.2258 -1.4083 -0.5919
17914TIP3    H275234   2.244   3.078  26.318  0.9209 -1.0763 -2.4971
17915TIP3   OH275235   2.435   1.405  46.838 -0.0379 -0.5729  0.2739
17915TIP3    H175236   2.383   1.372  46.766 -0.4518  0.1673  0.2240
17915TIP3    H275237   2.441   1.332  46.900  0.6480 -1.3463 -0.6649
17916TIP3   OH275238   0.123   0.831  51.833  0.1145  0.3219  0.3961
17916TIP3    H175239   0.065   0.899  51.801 -0.6640 -1.1533 -1.5129
17916TIP3    H275240   0.210   0.855  51.800 -0.4922 -0.5869 -2.0936
17917TIP3   OH275241   2.518   0.530  18.585  0.3570  0.1353  0.4933
17917TIP3    H175242   2.442   0.581  18.558 -0.0484  1.0299  3.0896
17917TIP3    H275243   2.588   0.595  18.595  0.7736 -0.3210  0.5781
17918TIP3   OH275244   2.347   0.690   9.432  0.1684  0.2432  0.2439
17918TIP3    H175245   2.328   0.642   9.351 -0.4096  0.4258  0.2673
17918TIP3    H275246   2.272   0.749   9.443  0.3739  0.4092  0.7695
17919TIP3   OH275247   1.020   1.483   2.313  0.2729  0.4886  0.0657
17919TIP3    H175248   1.108   1.520   2.314  0.2675  0.5627 -0.9244
17919TIP3    H275249   0.967   1.550   2.270  0.3085 -0.7207 -1.9868
17920TIP3   OH275250   1.235   1.160  14.031 -0.2055 -0.4956  0.0669
17920TIP3    H175251   1.201   1.087  14.082 -0.9695  0.9944  1.8207
17920TIP3    H275252   1.158   1.203  13.994  0.1571 -0.1299 -0.2816
17921TIP3   OH275253   2.339   3.054  45.744 -0.0789 -0.4480  0.1341
17921TIP3    H175254   2.288   2.974  45.755  1.8475 -1.7054  0.4867
17921TIP3    H275255   2.420   3.025  45.702  0.6579  1.3420  0.2131
17922TIP3   OH275256   3.285   2.073   8.049 -0.7122 -0.6919 -0.1338
17922TIP3    H175257   3.205   2.068   8.102 -0.6073 -1.2453 -0.0121
17922TIP3    H275258   3.254   2.066   7.959 -1.0476  1.9559 -0.2926
17923TIP3   OH275259   1.059   1.266  66.070  0.3077 -0.0912  0.3586
17923TIP3    H175260   1.083   1.355  66.095 -0.8242  0.5240 -0.6572
17923TIP3    H275261   1.108   1.210  66.130  2.5356  1.1345 -0.2199
17924TIP3   OH275262   2.655   2.866   1.586  0.6337 -0.5235  0.0392
17924TIP3    H175263   2.605   2.820   1.519 -1.0465  1.0666  0.1347
17924TIP3    H275264   2.595   2.876   1.660  1.9146 -0.7626  1.1707
17925TIP3   OH275265   0.062   2.558   8.074  0.1977 -0.1243  0.2770
17925TIP3    H175266   0.067   2.629   8.138  0.8304 -1.3210  1.5980
17925TIP3    H275267  -0.008   2.501   8.105  0.5979 -0.7912 -0.0128
17926TIP3   OH275268   2.541   1.335  66.780  0.0139  0.5661 -0.0691
17926TIP3    H175269   2.545   1.295  66.693  2.5345  0.9495 -0.2126
17926TIP3    H275270   2.492   1.416  66.767 -2.0507 -0.6862 -0.5097
17927TIP3   OH275271   1.761   2.338  47.677  0.8325  0.1330  0.1211
17927TIP3    H175272   1.725   2.420  47.709  0.1080 -0.1268 -0.0033
17927TIP3    H275273   1.688   2.276  47.680  1.2841 -0.4306 -0.0767
17928TIP3   OH275274   1.312   1.386  21.618 -0.6864  0.0383  0.5032
17928TIP3    H175275   1.361   1.391  21.536 -1.9864 -1.3869 -0.4222
17928TIP3    H275276   1.367   1.431  21.682  0.6442  0.6577 -1.0145
17929TIP3   OH275277   0.654   1.117  12.560  0.2693  0.2939  0.0020
17929TIP3    H175278   0.559   1.123  12.571  0.0174 -0.8984 -1.1965
17929TIP3    H275279   0.665   1.075  12.474  1.7275 -3.5989  1.8419
17930TIP3   OH275280   1.121   2.384   9.536 -0.3553 -0.1643 -0.4627
17930TIP3    H175281   1.138   2.351   9.448  0.7716 -0.8961  0.0041
17930TIP3    H275282   1.028   2.366   9.551 -0.5714  0.0390 -1.5166
17931TIP3   OH275283   0.072   0.128   1.847  0.2074  0.0955  0.6280
17931TIP3    H175284   0.033   0.132   1.760  0.0081  1.3841  0.7521
17931TIP3    H275285   0.040   0.207   1.891  0.5193 -0.4021  1.7771
17932TIP3   OH275286   0.741   0.164  11.811 -0.0255 -0.2175  0.4005
17932TIP3    H175287   0.797   0.101  11.857  0.9836 -0.3820 -1.0174
17932TIP3    H275288   0.685   0.110  11.755 -1.9909 -0.0919  2.0976
17933TIP3   OH275289   2.776   0.645  12.535 -0.5789 -0.0691 -0.1439
17933TIP3    H175290   2.771   0.566  12.589  0.4436 -0.3966 -0.5034
17933TIP3    H275291   2.686   0.660  12.506 -0.7096 -1.3766 -0.4697
17934TIP3   OH275292   0.818   3.370  48.296 -0.1621  0.0880  0.3847
17934TIP3    H175293   0.878   3.403  48.229 -0.6950  0.1759 -0.0499
17934TIP3    H275294   0.822   3.275  48.286 -2.3020  0.1421 -1.6276
17935TIP3   OH275295   0.879   1.273  58.297 -0.5838 -0.3129  0.5168
17935TIP3    H175296   0.816   1.238  58.360  0.5436  0.7708  2.3449
17935TIP3    H275297   0.910   1.196  58.250 -3.3311 -0.8678 -0.5916
17936TIP3   OH275298   1.480   3.337  56.310  0.5624 -0.4003  0.0319
17936TIP3    H175299   1.545   3.266  56.315  1.0547  0.0456  0.0745
17936TIP3    H275300   1.488   3.382  56.393  1.5951  0.8479 -0.7098
17937TIP3   OH275301   2.132   3.333   5.953 -0.1992 -0.0379 -0.1063
17937TIP3    H175302   2.203   3.313   6.013  1.4032 -0.6597 -2.0822
17937TIP3    H275303   2.172   3.390   5.887 -2.3724  2.2508  0.3978
17938TIP3   OH275304   0.644   2.169  45.138  0.4220  0.1981  0.5562
17938TIP3    H175305   0.582   2.240  45.118  2.4682  2.7008  2.4616
17938TIP3    H275306   0.729   2.204  45.113  1.4134 -2.2049  0.2874
17939TIP3   OH275307   3.306   1.054  66.603 -0.0295  0.5462 -0.3449
17939TIP3    H175308   3.243   1.088  66.540  1.0817  2.9184 -0.2829
17939TIP3    H275309   3.341   1.132  66.646  0.2033 -0.9160  2.3066
17940TIP3   OH275310   3.264   1.326   2.419 -0.1477  0.0977 -0.0323
17940TIP3    H175311   3.286   1.365   2.503  1.2304  1.1402 -0.8304
17940TIP3    H275312   3.346   1.328   2.370 -1.0900  0.2517 -1.6751
17941TIP3   OH275313   1.622   1.037  11.870  0.0753  0.5249  0.2074
17941TIP3    H175314   1.647   1.109  11.813  1.0753 -0.8642 -1.2062
17941TIP3    H275315   1.699   0.981  11.874 -1.1875 -1.3425 -0.1461
17942TIP3   OH275316   1.313   0.393   2.767 -0.8568 -0.4832 -0.0960
17942TIP3    H175317   1.254   0.433   2.702  0.5535  1.3799 -0.3374
17942TIP3    H275318   1.371   0.465   2.793  0.2488 -1.8357  1.3476
17943TIP3   OH275319   0.565   0.986   2.114  0.3381 -0.0658 -0.0626
17943TIP3    H175320   0.653   0.963   2.084  0.3081 -2.2144  1.3114
17943TIP3    H275321   0.511   0.912   2.089 -0.8118  0.6053  0.3537
17944TIP3   OH275322   0.999   1.319  51.785 -0.4854 -0.1551  0.6323
17944TIP3    H175323   1.055   1.285  51.715 -0.0932  0.0606  0.8369
17944TIP3    H275324   1.054   1.384  51.829 -0.2914 -1.1466  1.8998
17945TIP3   OH275325   1.521   1.158  43.627  0.2229 -0.3281 -0.7813
17945TIP3    H175326   1.605   1.147  43.583  0.0232 -1.6826 -0.8750
17945TIP3    H275327   1.537   1.224  43.694  1.0865  0.1877 -1.4773
17946TIP3   OH275328   1.030   0.577   8.757  0.3223  0.7215 -0.2775
17946TIP3    H175329   0.941   0.583   8.793 -0.1091  0.6345 -1.2912
17946TIP3    H275330   1.069   0.662   8.775 -0.8232  1.6659 -1.9531
17947TIP3   OH275331   0.516   2.278  19.271 -0.6476  0.0611  0.0213
17947TIP3    H175332   0.538   2.269  19.179 -0.3810 -0.2341  0.1117
17947TIP3    H275333   0.490   2.370  19.281 -0.7903  0.0629 -0.3690
17948TIP3   OH275334   0.257   2.881   6.696 -0.2992 -0.3272  0.1854
17948TIP3    H175335   0.345   2.871   6.732  0.0898  0.8727 -0.3810
17948TIP3    H275336   0.269   2.930   6.615 -1.5508  0.4068  0.4151
17949TIP3   OH275337   3.449   1.686   0.108 -0.0898  0.1017  0.0599
17949TIP3    H175338   3.440   1.781   0.110 -1.4261  0.0160 -0.4828
17949TIP3    H275339   3.416   1.657   0.193 -1.1785  0.0534 -0.3548
17950TIP3   OH275340   0.250   0.098   8.972 -0.3581  0.0831  0.1328
17950TIP3    H175341   0.189   0.133   8.906  0.5674 -0.0926 -0.8496
17950TIP3    H275342   0.312   0.169   8.987  0.4787 -0.4907 -0.5363
17951TIP3   OH275343   3.012   0.451  45.052 -0.4416  0.2788 -0.2734
17951TIP3    H175344   3.106   0.442  45.037 -0.3622 -0.6614  0.6239
17951TIP3    H275345   3.004   0.467  45.146 -1.2514 -1.4877 -0.0035
17952TIP3   OH275346   1.028   0.977  42.647  0.0604  0.0479  0.6412
17952TIP3    H175347   1.012   0.924  42.569 -0.1576  0.0887  0.6574
17952TIP3    H275348   0.967   0.943  42.712 -0.2278  0.4465  0.5917
17953TIP3   OH275349   0.591   1.453  14.326 -0.2028  0.1893 -0.5606
17953TIP3    H175350   0.678   1.447  14.367 -0.2002 -0.5741 -0.6644
17953TIP3    H275351   0.543   1.516  14.381  0.2997  0.3534 -0.3016
17954TIP3   OH275352   1.491   0.381  64.021  0.5139  0.2346  0.2531
17954TIP3    H175353   1.483   0.472  63.990 -0.5849 -0.9421 -3.5306
17954TIP3    H275354   1.569   0.348  63.977 -0.3223 -1.2063 -0.2144
17955TIP3   OH275355   3.098   1.058  13.705 -0.0284 -0.2696 -0.2973
17955TIP3    H175356   3.075   1.069  13.798 -0.1648  2.7986 -0.6005
17955TIP3    H275357   3.190   1.032  13.706  0.3102  0.8747  0.7222
17956TIP3   OH275358   0.195   0.474  21.537  0.0452  0.1574 -0.0702
17956TIP3    H175359   0.185   0.393  21.587  0.1010 -0.1991 -0.6224
17956TIP3    H275360   0.127   0.532  21.571 -1.4318 -0.8721 -1.0952
17957TIP3   OH275361   1.156   2.130  43.931 -0.7039 -0.0085 -0.0023
17957TIP3    H175362   1.119   2.132  44.018 -0.4945 -0.2030  0.0927
17957TIP3    H275363   1.120   2.051  43.891 -0.7057  0.0156 -0.0495
17958TIP3   OH275364   0.407   1.132  20.182 -0.2435  0.4486  0.5053
17958TIP3    H175365   0.393   1.187  20.260 -1.2878  0.0245  0.6226
17958TIP3    H275366   0.320   1.108  20.153  0.0680 -3.3643  2.0395
17959TIP3   OH275367   0.124   2.281  13.873 -0.3082  0.3073  0.2961
17959TIP3    H175368   0.081   2.255  13.954 -1.5689  0.0879 -0.4266
17959TIP3    H275369   0.211   2.312  13.901 -0.7045  0.1991  1.7121
17960TIP3   OH275370   2.518   3.087  65.141 -0.1858  0.0202 -0.6825
17960TIP3    H175371   2.546   3.006  65.185  0.5214  0.2900 -0.6261
17960TIP3    H275372   2.498   3.147  65.213 -1.0302 -0.1933 -0.7285
17961TIP3   OH275373   2.586   1.389  42.846 -0.0449 -0.2805  0.0788
17961TIP3    H175374   2.579   1.296  42.867  3.0480 -1.0694 -1.8068
17961TIP3    H275375   2.622   1.429  42.926 -1.4271 -0.6301  0.9111
17962TIP3   OH275376   2.006   1.203  11.156 -0.2916 -1.0048  0.0322
17962TIP3    H175377   1.954   1.124  11.146 -1.0589 -0.6598  1.1282
17962TIP3    H275378   1.946   1.274  11.134 -0.6590 -0.5389  2.2321
17963TIP3   OH275379   1.447   0.786  20.677  0.6999  0.1894  0.1049
17963TIP3    H175380   1.380   0.765  20.613  1.1125 -1.5493  0.2071
17963TIP3    H275381   1.527   0.799  20.624  0.1676  3.3728 -0.1410
17964TIP3   OH275382   3.145   0.889   7.123  0.0843 -0.5889  0.7041
17964TIP3    H175383   3.144   0.927   7.211  0.1768 -0.5424  0.6855
17964TIP3    H275384   3.053   0.876   7.101  0.0198  0.2221  0.4555
17965TIP3   OH275385   2.546   2.494  43.541  0.9782  0.3769  0.0024
17965TIP3    H175386   2.607   2.464  43.474  1.5724 -0.4821  0.9084
17965TIP3    H275387   2.600   2.543  43.603  0.6377  0.2022  0.4456
17966TIP3   OH275388   3.335   0.580  55.000  0.4926 -0.5811 -0.0215
17966TIP3    H175389   3.339   0.575  54.905  1.4327 -0.9280  0.0189
17966TIP3    H275390   3.246   0.553  55.023 -0.6310  2.0532 -0.9306
17967TIP3   OH275391   2.253   0.858  43.954 -0.2359  0.2518 -0.6099
17967TIP3    H175392   2.193   0.790  43.984  0.4702  0.0516  0.3826
17967TIP3    H275393   2.272   0.834  43.863 -2.9945  1.2895 -1.5932
17968TIP3   OH275394   1.133   3.178  12.415 -0.0115  0.0753  0.2037
17968TIP3    H175395   1.140   3.083  12.414  0.4480  0.1051 -0.5476
17968TIP3    H275396   1.187   3.205  12.489  1.5646 -0.1576 -0.8098
17969TIP3   OH275397   3.400   2.763   6.268 -0.8775  0.0536  0.1251
17969TIP3    H175398   3.373   2.846   6.229  1.7458  0.8618 -0.1427
17969TIP3    H275399   3.369   2.768   6.359 -2.5530  0.3639 -0.4253
17970TIP3   OH275400   2.443   2.565  52.166 -0.8518  0.4401 -0.5913
17970TIP3    H175401   2.483   2.543  52.082  1.1746  2.0009 -0.0950
17970TIP3    H275402   2.424   2.658  52.160 -1.9959  0.2793  0.1990
17971TIP3   OH275403   1.746   0.907  43.518  0.2939 -0.2902  0.4084
17971TIP3    H175404   1.810   0.978  43.523 -0.3706  0.4328 -0.9141
17971TIP3    H275405   1.789   0.840  43.464  0.6839 -0.6613  1.1564
17972TIP3   OH275406   1.780   3.215  57.909 -0.6528  0.3232 -0.6847
17972TIP3    H175407   1.845   3.145  57.905  0.7506  1.4793  0.2582
17972TIP3    H275408   1.809   3.278  57.843 -0.4964  1.0823  0.0911
17973TIP3   OH275409   1.723   2.794  48.057  0.1944  0.2793 -0.9718
17973TIP3    H175410   1.803   2.813  48.104 -0.5395  0.8575  0.0858
17973TIP3    H275411   1.729   2.845  47.976  1.6409 -1.0329 -1.7298
17974TIP3   OH275412   2.695   0.419   3.383  0.4703 -0.1836 -1.0274
17974TIP3    H175413   2.623   0.428   3.446  0.1279 -1.0946 -1.2638
17974TIP3    H275414   2.774   0.433   3.435  0.1732 -0.5229 -0.4680
17975TIP3   OH275415   1.966   1.475   2.866 -0.9483  0.5973 -0.0632
17975TIP3    H175416   2.053   1.501   2.896 -0.4980 -0.3947 -0.4487
17975TIP3    H275417   1.907   1.542   2.900 -0.1512  0.7935  0.9634
17976TIP3   OH275418   3.274   2.953  67.139  0.3058 -0.4228  0.2883
17976TIP3    H175419   3.306   3.040  67.113 -0.7215 -0.4219 -1.1118
17976TIP3    H275420   3.298   2.896  67.065  0.2935 -1.1758  0.8597
17977TIP3   OH275421   2.285   3.357   9.758  0.4670  0.3183 -0.1884
17977TIP3    H175422   2.372   3.327   9.783  0.6729  1.2275  0.2152
17977TIP3    H275423   2.260   3.420   9.826 -0.0571  0.8700 -0.8730
17978TIP3   OH275424   1.584   2.907   4.019 -0.0628 -0.2780  0.0245
17978TIP3    H175425   1.632   2.930   3.939  0.9097  1.1696  0.9544
17978TIP3    H275426   1.509   2.967   4.020  0.4872  0.4269  0.6660
17979TIP3   OH275427   3.253   2.092  44.177 -0.4451 -0.3609  0.3003
17979TIP3    H175428   3.268   2.038  44.100  0.8891  0.5318 -0.0707
17979TIP3    H275429   3.220   2.030  44.243 -0.0285 -1.4157 -0.4671
17980TIP3   OH275430   3.024   3.406  10.464  0.1800  0.1685 -0.5427
17980TIP3    H175431   2.968   3.470  10.421 -1.5572 -0.2559  0.9452
17980TIP3    H275432   3.019   3.429  10.557  0.7974 -1.1610 -0.1532
17981TIP3   OH275433   3.066   3.257   7.383  0.2649  0.3711 -0.1565
17981TIP3    H175434   2.986   3.255   7.330 -0.4815  0.8839  0.9229
17981TIP3    H275435   3.115   3.332   7.350 -0.8555  1.5601  0.7688
17982TIP3   OH275436   1.257   2.787   4.628 -0.2053  0.3073  0.0775
17982TIP3    H175437   1.316   2.831   4.567 -0.2333  0.8244  0.4236
17982TIP3    H275438   1.170   2.798   4.590 -0.1650  0.1727 -0.0564
17983TIP3   OH275439   1.852   1.145  54.010 -0.6805  0.0654  0.0801
17983TIP3    H175440   1.847   1.239  53.995 -1.9102  0.0971  0.5790
17983TIP3    H275441   1.924   1.134  54.072 -0.8528  0.7295  0.4040
17984TIP3   OH275442   1.853   2.184  11.780 -0.1129 -0.0643  0.5156
17984TIP3    H175443   1.792   2.121  11.818 -0.0564  0.2705  1.1630
17984TIP3    H275444   1.798   2.240  11.725  0.1503 -2.1631 -2.1076
17985TIP3   OH275445   2.959   1.077  11.019 -0.2280  0.6368 -0.0180
17985TIP3    H175446   2.976   1.080  10.925  0.5122 -0.2536  0.0682
17985TIP3    H275447   2.921   0.990  11.034 -0.0203  0.6339  0.5477
17986TIP3   OH275448   2.830   1.152  49.653  0.1685 -0.2032 -0.3662
17986TIP3    H175449   2.812   1.111  49.569  2.8249 -0.7814 -0.7370
17986TIP3    H275450   2.884   1.228  49.632 -0.8275  0.8373  0.6848
17987TIP3   OH275451   0.720   0.499   2.882 -0.5585 -0.0150  0.2635
17987TIP3    H175452   0.687   0.517   2.970  0.4005  1.3840  0.3667
17987TIP3    H275453   0.659   0.435   2.846 -1.4259 -0.0052  1.6505
17988TIP3   OH275454   1.768   2.347  60.277 -0.0263 -0.1922 -0.3819
17988TIP3    H175455   1.846   2.346  60.222 -0.1203  1.5128 -0.6200
17988TIP3    H275456   1.734   2.436  60.268 -0.8558 -0.2932  1.3205
17989TIP3   OH275457   0.665   1.774  49.390 -0.2093 -0.4831  0.1207
17989TIP3    H175458   0.705   1.760  49.304  0.6231  0.5718  0.3196
17989TIP3    H275459   0.658   1.686  49.427 -2.5204 -1.2231 -1.8254
17990TIP3   OH275460   2.170   1.176  12.361  0.0079 -0.3166 -0.2148
17990TIP3    H175461   2.142   1.140  12.445 -0.1798  0.9707  0.2881
17990TIP3    H275462   2.133   1.116  12.296 -2.0739  0.1054  0.5225
17991TIP3   OH275463   2.230   1.237  53.154  0.2122 -0.1923  0.5882
17991TIP3    H175464   2.139   1.238  53.124  0.3612  0.2468  0.1225
17991TIP3    H275465   2.240   1.154  53.199 -0.8622  0.4085  2.0135
17992TIP3   OH275466   0.934   0.225  51.541  0.5446 -0.3983 -0.2269
17992TIP3    H175467   0.887   0.308  51.533  1.1982  0.1756  1.5042
17992TIP3    H275468   0.977   0.213  51.456  0.3488  0.9646 -0.5425
17993TIP3   OH275469   1.743   0.391  13.181  0.8372  0.3518  0.0632
17993TIP3    H175470   1.803   0.376  13.108  0.4505  0.2856 -0.2457
17993TIP3    H275471   1.760   0.320  13.242 -0.2337 -0.7789 -0.8956
17994TIP3   OH275472   1.390   3.379  49.637  0.5546 -0.2513 -0.2219
17994TIP3    H175473   1.401   3.313  49.706  1.4653  1.0982  0.9881
17994TIP3    H275474   1.467   3.367  49.580 -0.5963 -1.8921 -1.5444
17995TIP3   OH275475   3.049   2.077  43.092 -0.2300  0.3180  0.1720
17995TIP3    H175476   3.068   2.153  43.037 -0.8561 -1.2408 -2.3922
17995TIP3    H275477   3.121   2.016  43.074 -1.2879 -0.8600 -0.2283
17996TIP3   OH275478   1.530   1.220  16.354 -0.4545  0.2653  0.3229
17996TIP3    H175479   1.442   1.199  16.321  0.0068 -0.6377 -0.3805
17996TIP3    H275480   1.586   1.212  16.278  0.2682  0.7350  0.7948
17997TIP3   OH275481   1.003   1.886  53.974 -0.3389  0.4007 -0.1618
17997TIP3    H175482   0.929   1.880  54.035 -0.0572 -0.4841  0.1090
17997TIP3    H275483   1.077   1.913  54.030 -0.2012  0.1337 -0.2146
17998TIP3   OH275484   3.228   2.630  46.945 -0.5175  0.0093 -0.8505
17998TIP3    H175485   3.219   2.538  46.972  1.1672 -0.4543 -1.7392
17998TIP3    H275486   3.291   2.667  47.007  0.9298 -0.2082 -2.1407
17999TIP3   OH275487   0.303   3.028  63.689  0.1083  0.0817  0.2581
17999TIP3    H175488   0.308   3.115  63.648 -1.7840  0.9579  1.7410
17999TIP3    H275489   0.391   3.012  63.722  0.4239  1.5767  0.2131
18000TIP3   OH275490   0.689   0.422   4.443 -0.2876  0.1365  0.5709
18000TIP3    H175491   0.723   0.334   4.423 -0.7946  0.3407 -1.3620
18000TIP3    H275492   0.594   0.410   4.446 -0.4210  0.7486 -0.5819
18001TIP3   OH275493   0.401   1.189  11.835  0.2714  0.4138  0.2524
18001TIP3    H175494   0.443   1.144  11.907 -0.1925  0.2187  0.4041
18001TIP3    H275495   0.469   1.197  11.768  0.7388  0.7285  0.7683
18002TIP3   OH275496   1.673   2.988  53.910 -0.0666  0.0368  0.7830
18002TIP3    H175497   1.705   2.953  53.827  1.2952  0.0064  1.2987
18002TIP3    H275498   1.644   3.076  53.890 -0.1635 -0.1289  0.1822
18003TIP3   OH275499   1.332   0.134   8.936  0.8491 -0.0219 -1.0739
18003TIP3    H175500   1.322   0.227   8.914 -1.3714  0.6050  1.8174
18003TIP3    H275501   1.400   0.133   9.004 -0.2580 -0.1947  0.0815
18004TIP3   OH275502   2.779   1.628  62.943  0.6172 -0.3802 -0.9474
18004TIP3    H175503   2.851   1.688  62.924  1.2760 -0.8240  0.0930
18004TIP3    H275504   2.702   1.669  62.902  1.3009  0.5079 -1.3653
18005TIP3   OH275505   1.691   0.221   2.757 -0.2129 -0.2964 -0.0541
18005TIP3    H175506   1.625   0.192   2.821 -0.4895 -0.0131 -0.2063
18005TIP3    H275507   1.639   0.252   2.682  0.1096 -0.6538 -0.4287
18006TIP3   OH275508   3.307   0.400  60.128  0.3092 -0.0837 -0.1892
18006TIP3    H175509   3.322   0.332  60.194  1.8412 -0.6666 -1.0894
18006TIP3    H275510   3.219   0.380  60.093  0.7955 -1.7471 -0.5618
18007TIP3   OH275511   3.116   2.210   8.673  0.5174 -0.0306  0.1086
18007TIP3    H175512   3.086   2.238   8.587 -1.4965 -0.6529  0.5607
18007TIP3    H275513   3.166   2.130   8.656  0.8510  0.3124 -0.5517
18008TIP3   OH275514   0.646   2.812  45.557  0.0034 -0.3123  0.1907
18008TIP3    H175515   0.557   2.779  45.570 -0.5949 -0.0210 -2.5383
18008TIP3    H275516   0.641   2.862  45.475  2.7230 -0.4139 -0.1260
18009TIP3   OH275517   1.698   2.650  20.425  0.6899 -0.0776  0.2694
18009TIP3    H175518   1.746   2.589  20.368  1.4665 -0.2921  1.1177
18009TIP3    H275519   1.738   2.735  20.408  1.1728 -0.2039  0.7511
18010TIP3   OH275520   1.289   1.773  20.595  0.0823 -0.5686 -0.2154
18010TIP3    H175521   1.347   1.819  20.655  0.1471 -1.6605  0.5731
18010TIP3    H275522   1.320   1.798  20.508  1.1123 -0.3764  0.2022
18011TIP3   OH275523   2.965   3.391  67.498 -0.3471  0.5245  0.2174
18011TIP3    H175524   2.882   3.385  67.546  0.3884 -0.4305  1.4005
18011TIP3    H275525   3.031   3.360  67.559  1.0771  2.3389 -0.3101
18012TIP3   OH275526   0.681   2.642  21.284 -0.1251  0.7377 -0.1449
18012TIP3    H175527   0.611   2.674  21.228 -1.7859  0.8340  1.8514
18012TIP3    H275528   0.656   2.551  21.305  0.8843  0.4283 -0.2038
18013TIP3   OH275529   1.586   2.046  45.853  0.4276  0.1712 -0.3106
18013TIP3    H175530   1.589   1.973  45.915 -1.1439 -0.9973 -1.5364
18013TIP3    H275531   1.672   2.087  45.861  1.4579 -1.9269  0.2785
18014TIP3   OH275532   2.174   3.036  64.717 -0.5103  0.2082  0.2631
18014TIP3    H175533   2.258   3.062  64.755 -0.2247 -1.0179  0.4980
18014TIP3    H275534   2.151   2.955  64.761 -1.4509  0.1222 -0.3484
18015TIP3   OH275535   0.545   0.496  15.436 -0.2162  0.0080  0.6488
18015TIP3    H175536   0.494   0.416  15.442 -0.8890  0.3630 -0.0868
18015TIP3    H275537   0.519   0.548  15.512 -1.4981  0.4736 -0.0732
18016TIP3   OH275538   1.259   2.322  61.057  0.2171  0.0437  0.0735
18016TIP3    H175539   1.322   2.389  61.084  1.1395 -0.8138  0.1079
18016TIP3    H275540   1.294   2.286  60.976 -0.9933  0.5365 -0.7026
18017TIP3   OH275541   1.977   0.962  60.781  0.5699  0.1686 -0.3791
18017TIP3    H175542   2.026   1.043  60.796  0.0079  0.6131 -0.8591
18017TIP3    H275543   1.886   0.991  60.775  0.5609 -0.1564 -2.9206
18018TIP3   OH275544   2.475   0.533  43.226 -0.0638 -0.0241  0.1278
18018TIP3    H175545   2.463   0.543  43.131 -1.0545  0.9799  0.3330
18018TIP3    H275546   2.537   0.603  43.249 -0.8477  0.5867  0.4077
18019TIP3   OH275547   1.275   0.884  22.480 -0.4187  0.1783 -0.4966
18019TIP3    H175548   1.233   0.966  22.453  0.3499  0.5533 -0.5526
18019TIP3    H275549   1.302   0.900  22.570 -0.4459 -0.0908 -0.4402
18020TIP3   OH275550   0.970   2.346  58.116  0.0110  0.6052  0.7349
18020TIP3    H175551   1.051   2.341  58.167  0.4649  0.8357  0.0449
18020TIP3    H275552   0.917   2.272  58.148 -0.2723  1.4964  2.4725
18021TIP3   OH275553   0.776   0.359  57.299  0.6153 -0.4186 -0.0588
18021TIP3    H175554   0.715   0.383  57.368  2.4924  0.4819  1.3631
18021TIP3    H275555   0.775   0.434  57.239 -0.1007 -0.6616 -0.3499
18022TIP3   OH275556   1.195   2.128  61.569  0.2729  0.2182  0.1814
18022TIP3    H175557   1.270   2.186  61.577 -0.5488  1.2198  0.9081
18022TIP3    H275558   1.222   2.061  61.505  1.3388  1.2329 -0.4601
18023TIP3   OH275559   3.196   2.162  16.037 -0.2636  0.3227  0.0089
18023TIP3    H175560   3.210   2.201  16.124  0.2415  1.3002 -0.4890
18023TIP3    H275561   3.114   2.202  16.006 -1.6166 -1.6122  0.8587
18024TIP3   OH275562   1.591   1.071   4.634 -0.6170 -0.5122  0.0750
18024TIP3    H175563   1.659   1.139   4.635  1.7362 -2.6755  2.1586
18024TIP3    H275564   1.534   1.093   4.707 -0.3107 -0.3243  0.2619
18025TIP3   OH275565   2.071   2.285  49.120 -0.4076  0.0174  0.4417
18025TIP3    H175566   2.042   2.361  49.070 -0.1840 -1.2752 -1.7535
18025TIP3    H275567   2.024   2.292  49.204 -0.6655  2.3442  0.1557
18026TIP3   OH275568   0.690   3.422  10.105  0.0538  0.0239  0.1943
18026TIP3    H175569   0.746   3.415  10.181  1.8107 -0.8419 -1.1060
18026TIP3    H275570   0.712   3.506  10.065 -0.3080  0.1341  0.2213
18027TIP3   OH275571   1.713   0.330  34.667 -0.0031 -0.9390 -0.1809
18027TIP3    H175572   1.733   0.423  34.661 -0.6810 -0.6930  0.9825
18027TIP3    H275573   1.652   0.313  34.595 -0.8644 -0.1830  0.3437
18028TIP3   OH275574   1.605   0.339  44.517  0.1548  0.0307 -0.5904
18028TIP3    H175575   1.567   0.418  44.555 -0.2430 -0.6797  0.5529
18028TIP3    H275576   1.529   0.288  44.487  0.2528 -0.8164  0.5341
18029TIP3   OH275577   3.300   1.042  19.189  0.4449 -0.4057  1.0732
18029TIP3    H175578   3.362   0.972  19.212  1.0326  0.5396  2.5188
18029TIP3    H275579   3.356   1.118  19.171 -0.2177 -0.1113  0.2225
18030TIP3   OH275580   2.674   0.471   1.692  0.3642  0.3846 -0.0957
18030TIP3    H175581   2.723   0.404   1.739 -0.8011 -1.1723 -1.0009
18030TIP3    H275582   2.605   0.498   1.754 -0.0525 -0.3303 -0.2367
18031TIP3   OH275583   1.577   1.422  62.007 -0.0321 -0.0712  0.4694
18031TIP3    H175584   1.588   1.514  61.983  0.4105 -0.0760  0.6386
18031TIP3    H275585   1.663   1.397  62.043 -0.5961 -0.1140  1.8473
18032TIP3   OH275586   2.967   1.196  11.958  0.1733 -0.1874 -0.2602
18032TIP3    H175587   3.027   1.123  11.946 -0.9320 -1.5225  1.7932
18032TIP3    H275588   2.904   1.188  11.886  0.2458 -1.0818 -0.2368
18033TIP3   OH275589   0.945   0.047  64.487 -0.4706  0.4482 -0.3685
18033TIP3    H175590   0.967   0.041  64.580 -1.3016  0.1228 -0.1809
18033TIP3    H275591   1.029   0.057  64.443 -0.0445  0.3273  0.3966
18034TIP3   OH275592   3.160   1.900  11.743  0.0938 -0.0179  0.0588
18034TIP3    H175593   3.125   1.831  11.797  0.3571  0.2390  0.5634
18034TIP3    H275594   3.120   1.980  11.776 -1.4770 -0.0625 -1.5556
18035TIP3   OH275595   0.114   2.869   7.930 -0.3773  0.5686  0.2368
18035TIP3    H175596   0.206   2.849   7.912 -0.5918 -0.9725  0.7421
18035TIP3    H275597   0.117   2.937   7.998  0.4262 -0.8316  1.6809
18036TIP3   OH275598   2.425   2.711  62.523 -0.2346  0.5271 -0.2317
18036TIP3    H175599   2.455   2.656  62.451  0.3995  1.1208 -0.4336
18036TIP3    H275600   2.356   2.660  62.565  0.5744 -0.5824 -0.1840
18037TIP3   OH275601   0.090   1.927  51.965 -0.0080  0.5305 -0.0574
18037TIP3    H175602   0.157   1.919  51.897 -0.6098  0.7145 -0.6896
18037TIP3    H275603   0.088   2.021  51.986 -0.4341  0.6122 -0.4348
18038TIP3   OH275604   0.312   2.074  42.286  0.4012  0.5709  0.0227
18038TIP3    H175605   0.261   2.063  42.366 -0.3795 -0.4585 -0.5940
18038TIP3    H275606   0.251   2.114  42.224  0.9871  1.3200 -0.0799
18039TIP3   OH275607   2.697   1.126  31.100 -0.4199 -0.4937  0.1979
18039TIP3    H175608   2.695   1.173  31.184  0.3990  2.4160 -1.2989
18039TIP3    H275609   2.789   1.133  31.072 -0.9390 -0.2544 -1.5285
18040TIP3   OH275610   0.804   1.231  64.032 -0.1267 -0.3729  0.4163
18040TIP3    H175611   0.872   1.197  63.975  1.0764 -1.0151  2.1259
18040TIP3    H275612   0.772   1.155  64.081 -0.5526  0.2506  1.1455
18041TIP3   OH275613   2.282   1.162  50.277 -0.1694 -0.3372 -0.5017
18041TIP3    H175614   2.233   1.151  50.195 -1.3207 -0.0793  0.1308
18041TIP3    H275615   2.298   1.072  50.308 -0.0344 -0.4264 -0.8227
18042TIP3   OH275616   1.174   2.228  63.358  0.4666  0.5050 -0.2476
18042TIP3    H175617   1.215   2.189  63.281 -0.2752 -0.5812 -0.1149
18042TIP3    H275618   1.116   2.296  63.323  0.2994  0.1672 -0.6315
18043TIP3   OH275619   2.219   0.921  19.924  0.0140  0.1860 -0.0580
18043TIP3    H175620   2.282   0.934  19.995  0.6084 -0.5184 -0.4426
18043TIP3    H275621   2.229   0.998  19.868  2.2310 -0.9325 -1.3657
18044TIP3   OH275622   1.593   2.632  34.862 -0.2426 -0.1216  0.4621
18044TIP3    H175623   1.534   2.634  34.937 -0.3193 -0.8480  0.4223
18044TIP3    H275624   1.638   2.548  34.868 -1.6598 -1.0920 -1.3896
18045TIP3   OH275625   1.347   1.769  56.004 -0.5055  0.3903  0.0515
18045TIP3    H175626   1.390   1.830  56.064  0.4114  0.7253 -0.9213
18045TIP3    H275627   1.417   1.733  55.951 -1.1299 -0.9891  0.1098
18046TIP3   OH275628   0.911   1.003  57.159  0.5567  0.1548 -0.3381
18046TIP3    H175629   0.939   1.016  57.249 -0.1742  0.4691 -0.1565
18046TIP3    H275630   0.824   0.964  57.165 -0.2078  1.6740 -0.8739
18047TIP3   OH275631   1.815   0.157  12.181  0.2131  0.0793  0.7136
18047TIP3    H175632   1.894   0.187  12.136 -0.3543  0.5165 -0.0006
18047TIP3    H275633   1.743   0.197  12.133 -0.5062 -1.2056  0.6748
18048TIP3   OH275634   2.890   1.020  61.781 -0.0593 -0.3809  0.0613
18048TIP3    H175635   2.893   0.993  61.690 -2.4772 -0.8250  0.0482
18048TIP3    H275636   2.797   1.020  61.804  0.3333  1.3124  2.0583
18049TIP3   OH275637   0.261   0.031  48.327  0.7128  0.1156 -0.7240
18049TIP3    H175638   0.260   0.006  48.419  0.7269  2.2393 -0.0969
18049TIP3    H275639   0.274   0.126  48.327  2.0498  0.0287 -2.9609
18050TIP3   OH275640   3.229   1.207   2.766 -0.0124 -0.0575  0.1996
18050TIP3    H175641   3.283   1.193   2.844  1.9307  0.3050 -0.9921
18050TIP3    H275642   3.275   1.159   2.697 -1.4322  0.0022 -0.8261
18051TIP3   OH275643   0.794   0.694  48.316 -0.4062  0.0461  0.4793
18051TIP3    H175644   0.868   0.635  48.299 -0.6838 -0.7352  1.8392
18051TIP3    H275645   0.796   0.709  48.411 -1.0675  1.2830  0.3236
18052TIP3   OH275646   3.448   1.572   7.591  0.2516 -0.0285 -0.0055
18052TIP3    H175647   3.359   1.601   7.571  0.6844  1.7275  0.4397
18052TIP3    H275648   3.477   1.528   7.511 -0.5671  0.5127 -0.6247
18053TIP3   OH275649   2.098   3.352  54.357  0.0567 -0.3014 -0.1719
18053TIP3    H175650   2.010   3.354  54.321  0.1180 -1.0823 -0.3752
18053TIP3    H275651   2.093   3.292  54.431 -0.2142  1.7583  1.5963
18054TIP3   OH275652   2.469   3.105  44.568 -0.5854 -0.1380  0.0390
18054TIP3    H175653   2.421   3.048  44.628  1.1538 -0.0797  1.5606
18054TIP3    H275654   2.527   3.046  44.519 -1.5840 -0.1145 -1.2385
18055TIP3   OH275655   2.714   0.196  16.263 -0.1007  0.1361 -0.2187
18055TIP3    H175656   2.672   0.125  16.312 -1.7529  1.9994  1.1870
18055TIP3    H275657   2.652   0.218  16.194  1.7653 -1.7687 -2.7415
18056TIP3   OH275658   0.355   0.442  14.052 -0.5498  0.1550 -0.0396
18056TIP3    H175659   0.425   0.411  13.994 -0.0909  1.2193 -0.0754
18056TIP3    H275660   0.292   0.370  14.053  0.7404 -1.0295  0.3489
18057TIP3   OH275661   3.410   3.285  63.680  0.1123 -0.0624 -0.3868
18057TIP3    H175662   3.429   3.304  63.588 -1.2265 -1.2802 -0.9493
18057TIP3    H275663   3.315   3.283  63.685  0.1545  0.3170  1.1218
18058TIP3   OH275664   2.970   1.545  16.488 -0.3908  0.0509 -0.5851
18058TIP3    H175665   3.049   1.522  16.439  0.2591 -0.1784  0.5149
18058TIP3    H275666   3.000   1.609  16.553 -0.7320 -1.2647  0.9418
18059TIP3   OH275667   1.235   1.773  44.167  0.0044 -0.3967 -0.8312
18059TIP3    H175668   1.239   1.683  44.199  0.2708  0.0995  0.6159
18059TIP3    H275669   1.163   1.813  44.216 -0.9740 -0.1518 -2.4095
18060TIP3   OH275670   0.935   2.965  20.514 -0.0240 -0.4747 -0.2886
18060TIP3    H175671   1.002   2.931  20.573  0.0217 -0.1582 -0.1552
18060TIP3    H275672   0.853   2.928  20.546  0.1199 -1.0951 -0.6298
18061TIP3   OH275673   1.466   1.180  38.057  0.4845  0.1311 -0.5125
18061TIP3    H175674   1.469   1.111  38.123  0.4542  0.5994 -0.0121
18061TIP3    H275675   1.540   1.237  38.079 -1.4744  2.1840  1.2443
18062TIP3   OH275676   1.646   0.575  64.328 -0.3064  0.2589  0.0768
18062TIP3    H175677   1.706   0.575  64.254  0.8706  0.1868  0.9824
18062TIP3    H275678   1.698   0.539  64.401 -1.7987 -0.8696  0.6482
18063TIP3   OH275679   3.007   1.058  16.424  0.0497 -0.2082  0.3282
18063TIP3    H175680   2.971   1.078  16.511  0.6556  0.4985  0.4169
18063TIP3    H275681   3.032   0.966  16.430 -1.2300 -0.5766  0.4357
18064TIP3   OH275682   1.849   3.150  48.318 -0.0231 -0.3287  0.1064
18064TIP3    H175683   1.898   3.230  48.337  1.4996 -0.8676 -1.3623
18064TIP3    H275684   1.802   3.170  48.236  0.4438 -0.9582 -0.3224
18065TIP3   OH275685   1.963   1.841  17.363  0.3125  0.4097 -0.1475
18065TIP3    H175686   2.037   1.871  17.416  0.0664  0.7801 -0.0061
18065TIP3    H275687   1.934   1.760  17.405 -0.4946  1.2009  0.8916
18066TIP3   OH275688   1.336   3.016  14.647 -0.0006  0.1273 -0.2706
18066TIP3    H175689   1.428   3.042  14.639 -0.2245  2.5457  3.0370
18066TIP3    H275690   1.287   3.096  14.626 -1.4078 -1.0116 -1.5974
18067TIP3   OH275691   1.609   0.291  46.302  0.2494 -0.0622  0.0065
18067TIP3    H175692   1.697   0.258  46.320 -0.4008 -1.5025  0.7246
18067TIP3    H275693   1.570   0.303  46.389  0.0134  1.4158 -0.2782
18068TIP3   OH275694   2.416   0.392   6.764 -0.0134 -0.1040  0.0798
18068TIP3    H175695   2.406   0.309   6.719 -0.1091  0.2476 -0.5644
18068TIP3    H275696   2.375   0.379   6.849  1.3871 -1.2039  0.6120
18069TIP3   OH275697   1.030   3.356   5.457  0.2635  0.4398 -0.2449
18069TIP3    H175698   1.052   3.329   5.368 -0.9288  0.9899 -0.7220
18069TIP3    H275699   1.071   3.441   5.468  0.1204  0.5294 -0.3990
18070TIP3   OH275700   0.402   3.173  44.122  0.0268 -0.1518  0.0412
18070TIP3    H175701   0.324   3.187  44.176  0.5079  1.1966  0.4286
18070TIP3    H275702   0.467   3.139  44.183  1.1126  2.9881  0.8098
18071TIP3   OH275703   3.319   1.489   2.623  0.1044  0.1414  0.0473
18071TIP3    H175704   3.237   1.525   2.656  1.1008  2.1068  0.5091
18071TIP3    H275705   3.353   1.435   2.695 -0.8317 -0.8302 -0.2146
18072TIP3   OH275706   0.977   3.206  16.031 -0.5425 -0.2608 -0.6771
18072TIP3    H175707   1.004   3.206  15.939  0.1652 -1.2943 -0.4767
18072TIP3    H275708   0.939   3.294  16.044 -0.4157 -0.0077 -1.8741
18073TIP3   OH275709   2.685   0.004  43.935 -0.1037  0.1628  0.4445
18073TIP3    H175710   2.700  -0.041  43.852 -0.1853  0.7702  0.0928
18073TIP3    H275711   2.620  -0.050  43.980 -1.7919  1.0020 -0.8766
18074TIP3   OH275712   0.121   1.104  14.079  0.0914  0.2131  0.2976
18074TIP3    H175713   0.176   1.028  14.100  0.9410  1.0273  1.1851
18074TIP3    H275714   0.168   1.178  14.118 -1.0719  1.0988  0.0749
18075TIP3   OH275715   0.590   2.466  53.409 -0.0117 -0.3088  0.0151
18075TIP3    H175716   0.648   2.403  53.366  1.5318  1.2890 -0.3464
18075TIP3    H275717   0.502   2.429  53.397  0.5493 -1.0100 -2.6007
18076TIP3   OH275718   0.902   0.334  18.968  0.1932  0.2878  0.0615
18076TIP3    H175719   0.891   0.274  19.041 -0.7021 -0.9149 -1.0181
18076TIP3    H275720   0.995   0.330  18.947  0.2891 -0.0579  0.5448
18077TIP3   OH275721   2.423   2.064  11.299  0.3991 -0.4962 -0.5572
18077TIP3    H175722   2.491   2.057  11.233  1.2003  0.2496  0.1634
18077TIP3    H275723   2.467   2.104  11.375 -0.9795  0.6445 -0.3122
18078TIP3   OH275724   2.327   2.095   7.071  0.6078  0.4104 -0.4386
18078TIP3    H175725   2.304   2.138   6.989 -0.9322  0.1371 -0.1728
18078TIP3    H275726   2.369   2.163   7.123 -0.3322  1.1703 -0.6494
18079TIP3   OH275727   1.804   0.271   0.227 -0.4044  0.1428 -0.3714
18079TIP3    H175728   1.814   0.365   0.242 -0.0301  0.0013  0.2927
18079TIP3    H275729   1.880   0.232   0.270 -0.6000 -0.4700 -0.5782
18080TIP3   OH275730   0.190   2.908  15.887 -0.4202 -0.1493  0.3646
18080TIP3    H175731   0.277   2.877  15.912  0.7722  1.9187 -0.9237
18080TIP3    H275732   0.166   2.970  15.956  0.8877  2.1384 -1.0938
18081TIP3   OH275733   1.676   1.274  20.147  0.0264 -0.1539  0.0741
18081TIP3    H175734   1.726   1.247  20.224  0.6180 -2.2102 -0.9726
18081TIP3    H275735   1.634   1.357  20.174  0.2955 -0.7344  2.5401
18082TIP3   OH275736   0.554   1.331  63.105 -0.2401  0.3720 -0.2232
18082TIP3    H175737   0.581   1.423  63.110 -0.1013  0.2699  1.3008
18082TIP3    H275738   0.598   1.288  63.178  0.3212 -1.0980 -1.3789
18083TIP3   OH275739   0.646   0.414  44.231 -0.0737  0.2123 -0.4248
18083TIP3    H175740   0.725   0.434  44.281 -0.3915  0.3644  0.0150
18083TIP3    H275741   0.655   0.321  44.209 -0.2534 -0.0170  0.4729
18084TIP3   OH275742   2.051   1.095  44.193 -0.3028  0.0428  0.0850
18084TIP3    H175743   2.029   1.008  44.226  0.9856 -0.9025 -1.3621
18084TIP3    H275744   2.060   1.149  44.271  0.0925 -1.4232  1.1026
18085TIP3   OH275745   3.013   1.657  59.920  0.8464  0.3268  0.1990
18085TIP3    H175746   2.939   1.717  59.934  0.8665  0.1621  1.0881
18085TIP3    H275747   3.043   1.676  59.831  1.6307  2.4965  0.8539
18086TIP3   OH275748   0.635   1.328  44.408 -0.0675 -0.3018  0.0405
18086TIP3    H175749   0.586   1.246  44.399  0.4397 -0.6057 -0.0569
18086TIP3    H275750   0.726   1.302  44.394  0.2045  0.1198  0.9055
18087TIP3   OH275751   0.833   3.440  50.363  0.2944 -0.2991  0.3582
18087TIP3    H175752   0.904   3.378  50.349  0.5880  0.0513  0.3093
18087TIP3    H275753   0.759   3.402  50.316  0.3022 -0.9247  0.8431
18088TIP3   OH275754   2.167   2.769   1.109 -0.0314 -0.0113 -0.1129
18088TIP3    H175755   2.166   2.799   1.018  1.3719 -0.7021 -0.3860
18088TIP3    H275756   2.230   2.826   1.153 -2.0844  1.5878  0.9450
18089TIP3   OH275757   2.713   0.680  20.002  0.6412  0.0946 -0.0874
18089TIP3    H175758   2.618   0.678  19.995  0.5771  0.0219  0.7261
18089TIP3    H275759   2.743   0.691  19.912 -0.1574  0.7973 -0.2834
18090TIP3   OH275760   1.840   1.039  56.252  0.2389 -0.1550 -0.1477
18090TIP3    H175761   1.748   1.014  56.263  0.6396 -1.4008  0.7018
18090TIP3    H275762   1.875   0.974  56.191  0.8437 -0.4971  0.5433
18091TIP3   OH275763   2.058   0.501  49.969 -0.2679 -0.4841  0.1782
18091TIP3    H175764   2.107   0.468  50.044  0.7294 -0.1304 -0.3012
18091TIP3    H275765   2.125   0.529  49.907 -0.8849  3.9274  1.1212
18092TIP3   OH275766   1.896   0.828  18.797  0.0157 -0.5038 -0.1289
18092TIP3    H175767   1.807   0.812  18.766 -1.1892  1.4748  1.9491
18092TIP3    H275768   1.932   0.891  18.735 -0.0087 -1.3475 -1.0111
18093TIP3   OH275769   0.673   2.881  60.964  0.2335  0.1394  0.1652
18093TIP3    H175770   0.650   2.811  60.903 -1.4199  0.2342  0.6245
18093TIP3    H275771   0.749   2.924  60.924 -0.1776 -0.4394 -1.3034
18094TIP3   OH275772   0.046   0.241   7.636  0.1851  0.4389 -0.1028
18094TIP3    H175773  -0.047   0.257   7.652 -0.0739 -0.5792 -0.5163
18094TIP3    H275774   0.067   0.166   7.691  0.1944 -0.7463 -1.6551
18095TIP3   OH275775   3.083   0.004   1.175 -0.4313 -0.7041 -0.6044
18095TIP3    H175776   3.002  -0.014   1.126  0.0514  0.1335 -1.7537
18095TIP3    H275777   3.148   0.024   1.107 -0.3712  3.1572  0.3460
18096TIP3   OH275778   0.233   1.316  19.696  0.3099  0.2435 -0.0589
18096TIP3    H175779   0.164   1.370  19.658  1.0290  1.9911  0.9770
18096TIP3    H275780   0.218   1.320  19.790  2.1541  1.2436  0.2544
18097TIP3   OH275781   0.005   3.412   5.459  0.2619  0.2546 -0.4003
18097TIP3    H175782   0.073   3.424   5.526 -0.6330 -0.5240  0.6993
18097TIP3    H275783  -0.058   3.483   5.476  0.4741  0.5871 -0.9942
18098TIP3   OH275784   0.547   2.982  53.610 -0.6308  0.2489  0.4769
18098TIP3    H175785   0.475   2.940  53.657 -0.3081 -1.2226 -0.2894
18098TIP3    H275786   0.619   2.918  53.615  0.2928  1.2478  0.3444
18099TIP3   OH275787   1.676   2.566  62.271 -0.1939  0.1994  0.2633
18099TIP3    H175788   1.605   2.512  62.307  0.3865  0.4395  1.8448
18099TIP3    H275789   1.661   2.653  62.307 -1.2535  1.2549 -2.4575
18100TIP3   OH275790   0.138   1.636  65.650  0.0787 -0.4884 -0.1229
18100TIP3    H175791   0.180   1.677  65.725 -0.4968  1.3419 -0.7540
18100TIP3    H275792   0.148   1.542  65.665  1.1201 -0.1410  1.5651
18101TIP3   OH275793   0.547   3.003  57.899  0.0156 -0.1739 -0.2913
18101TIP3    H175794   0.561   3.097  57.886  0.3973 -0.2266 -0.2773
18101TIP3    H275795   0.633   2.964  57.884  0.3368 -0.3183  1.6189
18102TIP3   OH275796   0.473   0.184  17.868  0.5429  0.2805  0.5087
18102TIP3    H175797   0.528   0.214  17.796  0.5763  2.0509  1.2291
18102TIP3    H275798   0.522   0.208  17.947  0.3703 -1.3653  1.1571
18103TIP3   OH275799   0.860   2.353  45.702  0.1976  0.4645 -0.1806
18103TIP3    H175800   0.856   2.441  45.665  2.2523  1.5977  2.0294
18103TIP3    H275801   0.794   2.353  45.771 -0.2602  0.0149 -0.6079
18104TIP3   OH275802   1.621   0.867  60.958 -0.1669 -0.3054 -0.1257
18104TIP3    H175803   1.699   0.923  60.964 -0.2789 -0.1653  0.0169
18104TIP3    H275804   1.549   0.922  60.989 -0.2609 -0.5643  0.1273
18105TIP3   OH275805   3.337   0.566  54.734 -0.2132  0.3872  0.0364
18105TIP3    H175806   3.278   0.579  54.660  0.7211 -0.6539 -0.9313
18105TIP3    H275807   3.425   0.563  54.695  0.2823 -0.4020  1.1459
18106TIP3   OH275808   0.138   0.469   4.385  0.1435  0.0956  0.5521
18106TIP3    H175809   0.050   0.499   4.366 -0.1002 -0.8438  0.1193
18106TIP3    H275810   0.186   0.548   4.410 -0.9177  0.5542  1.1918
18107TIP3   OH275811   0.250   1.984  64.358  0.1953  0.1402  0.3997
18107TIP3    H175812   0.303   1.911  64.326  1.5580  0.5853  1.6015
18107TIP3    H275813   0.267   2.055  64.296  1.1055  0.3130  0.8377
18108TIP3   OH275814   1.004   2.586  53.430  0.2006 -0.1413  0.2774
18108TIP3    H175815   1.014   2.513  53.369 -1.3156 -0.0246 -0.1493
18108TIP3    H275816   0.926   2.564  53.481  0.2780  0.7311  0.7964
18109TIP3   OH275817   1.618   1.865  65.247 -0.3992 -0.1710  0.0713
18109TIP3    H175818   1.611   1.802  65.317 -2.2342  0.0938  0.1935
18109TIP3    H275819   1.676   1.825  65.183 -0.0302 -1.1254  0.9884
18110TIP3   OH275820   2.974   1.285  57.431 -0.2644  0.0733 -0.1726
18110TIP3    H175821   3.056   1.269  57.384 -1.3101 -0.8361 -1.7642
18110TIP3    H275822   2.912   1.314  57.364 -1.4770 -0.0508  0.8502
18111TIP3   OH275823   1.801   1.080  61.054 -0.7506 -0.3433  0.1218
18111TIP3    H175824   1.790   1.165  61.097  0.4453  0.2596 -0.7057
18111TIP3    H275825   1.871   1.037  61.103 -1.9138 -1.2481  1.0662
18112TIP3   OH275826   0.715   0.377  65.904 -0.1224  0.0447 -0.0724
18112TIP3    H175827   0.707   0.301  65.961  0.3700 -0.4100 -0.6035
18112TIP3    H275828   0.640   0.371  65.845 -0.9969  0.8636  0.9121
18113TIP3   OH275829   2.496   1.629  50.017  0.5713  0.2241  0.5006
18113TIP3    H175830   2.457   1.546  49.988 -1.1929  1.3730 -0.6792
18113TIP3    H275831   2.563   1.648  49.951  0.5173  0.0559  0.3975
18114TIP3   OH275832   0.350   1.713   8.637  0.2291 -0.2595 -0.5994
18114TIP3    H175833   0.380   1.800   8.612 -0.0382  0.1012  0.2896
18114TIP3    H275834   0.359   1.660   8.557  0.3552  0.5867 -1.1573
18115TIP3   OH275835   3.025   1.757  52.427  0.1084  0.3400 -0.6421
18115TIP3    H175836   3.071   1.755  52.511  0.8569 -1.4954 -1.0216
18115TIP3    H275837   3.069   1.688  52.375 -0.9412  0.7878 -2.1953
18116TIP3   OH275838   0.128   2.471   7.674 -0.2881 -0.3280  0.6775
18116TIP3    H175839   0.176   2.469   7.757 -2.1824  0.5292  1.8724
18116TIP3    H275840   0.046   2.517   7.695 -0.7379  0.1052 -1.7284
18117TIP3   OH275841   3.394   0.271  17.650 -0.0288  0.0077  0.0670
18117TIP3    H175842   3.444   0.192  17.629 -0.2004 -0.0468 -0.1347
18117TIP3    H275843   3.314   0.238  17.692 -0.1948  0.0625 -0.2030
18118TIP3   OH275844   2.852   3.405  21.111 -0.4026  0.6120  0.0419
18118TIP3    H175845   2.809   3.360  21.183  0.6742  1.5457  1.3093
18118TIP3    H275846   2.815   3.494  21.112  0.8997  1.1676  0.6125
18119TIP3   OH275847   0.991   3.150  10.992 -0.3118 -0.7674  0.1039
18119TIP3    H175848   1.014   3.206  11.067  1.0287  1.4736 -1.8336
18119TIP3    H275849   0.896   3.159  10.984 -0.2180  0.7468  0.2831
18120TIP3   OH275850   0.671   0.016   4.684 -0.3915  0.1443  0.0859
18120TIP3    H175851   0.754  -0.006   4.642  0.7256 -1.5282  2.9010
18120TIP3    H275852   0.696   0.070   4.759 -2.1563  1.7390 -0.3839
18121TIP3   OH275853   0.921   0.328   2.179 -0.4886  0.0413 -0.2589
18121TIP3    H175854   0.868   0.311   2.101 -0.4160 -0.0901 -0.2807
18121TIP3    H275855   0.864   0.306   2.252 -0.9036  1.1376 -0.2426
18122TIP3   OH275856   0.465   0.282  47.279 -0.2267 -0.2961  0.1258
18122TIP3    H175857   0.422   0.367  47.269  3.0802  1.6057  0.6400
18122TIP3    H275858   0.415   0.238  47.348 -2.1285  1.0770 -0.2788
18123TIP3   OH275859   1.098   2.488  53.765 -0.3722  0.6293 -0.1049
18123TIP3    H175860   1.141   2.434  53.698  0.3595 -1.6204  2.0380
18123TIP3    H275861   1.114   2.578  53.737  2.3890 -0.1688 -1.4733
18124TIP3   OH275862   2.717   0.691  58.634  0.6516 -0.2836  0.7969
18124TIP3    H175863   2.627   0.725  58.630 -0.6709 -3.3818  0.4753
18124TIP3    H275864   2.721   0.643  58.717  1.2880 -1.7894 -0.0482
18125TIP3   OH275865   1.059   0.662  20.798  0.0528  0.0508 -0.2265
18125TIP3    H175866   1.055   0.657  20.702 -0.0161  2.7673 -0.4354
18125TIP3    H275867   0.982   0.614  20.827  0.8204 -2.0709 -1.4031
18126TIP3   OH275868   0.382   2.711  45.522  0.0367 -0.2880  0.1578
18126TIP3    H175869   0.348   2.764  45.450  0.9171  0.8898  0.5704
18126TIP3    H275870   0.313   2.711  45.587  0.3240  1.0852  0.4987
18127TIP3   OH275871   0.970   0.234  19.542  0.2857 -0.3557  0.4022
18127TIP3    H175872   0.956   0.142  19.567 -0.8712  0.1689  1.7885
18127TIP3    H275873   1.042   0.230  19.479  0.7103 -2.1612  0.9251
18128TIP3   OH275874   0.850   0.899   9.114 -0.5464  0.0311  0.1675
18128TIP3    H175875   0.776   0.915   9.172 -1.2616 -0.3474 -0.6203
18128TIP3    H275876   0.876   0.986   9.084 -0.3353  0.2091  0.8353
18129TIP3   OH275877   2.481   3.365  22.131 -0.2260  0.0755  0.0135
18129TIP3    H175878   2.426   3.299  22.171 -1.1167 -0.4403 -1.9664
18129TIP3    H275879   2.568   3.351  22.170 -1.2429  0.4559  2.6460
18130TIP3   OH275880   0.117   3.308  57.568 -0.5971  0.1724  0.1189
18130TIP3    H175881   0.080   3.284  57.483 -2.7680  1.3990  0.6335
18130TIP3    H275882   0.044   3.349  57.615  1.4665  2.9361  1.1894
18131TIP3   OH275883   0.586   2.164  51.536 -0.0789  0.2532  0.0831
18131TIP3    H175884   0.634   2.229  51.587  1.2611 -1.7732  1.5178
18131TIP3    H275885   0.652   2.123  51.481 -0.3672 -1.6073  1.0487
18132TIP3   OH275886   2.586   0.710  67.001  0.3501 -0.1052  0.5509
18132TIP3    H175887   2.559   0.628  66.960  2.2671 -0.7277  0.4013
18132TIP3    H275888   2.511   0.737  67.054 -0.3546 -1.9131  0.5424
18133TIP3   OH275889   3.052   3.246   6.639  0.3786 -0.0829  0.5410
18133TIP3    H175890   3.147   3.251   6.647  0.4933  1.1404 -1.0631
18133TIP3    H275891   3.019   3.315   6.697  0.4756 -0.3440  0.9089
18134TIP3   OH275892   2.191   1.919  54.219 -0.1339  0.2478 -0.4144
18134TIP3    H175893   2.166   1.852  54.156  0.2554 -0.5852  0.3047
18134TIP3    H275894   2.214   1.871  54.298  1.1294  1.1447 -0.1915
18135TIP3   OH275895   1.872   2.502  47.170  0.3128 -0.5608  0.0016
18135TIP3    H175896   1.931   2.559  47.220 -1.4686  1.0883  0.3624
18135TIP3    H275897   1.905   2.506  47.081  1.2778 -0.4042  0.3561
18136TIP3   OH275898   2.399   1.391  49.920  0.0416 -0.2695 -0.2574
18136TIP3    H175899   2.417   1.310  49.873 -0.0740 -0.8169  0.6305
18136TIP3    H275900   2.374   1.453  49.851 -1.4246 -1.4031 -0.7958
18137TIP3   OH275901   3.172   0.828  52.577 -0.0889 -0.3864  0.0174
18137TIP3    H175902   3.156   0.746  52.623 -0.3631 -0.4202 -0.1344
18137TIP3    H275903   3.183   0.802  52.485  0.0740 -0.2799  0.0048
18138TIP3   OH275904   2.412   1.189  65.139  0.5448  0.6893  0.3161
18138TIP3    H175905   2.346   1.224  65.080  1.1580  0.8016 -0.3182
18138TIP3    H275906   2.388   1.222  65.226  0.2695  1.4569 -0.0486
18139TIP3   OH275907   2.907   2.585  49.112 -0.4450  0.6561 -0.1668
18139TIP3    H175908   2.863   2.521  49.168  1.7050  0.0942  0.9997
18139TIP3    H275909   2.928   2.536  49.033  0.4848  0.1011  0.3999
18140TIP3   OH275910   0.154   2.474  60.892  0.0048 -0.0390 -0.2624
18140TIP3    H175911   0.192   2.390  60.867  0.8967  0.5171 -0.7843
18140TIP3    H275912   0.200   2.498  60.972 -0.5203 -0.2110  0.1044
18141TIP3   OH275913   3.034   2.530  20.075 -0.7160  0.1964  0.2647
18141TIP3    H175914   3.015   2.586  20.151  1.4837 -0.5964  1.4819
18141TIP3    H275915   3.025   2.589  20.000 -1.7974  1.2974  1.2061
18142TIP3   OH275916   1.348   1.256  43.218  0.8965  0.4011 -0.5549
18142TIP3    H175917   1.334   1.331  43.160  2.1453  1.7490  0.8147
18142TIP3    H275918   1.313   1.285  43.303 -0.7504 -1.4643 -0.5314
18143TIP3   OH275919   2.173   2.342  48.403 -0.6333  0.3106 -0.1022
18143TIP3    H175920   2.242   2.359  48.467  0.3162 -0.0352 -1.0086
18143TIP3    H275921   2.118   2.421  48.406 -0.7831  0.1849  1.3281
18144TIP3   OH275922   2.201   2.203  60.470  0.1830  0.3956  0.2339
18144TIP3    H175923   2.193   2.297  60.456  0.7390  0.4003 -0.0686
18144TIP3    H275924   2.198   2.193  60.566 -0.3040  0.6748  0.2512
18145TIP3   OH275925   2.608   1.226  20.297  0.0759  0.0984 -0.4031
18145TIP3    H175926   2.618   1.274  20.215  3.6201  2.0109  0.9081
18145TIP3    H275927   2.665   1.150  20.287  0.7556  0.4970  0.3275
18146TIP3   OH275928   3.000   2.439  47.168  0.5636  0.0492  0.2213
18146TIP3    H175929   3.058   2.474  47.234 -0.6916  0.8451  0.9404
18146TIP3    H275930   2.992   2.508  47.102 -0.2436  0.3101  0.5754
18147TIP3   OH275931   0.045   0.419  15.774 -0.1931  0.1388 -0.2590
18147TIP3    H175932   0.094   0.368  15.839 -0.9653 -1.2860 -0.7514
18147TIP3    H275933   0.109   0.481  15.740  0.6812 -0.2341  0.6437
18148TIP3   OH275934   0.239   3.224  58.433  0.2125 -0.5171 -0.2517
18148TIP3    H175935   0.324   3.265  58.445 -0.1137 -0.1840  1.0073
18148TIP3    H275936   0.183   3.293  58.400 -0.1299 -0.1201  1.0973
18149TIP3   OH275937   2.738   2.501  47.789  0.6533  0.1810 -0.4687
18149TIP3    H175938   2.686   2.421  47.782  0.4429 -0.0516  2.7036
18149TIP3    H275939   2.807   2.489  47.724  0.9654 -2.8794  0.2621
18150TIP3   OH275940   0.940   2.844  48.471 -0.7621 -0.2479 -0.2228
18150TIP3    H175941   1.001   2.791  48.420 -0.0242 -0.7736  1.1528
18150TIP3    H275942   0.918   2.790  48.547 -0.8404  0.9906  0.6642
18151TIP3   OH275943   1.969   0.231  43.522  0.7047 -0.2356  0.5978
18151TIP3    H175944   1.898   0.295  43.528  0.6991 -0.2587  0.7860
18151TIP3    H275945   2.049   0.282  43.536  0.8176 -0.0104 -0.7508
18152TIP3   OH275946   2.476   2.871  61.303  0.0868  0.1741  0.6393
18152TIP3    H175947   2.530   2.929  61.356  0.0060  1.3198 -0.4765
18152TIP3    H275948   2.438   2.809  61.365  1.3097  0.4234  1.6663
18153TIP3   OH275949   2.290   2.465  61.232  0.1807 -0.3328 -0.2110
18153TIP3    H175950   2.203   2.468  61.193  0.4034 -0.2565 -0.7011
18153TIP3    H275951   2.309   2.557  61.254 -0.0935 -0.4206  0.4138
18154TIP3   OH275952   1.100   1.902  62.173 -0.3243  0.3919 -0.0724
18154TIP3    H175953   1.120   1.910  62.080  1.3301  0.3269  0.2483
18154TIP3    H275954   1.052   1.982  62.195 -0.4516  0.5479 -0.8988
18155TIP3   OH275955   0.514   2.239  56.587 -0.3878 -0.0718  0.0694
18155TIP3    H175956   0.503   2.318  56.639  0.0326 -0.1222  0.2449
18155TIP3    H275957   0.604   2.210  56.606 -1.0584 -1.4905  1.2711
18156TIP3   OH275958   2.403   1.325  10.937  0.0413  0.0496 -0.1612
18156TIP3    H175959   2.478   1.269  10.918  1.4749  2.2492 -1.5433
18156TIP3    H275960   2.392   1.320  11.032  0.6631 -1.8329 -0.1539
18157TIP3   OH275961   0.409   0.843  51.750 -0.0615  0.3524  0.2510
18157TIP3    H175962   0.422   0.822  51.658 -0.3964  1.8003 -0.1548
18157TIP3    H275963   0.453   0.927  51.762 -0.3736  0.3870  1.3083
18158TIP3   OH275964   1.004   3.361  20.685  0.2191 -0.2136 -0.0238
18158TIP3    H175965   0.981   3.450  20.660 -1.6762  0.2528  2.9412
18158TIP3    H275966   0.981   3.354  20.778  3.9170 -2.6451  0.9454
18159TIP3   OH275967   2.102   2.265  66.917  0.6317 -0.5909  0.1266
18159TIP3    H175968   2.007   2.250  66.914  0.7621 -1.4081 -0.2539
18159TIP3    H275969   2.112   2.348  66.964 -0.3395  0.1704 -0.9411
18160TIP3   OH275970   0.261   1.724  66.698 -0.3034 -0.1143  0.7986
18160TIP3    H175971   0.313   1.720  66.618 -2.1693  0.0178 -0.4934
18160TIP3    H275972   0.263   1.635  66.733  0.8275 -0.0863  0.8276
18161TIP3   OH275973   0.643   0.992  63.751  0.0282  0.6775  0.1284
18161TIP3    H175974   0.665   0.938  63.675 -1.3015  1.0518 -0.5633
18161TIP3    H275975   0.609   1.073  63.713 -1.2884  0.6070  1.1072
18162TIP3   OH275976   1.586   1.711  36.814 -0.7720  0.4300 -0.3761
18162TIP3    H175977   1.511   1.754  36.856 -1.3741 -0.2546 -0.7320
18162TIP3    H275978   1.555   1.689  36.726  0.3145  1.4134 -1.0410
18163TIP3   OH275979   2.522   0.094  51.690  0.4036 -0.1284  0.5056
18163TIP3    H175980   2.561   0.073  51.775  0.1609 -1.0106  0.4068
18163TIP3    H275981   2.478   0.177  51.704  0.1512 -0.3892  1.3160
18164TIP3   OH275982   3.300   0.028  58.812  0.3100 -0.5459 -0.2877
18164TIP3    H175983   3.370  -0.038  58.811 -0.3345 -1.3052  1.2175
18164TIP3    H275984   3.225  -0.018  58.850 -0.7857  0.4814 -1.1542
18165TIP3   OH275985   0.841   2.763  14.474  0.2932 -0.0609 -0.2705
18165TIP3    H175986   0.898   2.804  14.539 -0.5717 -0.2259  0.6102
18165TIP3    H275987   0.811   2.836  14.420  1.9467 -0.0647 -1.2611
18166TIP3   OH275988   1.575   2.653  39.743  0.1459  0.2757 -0.3653
18166TIP3    H175989   1.495   2.704  39.730  0.8849  1.5338 -0.1274
18166TIP3    H275990   1.604   2.677  39.831  0.5412 -0.5420 -0.2630
18167TIP3   OH275991   2.220   2.842  54.292 -0.0069  0.2440 -0.0352
18167TIP3    H175992   2.248   2.759  54.253  1.1185  0.7742 -0.3779
18167TIP3    H275993   2.213   2.902  54.218 -0.0298  0.6708  0.3128
18168TIP3   OH275994   1.781   3.364  66.060  0.0537 -0.5371  0.0314
18168TIP3    H175995   1.868   3.403  66.063 -0.0674 -0.2992  0.5420
18168TIP3    H275996   1.722   3.434  66.087 -0.4902 -0.1850 -1.9338
18169TIP3   OH275997   2.875   1.961  21.732 -0.2371  0.5342  0.0833
18169TIP3    H175998   2.898   1.876  21.770  0.7120  0.3001 -0.9588
18169TIP3    H275999   2.890   2.024  21.803  1.7338  0.1349  0.0657
18170TIP3   OH276000   3.328   3.449  54.302 -0.2964  0.0391 -0.3111
18170TIP3    H176001   3.252   3.461  54.359  0.6387  2.2867  0.6240
18170TIP3    H276002   3.317   3.515  54.234 -0.3218 -1.1981 -1.5381
18171TIP3   OH276003   2.469   3.290  63.440  0.1962  0.1268 -0.1573
18171TIP3    H176004   2.440   3.349  63.370 -0.0306 -0.1509 -0.2977
18171TIP3    H276005   2.443   3.335  63.521 -1.3177 -0.4592 -0.2852
18172TIP3   OH276006   2.235   1.921  53.465 -0.2400  0.1554  0.4708
18172TIP3    H176007   2.235   1.843  53.409 -0.8821 -1.0340  2.0689
18172TIP3    H276008   2.316   1.967  53.441 -0.1973 -0.6091 -1.0042
18173TIP3   OH276009   2.565   3.163  67.144 -0.2749  0.5500  0.1268
18173TIP3    H176010   2.524   3.076  67.146 -1.2341  0.9998  1.8227
18173TIP3    H276011   2.499   3.221  67.181  0.2514  2.0818 -1.2285
18174TIP3   OH276012   2.982   1.611  15.243  0.6059 -0.0824  0.6210
18174TIP3    H176013   3.042   1.543  15.274  0.1435 -0.0294  1.6911
18174TIP3    H276014   2.931   1.635  15.321 -1.1395 -0.4853 -0.3354
18175TIP3   OH276015   0.682   2.477  53.992 -0.2542 -0.2282 -0.4884
18175TIP3    H176016   0.753   2.441  53.938  0.4205  1.1357 -0.5333
18175TIP3    H276017   0.603   2.437  53.955  0.1555  0.8520 -2.6963
18176TIP3   OH276018   0.546   3.230  64.274 -0.5432 -0.4949 -0.0204
18176TIP3    H176019   0.612   3.167  64.302  1.8759  1.5510 -0.7327
18176TIP3    H276020   0.553   3.301  64.337 -1.6550  0.0423 -0.4807
18177TIP3   OH276021   1.387   2.859  47.260  0.3384 -0.4944 -0.0247
18177TIP3    H176022   1.392   2.884  47.168  1.4365  2.4291  0.7074
18177TIP3    H276023   1.476   2.873  47.294 -0.3100 -0.3500  1.7227
18178TIP3   OH276024   1.838   2.355  65.042  0.2613  0.0864 -0.6961
18178TIP3    H176025   1.923   2.369  65.001 -0.0621 -1.1565 -1.8846
18178TIP3    H276026   1.853   2.368  65.135  1.4697  1.0916 -0.9997
18179TIP3   OH276027   3.017   2.397   6.791 -0.0633 -0.0915  0.1419
18179TIP3    H176028   2.956   2.422   6.721 -1.4132 -2.7972  0.2017
18179TIP3    H276029   3.097   2.444   6.771 -1.1172  0.9712 -1.9225
18180TIP3   OH276030   2.252   0.259  60.663 -0.1645 -0.1162  0.4315
18180TIP3    H176031   2.238   0.352  60.681  0.0019 -0.0825  0.3900
18180TIP3    H276032   2.183   0.236  60.601 -0.7249 -0.2279  1.0851
18181TIP3   OH276033   1.644   0.934  48.008  0.1293  0.6702 -0.4740
18181TIP3    H176034   1.685   1.015  48.037 -0.1394  0.1911  1.3547
18181TIP3    H276035   1.686   0.865  48.060  1.1035 -0.5488 -2.7092
18182TIP3   OH276036   2.219   3.394  61.720  0.5583  0.4244  0.3982
18182TIP3    H176037   2.208   3.489  61.731  0.6799  0.2513  2.6086
18182TIP3    H276038   2.133   3.362  61.695  0.3976  1.0688  0.1110
18183TIP3   OH276039   1.028   0.732  36.090 -0.2867  0.0936  0.2490
18183TIP3    H176040   1.043   0.781  36.009 -0.4502  0.1279  0.2394
18183TIP3    H276041   0.933   0.731  36.100 -0.2240  1.6985  1.4090
18184TIP3   OH276042   0.916   1.870  49.957  0.0578 -0.5714 -0.1101
18184TIP3    H176043   0.864   1.951  49.961  0.5841 -0.1806 -0.9407
18184TIP3    H276044   1.000   1.897  49.919  0.1047 -1.5775 -0.7587
18185TIP3   OH276045   0.933   3.081  52.058  0.0037 -0.9373 -0.9515
18185TIP3    H176046   0.842   3.094  52.085  0.2943 -1.9460  0.6862
18185TIP3    H276047   0.982   3.147  52.107 -0.0400  1.5028 -3.9049
18186TIP3   OH276048   1.011   0.217  17.244  0.4933  0.0576  0.1554
18186TIP3    H176049   1.106   0.221  17.228  0.6332 -0.6167  0.7686
18186TIP3    H276050   0.995   0.128  17.274 -0.2823  0.2766  0.4247
18187TIP3   OH276051   0.689   1.083  46.164  0.1002  0.5534  0.0003
18187TIP3    H176052   0.639   1.064  46.085 -0.5908  2.3332 -0.0428
18187TIP3    H276053   0.764   1.023  46.160 -0.7430 -0.4676 -1.1831
18188TIP3   OH276054   0.658   2.893  47.640  0.2869  0.1851 -0.3071
18188TIP3    H176055   0.666   2.988  47.630 -1.6647  0.5509  0.8872
18188TIP3    H276056   0.710   2.872  47.717  1.1324  0.1929 -0.8723
18189TIP3   OH276057   1.126   0.906  11.980  0.1382 -0.1015 -0.1220
18189TIP3    H176058   1.185   0.882  12.052  0.3394  0.0309 -0.2404
18189TIP3    H276059   1.177   0.890  11.901  0.0713  0.1619 -0.2205
18190TIP3   OH276060   2.008   1.204  47.769 -0.2942  0.0147 -0.3095
18190TIP3    H176061   2.000   1.108  47.775  1.1432 -0.0481  2.5802
18190TIP3    H276062   2.102   1.220  47.773 -0.5797  1.5712  1.8880
18191TIP3   OH276063   0.446   0.711   3.618 -0.3200  0.8933 -0.1669
18191TIP3    H176064   0.534   0.692   3.651 -0.0794  0.8882 -0.7974
18191TIP3    H276065   0.442   0.806   3.613 -0.3032  0.8883 -0.2691
18192TIP3   OH276066   1.864   2.480  54.598 -0.5735 -0.2049  0.3659
18192TIP3    H176067   1.844   2.529  54.519 -0.4009  1.3198  1.2371
18192TIP3    H276068   1.905   2.543  54.657 -1.0904 -1.1764  1.8500
18193TIP3   OH276069   2.492   3.297  48.470 -0.2478  0.1290  0.6400
18193TIP3    H176070   2.472   3.385  48.436  0.1677 -0.2975 -0.7986
18193TIP3    H276071   2.468   3.238  48.398  0.4360 -0.8547  1.2034
18194TIP3   OH276072   0.835   1.369  52.615  0.0485 -0.5464  0.3084
18194TIP3    H176073   0.741   1.372  52.629  0.0282 -0.3071  0.1129
18194TIP3    H276074   0.846   1.313  52.538  0.1659 -1.9462  1.2886
18195TIP3   OH276075   1.533   0.522  25.648 -0.2428  0.4280  0.0840
18195TIP3    H176076   1.625   0.502  25.630 -0.8929 -0.9406 -2.0174
18195TIP3    H276077   1.510   0.590  25.586 -0.7338  0.5577  0.4029
18196TIP3   OH276078   0.815   1.787  13.997  0.0141 -0.0486  0.2790
18196TIP3    H176079   0.853   1.844  14.064  0.5668  1.3385 -1.1605
18196TIP3    H276080   0.809   1.701  14.039  0.4256  0.7489  2.0617
18197TIP3   OH276081   0.549   0.965  38.771 -0.1683  0.5156  0.4685
18197TIP3    H176082   0.588   1.015  38.843 -3.0775  0.0133  2.5903
18197TIP3    H276083   0.514   0.886  38.813 -0.8664 -0.4488 -1.7566
18198TIP3   OH276084   1.482   2.804  58.592  0.1889 -0.1142  0.0150
18198TIP3    H176085   1.516   2.730  58.540 -1.8089 -0.6301 -0.6547
18198TIP3    H276086   1.465   2.766  58.678 -0.7639 -0.4455 -0.3069
18199TIP3   OH276087   2.991   1.449  17.516  0.3140 -0.3192 -0.3261
18199TIP3    H176088   3.078   1.412  17.498 -0.1698 -1.8470  0.2776
18199TIP3    H276089   2.933   1.404  17.454 -0.1910 -0.0422 -0.0574
18200TIP3   OH276090   0.103   1.627  53.818  0.1994  0.0142 -0.5711
18200TIP3    H176091   0.165   1.554  53.812  0.1518 -0.7419  4.3420
18200TIP3    H276092   0.153   1.703  53.788  2.6604 -1.0119  0.6430
18201TIP3   OH276093   2.682   1.077  54.025 -0.3028 -0.0619  0.7817
18201TIP3    H176094   2.660   1.055  53.935  0.8985 -0.0040  0.4631
18201TIP3    H276095   2.676   0.994  54.072 -1.1313 -0.0563  0.7026
18202TIP3   OH276096   2.559   1.292   0.498 -0.2690 -0.2993 -0.0295
18202TIP3    H176097   2.548   1.383   0.525  1.1602 -0.7050  2.1613
18202TIP3    H276098   2.537   1.241   0.576  0.9260 -1.7359 -0.5815
18203TIP3   OH276099   2.246   1.278   4.874  0.4380  0.2225  0.9236
18203TIP3    H176100   2.211   1.329   4.947 -0.6041  0.1056  0.5254
18203TIP3    H276101   2.206   1.316   4.797  1.9461  0.6922  0.3375
18204TIP3   OH276102   2.233   0.007   0.429  0.0641  1.4349 -0.8262
18204TIP3    H176103   2.289   0.033   0.502 -1.3674  0.4314  0.6881
18204TIP3    H276104   2.291  -0.044   0.371  0.3035 -1.7470  1.9169
18205TIP3   OH276105   2.954   3.198  62.294  0.4067  0.1691 -0.0616
18205TIP3    H176106   3.044   3.226  62.278  0.2914  0.3613 -0.3969
18205TIP3    H276107   2.904   3.239  62.223  0.0242  0.2518  0.2532
18206TIP3   OH276108   0.697   0.434  60.886  0.0756 -0.1452 -0.0017
18206TIP3    H176109   0.614   0.386  60.888 -0.3864  0.6013 -0.7433
18206TIP3    H276110   0.744   0.402  60.963 -1.2121 -0.0352  0.8716
18207TIP3   OH276111   3.319   0.767  57.230  0.3041  0.2677 -0.0873
18207TIP3    H176112   3.266   0.803  57.159  1.3360  0.3227 -0.8449
18207TIP3    H276113   3.288   0.677  57.239  0.2196  0.2322 -0.6741
18208TIP3   OH276114   1.174   0.884  14.795  0.2163  0.7436 -0.3003
18208TIP3    H176115   1.131   0.933  14.724  0.4313  0.1363 -0.8648
18208TIP3    H276116   1.101   0.847  14.846  0.0606  1.0746 -0.2811
18209TIP3   OH276117   2.476   2.826  48.515 -0.0652  0.6886 -0.0620
18209TIP3    H176118   2.525   2.830  48.433  0.3764 -1.7144 -0.0042
18209TIP3    H276119   2.534   2.866  48.580  0.8131  0.0751 -0.4449
18210TIP3   OH276120   2.006   0.818  60.401 -0.4133 -0.0147  0.0926
18210TIP3    H176121   2.025   0.881  60.470 -0.2437  0.7299 -0.6148
18210TIP3    H276122   1.981   0.738  60.447  1.7409 -0.2097  1.0547
18211TIP3   OH276123   3.195   2.347  30.632 -0.1428 -0.1081  0.1334
18211TIP3    H176124   3.226   2.295  30.558  0.6576 -0.8202  0.9363
18211TIP3    H276125   3.130   2.292  30.674 -1.4439  0.7670 -0.6747
18212TIP3   OH276126   2.363   0.768  45.430  0.6867 -0.1884 -0.2174
18212TIP3    H176127   2.394   0.777  45.520  1.7125  0.7477 -0.6282
18212TIP3    H276128   2.443   0.765  45.378  0.1001 -0.1555 -1.1380
18213TIP3   OH276129   1.265   0.926  65.159  0.1298 -0.8141  0.4884
18213TIP3    H176130   1.233   0.857  65.217 -1.0592  0.6227  1.6308
18213TIP3    H276131   1.250   1.007  65.207  0.8114  0.3172 -1.0979
18214TIP3   OH276132   2.343   0.708  55.160 -0.2190 -0.1183  0.3721
18214TIP3    H176133   2.298   0.683  55.079  0.5209  0.6679 -0.3026
18214TIP3    H276134   2.425   0.659  55.157  0.6023  1.2491 -0.2555
18215TIP3   OH276135   2.317   0.171   9.178 -0.0128  0.1195  0.6061
18215TIP3    H176136   2.318   0.078   9.199 -0.1655 -0.2665 -1.0291
18215TIP3    H276137   2.387   0.208   9.231 -2.7137 -0.0693  4.7892
18216TIP3   OH276138   1.791   1.713  12.515 -1.0738 -0.0140 -0.6195
18216TIP3    H176139   1.812   1.658  12.590 -0.5852  1.2833  0.2348
18216TIP3    H276140   1.769   1.798  12.553 -0.1850  0.8620 -1.9712
18217TIP3   OH276141   3.186   1.114  12.540 -0.3981  0.8553 -0.1926
18217TIP3    H176142   3.141   1.084  12.619  2.2623  1.6734  1.7726
18217TIP3    H276143   3.159   1.206  12.531 -2.3321  0.2302 -1.5780
18218TIP3   OH276144   0.437   1.293  14.992  0.2737  0.0421 -0.5720
18218TIP3    H176145   0.447   1.243  14.911  0.2162 -0.7851 -0.0801
18218TIP3    H276146   0.461   1.232  15.061  1.2977  1.0463 -0.0183
18219TIP3   OH276147   1.804   1.585  54.386  0.4587  0.4177 -0.1227
18219TIP3    H176148   1.744   1.597  54.459  0.2667 -2.0127  0.2153
18219TIP3    H276149   1.888   1.619  54.417  0.2176  0.0512  0.9748
18220TIP3   OH276150   1.549   3.449  17.317  0.7306  0.2452  0.0236
18220TIP3    H176151   1.609   3.401  17.375  0.7796 -1.2089 -1.1598
18220TIP3    H276152   1.582   3.539  17.318  0.6233  0.3243  2.3358
18221TIP3   OH276153   3.043   3.118   0.517  0.1258  0.2898 -0.1167
18221TIP3    H176154   3.132   3.092   0.540 -0.0327 -0.2784 -0.1375
18221TIP3    H276155   3.044   3.125   0.422 -0.2632 -1.3113 -0.2659
18222TIP3   OH276156   0.704   2.210  12.402  0.3408 -0.6350  0.2150
18222TIP3    H176157   0.630   2.154  12.380  0.6881 -1.0549  0.0988
18222TIP3    H276158   0.689   2.290  12.354  0.0342 -0.7731  0.0803
18223TIP3   OH276159   2.722   1.135  52.816 -0.0880  0.2165  0.2510
18223TIP3    H176160   2.710   1.159  52.725  0.6920 -0.5562 -0.0660
18223TIP3    H276161   2.715   1.040  52.817  0.7350  0.1534  0.8590
18224TIP3   OH276162   0.444   1.256   8.188  0.2140  0.0292  0.2013
18224TIP3    H176163   0.521   1.259   8.244  0.1667 -1.9049  0.4252
18224TIP3    H276164   0.475   1.291   8.103  0.9323  0.6033  0.6816
18225TIP3   OH276165   2.092   2.129  22.183  0.1610 -0.1762 -0.2097
18225TIP3    H176166   2.023   2.190  22.156  0.3252  0.6778  1.1447
18225TIP3    H276167   2.161   2.186  22.218 -0.1659 -1.1250  2.2225
18226TIP3   OH276168   1.978   0.755  65.325 -0.7684  0.0099  0.5909
18226TIP3    H176169   1.947   0.844  65.343  0.5198  0.4000  1.0208
18226TIP3    H276170   2.064   0.751  65.367 -0.5716 -1.2629  0.1064
18227TIP3   OH276171   2.660   3.117  17.359 -0.7522  0.3377 -0.4568
18227TIP3    H176172   2.628   3.172  17.287  0.0740 -0.5224 -1.5038
18227TIP3    H276173   2.727   3.171  17.401 -1.2740  0.8682 -0.2861
18228TIP3   OH276174   1.826   1.151  16.755  0.2627  0.4996 -0.1765
18228TIP3    H176175   1.823   1.246  16.761 -1.0788  0.3886  2.0017
18228TIP3    H276176   1.904   1.126  16.805 -0.2312  0.4029  0.5550
18229TIP3   OH276177   3.382   2.708  19.445 -0.1244 -0.2029 -0.4179
18229TIP3    H176178   3.412   2.708  19.536  0.5818 -2.2357 -0.6077
18229TIP3    H276179   3.462   2.698  19.393 -0.6538 -0.4416 -1.2008
18230TIP3   OH276180   0.803   0.137  47.120  1.3538  0.1850  0.0341
18230TIP3    H176181   0.809   0.224  47.081 -0.1528 -0.3661 -1.5818
18230TIP3    H276182   0.785   0.153  47.213  0.8323  1.6107 -0.2923
18231TIP3   OH276183   1.622   0.185  51.702  0.3206  0.4387 -0.0702
18231TIP3    H176184   1.705   0.214  51.665  0.7010 -1.6223 -1.0071
18231TIP3    H276185   1.604   0.247  51.773  1.3717  2.4180 -1.4283
18232TIP3   OH276186   2.053   2.642  48.662  0.6524 -0.0833  0.5471
18232TIP3    H176187   2.077   2.691  48.741 -0.3440  2.3341 -0.5223
18232TIP3    H276188   2.132   2.593  48.640  2.2025  1.9813  1.0917
18233TIP3   OH276189   0.977   0.710   8.272 -0.2589 -0.1414  0.0030
18233TIP3    H176190   0.891   0.738   8.241 -1.2460 -1.6240  1.2948
18233TIP3    H276191   0.980   0.737   8.364 -0.1592 -1.7747  0.5131
18234TIP3   OH276192   1.872   1.100  55.887 -0.3653 -0.0146 -0.5484
18234TIP3    H176193   1.952   1.064  55.849 -0.1551 -1.0811  0.8455
18234TIP3    H276194   1.903   1.162  55.954 -0.5928 -1.9833  1.5037
18235TIP3   OH276195   3.214   3.053  62.050 -0.2693  0.1488 -0.0437
18235TIP3    H176196   3.237   2.963  62.073 -2.4534 -0.0804  1.5322
18235TIP3    H276197   3.240   3.105  62.126 -2.6098  0.2073  0.7819
18236TIP3   OH276198   0.363   0.984  17.560  0.8230  0.6891 -0.5423
18236TIP3    H176199   0.309   0.909  17.583  0.3017  0.7991 -1.3776
18236TIP3    H276200   0.381   1.027  17.644  2.3292 -1.1263  0.1431
18237TIP3   OH276201   3.254   1.374   6.823 -0.5797 -0.3281  0.0334
18237TIP3    H176202   3.204   1.420   6.891  1.8952 -1.7296  3.0518
18237TIP3    H276203   3.259   1.284   6.853  1.7163 -0.7460 -1.3158
18238TIP3   OH276204   2.852   2.540  20.626 -0.0884  0.0463  0.3685
18238TIP3    H176205   2.838   2.483  20.702 -0.4098  0.2801  0.4917
18238TIP3    H276206   2.909   2.609  20.659  1.3867 -0.8910 -0.1229
18239TIP3   OH276207   2.603   1.070   8.584 -0.0207 -0.3515 -0.2330
18239TIP3    H176208   2.530   1.010   8.601 -0.5457  0.6825  1.4932
18239TIP3    H276209   2.615   1.116   8.667  0.4298  1.8414 -1.4470
18240TIP3   OH276210   0.606   3.200  59.792 -0.0280 -0.5592 -0.3423
18240TIP3    H176211   0.511   3.209  59.783 -0.0019 -1.4291 -1.6707
18240TIP3    H276212   0.642   3.244  59.715  0.7247  0.5692  0.6002
18241TIP3   OH276213   2.570   0.926   4.562 -0.6424  0.4632 -0.0816
18241TIP3    H176214   2.518   0.985   4.617  0.7113  2.3474 -0.6936
18241TIP3    H276215   2.649   0.977   4.540  0.5668 -1.5632 -0.7485
18242TIP3   OH276216   2.328   2.055  26.344 -0.0868 -0.6604 -0.4422
18242TIP3    H176217   2.365   2.130  26.299  2.0414 -1.4975 -0.1825
18242TIP3    H276218   2.399   1.992  26.350 -0.8700 -1.4604  2.1311
18243TIP3   OH276219   2.781   3.349  22.189  0.2595 -0.3884 -0.3097
18243TIP3    H176220   2.862   3.378  22.229 -0.4334  1.0425  0.1223
18243TIP3    H276221   2.767   3.261  22.223  1.3686 -0.4601 -0.0102
18244TIP3   OH276222   3.033   0.236  43.600 -0.1522 -0.1011  0.4373
18244TIP3    H176223   3.021   0.205  43.690 -1.4137 -1.1039 -0.0285
18244TIP3    H276224   3.008   0.160  43.546  0.9755  0.3524 -0.7556
18245TIP3   OH276225   1.720   0.574   6.781  0.2371 -0.5590 -0.3759
18245TIP3    H176226   1.782   0.554   6.710  2.0769  2.5364  0.1755
18245TIP3    H276227   1.758   0.532   6.858  1.2587  0.6064 -0.2144
18246TIP3   OH276228   0.311   1.792   5.009  0.0354 -0.4378 -0.1257
18246TIP3    H176229   0.302   1.841   4.926  1.2067  0.9314  0.5018
18246TIP3    H276230   0.242   1.827   5.065 -1.1986 -1.8549 -0.7149
18247TIP3   OH276231   2.233   1.156   7.332 -0.0202  0.0691 -0.4258
18247TIP3    H176232   2.307   1.218   7.337  1.2363 -1.2739 -1.5217
18247TIP3    H276233   2.274   1.070   7.335 -1.6044 -0.7170 -0.5751
18248TIP3   OH276234   2.317   2.967  14.319  0.7451 -0.9781  0.3504
18248TIP3    H176235   2.273   3.007  14.243  0.8245 -0.0219  0.7949
18248TIP3    H276236   2.386   2.913  14.280  0.7204 -0.5798 -0.2707
18249TIP3   OH276237   1.542   3.036  22.611 -0.1462 -0.3038 -1.0515
18249TIP3    H176238   1.528   2.942  22.600  2.4199 -0.8445 -0.4497
18249TIP3    H276239   1.475   3.077  22.557 -1.2648 -2.4615 -1.4293
18250TIP3   OH276240   0.293   1.188  47.269  0.3999 -0.4105  0.4189
18250TIP3    H176241   0.277   1.191  47.175 -1.2454 -0.0837  0.6789
18250TIP3    H276242   0.341   1.106  47.283  1.3198 -0.0853 -0.7806
18251TIP3   OH276243   0.921   2.869  11.061 -0.1908 -0.3318  0.1430
18251TIP3    H176244   0.981   2.909  10.998  0.3003 -0.4913  0.4944
18251TIP3    H276245   0.899   2.784  11.022  2.9989 -2.1166  1.7242
18252TIP3   OH276246   2.865   1.635  30.487  0.0930  0.0041  0.4450
18252TIP3    H176247   2.947   1.630  30.437 -0.1216  0.3919  0.0521
18252TIP3    H276248   2.893   1.628  30.578  0.7422  1.7246  0.4245
18253TIP3   OH276249   1.456   1.952  52.690 -0.1247  0.2177  0.4421
18253TIP3    H176250   1.457   1.857  52.692  4.0176  0.0948  1.7158
18253TIP3    H276251   1.436   1.978  52.780  2.3808  0.3317  1.0375
18254TIP3   OH276252   3.260   0.216  61.426 -0.0945  0.3703  0.3062
18254TIP3    H176253   3.216   0.267  61.358 -1.0602 -2.2452 -1.1594
18254TIP3    H276254   3.194   0.206  61.494 -0.3994 -0.1257 -0.0591
18255TIP3   OH276255   1.464   3.054  63.953 -0.5144 -0.0471 -0.1694
18255TIP3    H176256   1.391   3.113  63.935  0.1850  0.2635 -2.2361
18255TIP3    H276257   1.521   3.104  64.012 -2.0805 -0.4382  1.7904
18256TIP3   OH276258   1.288   2.722  67.408  0.2122 -0.2707 -0.6941
18256TIP3    H176259   1.280   2.654  67.340 -3.8211  2.1282 -3.0226
18256TIP3    H276260   1.205   2.718  67.455  1.8199  0.0338  2.4178
18257TIP3   OH276261   1.167   2.740  61.726 -0.2034  0.4738 -0.2547
18257TIP3    H176262   1.159   2.702  61.814 -1.1530  0.2167 -0.4358
18257TIP3    H276263   1.148   2.833  61.739 -1.3223  0.2701 -0.3187
18258TIP3   OH276264   0.551   0.711  18.487  0.5665 -0.3191 -0.3777
18258TIP3    H176265   0.542   0.689  18.579 -0.5008 -2.6727 -0.9871
18258TIP3    H276266   0.621   0.654  18.455  0.1503 -0.3522 -1.2717
18259TIP3   OH276267   1.475   3.381  22.549  0.1959  0.6843 -0.2686
18259TIP3    H176268   1.570   3.371  22.550  0.2794  1.2630 -1.0774
18259TIP3    H276269   1.441   3.294  22.566  0.8688  0.7061  1.3363
18260TIP3   OH276270   2.474   1.518  12.625  0.1698  0.1224  0.0841
18260TIP3    H176271   2.427   1.599  12.647  3.3602  2.4226 -0.7439
18260TIP3    H276272   2.445   1.498  12.536 -1.4302 -0.3318  0.6719
18261TIP3   OH276273   1.123   2.471  61.259  0.0983 -0.1025 -0.0189
18261TIP3    H176274   1.059   2.449  61.326  1.0276 -0.2533  0.8461
18261TIP3    H276275   1.170   2.389  61.241  1.6082  0.4755  1.0901
18262TIP3   OH276276   1.930   2.367   9.509 -0.2578  0.8694 -0.3944
18262TIP3    H176277   1.962   2.307   9.441 -1.4087  1.6131 -1.6467
18262TIP3    H276278   1.926   2.452   9.465 -2.2378  1.1310  0.1998
18263TIP3   OH276279   0.099   0.377  53.265 -0.2750 -0.2248 -0.2209
18263TIP3    H176280   0.166   0.400  53.201 -0.1375 -0.8716 -0.3180
18263TIP3    H276281   0.020   0.364  53.212 -0.5580  0.8428 -0.0716
18264TIP3   OH276282   3.039   1.002  60.704  0.2015 -0.0749  0.1403
18264TIP3    H176283   3.132   1.012  60.724  0.5645 -0.2448 -1.3388
18264TIP3    H276284   2.996   1.076  60.748  1.4498  1.8631 -1.7437
18265TIP3   OH276285   0.646   0.607  17.185 -0.2764  0.9001 -0.2774
18265TIP3    H176286   0.671   0.654  17.264 -0.9735  3.0988 -1.2795
18265TIP3    H276287   0.653   0.672  17.115 -0.5276 -0.7283 -1.9020
18266TIP3   OH276288   1.564   1.114  21.030  0.0249 -0.3072  0.1914
18266TIP3    H176289   1.653   1.147  21.041  0.1744 -0.4932 -0.3916
18266TIP3    H276290   1.575   1.019  21.025  0.1339 -0.2253 -2.5971
18267TIP3   OH276291   0.162   2.377  19.435  0.0244 -0.7482 -0.0833
18267TIP3    H176292   0.177   2.306  19.373  2.3726 -0.4898  0.0941
18267TIP3    H276293   0.239   2.433  19.427 -0.4951  0.3373  1.7141
18268TIP3   OH276294   1.698   1.238   5.825 -0.6146 -0.6011  0.3305
18268TIP3    H176295   1.734   1.277   5.745 -0.3127 -2.1522 -0.3187
18268TIP3    H276296   1.604   1.251   5.818 -0.5934 -0.7601 -0.3026
18269TIP3   OH276297   0.336   1.448  66.677  0.4437  0.5272  0.1394
18269TIP3    H176298   0.406   1.436  66.613  0.7722  0.1108  0.5784
18269TIP3    H276299   0.299   1.361  66.689  0.8379  0.4769  1.0346
18270TIP3   OH276300   2.995   0.542   4.713 -0.6291  0.2136  0.0894
18270TIP3    H176301   3.088   0.555   4.733  0.0602 -0.8822 -2.1122
18270TIP3    H276302   2.977   0.607   4.645 -1.8953  1.3742  1.4792
18271TIP3   OH276303   2.959   0.416   3.487  0.3940 -0.2753  0.2355
18271TIP3    H176304   2.983   0.492   3.541  0.6545 -0.5459  0.5006
18271TIP3    H276305   2.945   0.345   3.550 -0.8649 -0.1888  0.0665
18272TIP3   OH276306   0.565   2.475  13.680  0.3958  0.0539  0.3959
18272TIP3    H176307   0.485   2.524  13.663  0.3123 -0.5796 -1.1283
18272TIP3    H276308   0.627   2.540  13.713 -0.8669  0.4595  2.0700
18273TIP3   OH276309   1.153   3.103  46.786 -0.9405  0.3355  0.2760
18273TIP3    H176310   1.138   3.067  46.699 -1.6444  0.2039  0.4486
18273TIP3    H276311   1.240   3.143  46.781  0.3417 -2.2279  0.3577
18274TIP3   OH276312   2.790   0.294  52.322  0.3902  1.0340  0.0549
18274TIP3    H176313   2.791   0.321  52.413 -1.6484  0.8438  0.1732
18274TIP3    H276314   2.701   0.263  52.306  0.1202  2.7118 -2.4491
18275TIP3   OH276315   0.185   0.083   7.892  0.1133  0.2054 -0.3917
18275TIP3    H176316   0.273   0.053   7.868  0.3903 -0.1196  0.9654
18275TIP3    H276317   0.171   0.048   7.980 -1.2363  0.5613 -0.4462
18276TIP3   OH276318   1.770   1.493  19.711 -0.2683 -0.1820  0.3016
18276TIP3    H176319   1.803   1.472  19.623 -2.0985 -1.3281 -0.1685
18276TIP3    H276320   1.731   1.580  19.702  2.4029  1.1884  0.8596
18277TIP3   OH276321   3.186   1.887  12.132  0.5772  0.1944  0.5478
18277TIP3    H176322   3.263   1.943  12.123  1.7032 -1.4904 -1.0652
18277TIP3    H276323   3.113   1.941  12.102  1.3974  1.2893  0.4834
18278TIP3   OH276324   1.818   0.200  26.273  0.2688 -0.6449 -0.0710
18278TIP3    H176325   1.800   0.236  26.187  2.3165 -0.0427 -0.3008
18278TIP3    H276326   1.814   0.105  26.261  1.3396 -0.5853 -1.0517
18279TIP3   OH276327   2.581   0.628  49.424 -0.1293  0.2372 -0.2576
18279TIP3    H176328   2.675   0.618  49.411 -0.1707 -0.7094  0.1196
18279TIP3    H276329   2.563   0.719  49.399  1.2554  1.1325  1.7175
18280TIP3   OH276330   1.582   0.289  34.444 -0.4129  0.3729  0.3285
18280TIP3    H176331   1.523   0.309  34.371 -0.7011  2.1574  0.9823
18280TIP3    H276332   1.664   0.264  34.402 -0.9920 -0.0492 -0.5938
18281TIP3   OH276333   2.028   2.499  52.722 -0.3298 -0.5916 -0.7908
18281TIP3    H176334   1.946   2.499  52.673 -0.2420 -0.7192 -0.9419
18281TIP3    H276335   2.072   2.579  52.696 -0.2687 -0.6754 -0.9474
18282TIP3   OH276336   2.104   1.886   4.681  0.0299  0.8800  0.1997
18282TIP3    H176337   2.134   1.795   4.692 -1.2253  0.5193  0.8626
18282TIP3    H276338   2.106   1.900   4.586 -1.1164 -0.3444 -0.0311
18283TIP3   OH276339   0.193   1.002  46.743 -0.2020 -0.2121 -0.2977
18283TIP3    H176340   0.181   1.024  46.835 -2.4666 -1.0991 -0.3341
18283TIP3    H276341   0.266   1.058  46.714 -0.2865  0.9961  1.6800
18284TIP3   OH276342   2.737   1.979   7.766 -0.1854 -0.0843 -0.0848
18284TIP3    H176343   2.643   1.969   7.756 -0.1667  0.3216 -0.7529
18284TIP3    H276344   2.749   2.015   7.853 -0.7141  0.6876 -0.3217
18285TIP3   OH276345   0.603   0.210   2.718  0.4550  0.4922 -0.6551
18285TIP3    H176346   0.523   0.261   2.712 -0.3082 -0.6609 -0.6837
18285TIP3    H276347   0.573   0.120   2.733  1.7723  0.3010  1.2150
18286TIP3   OH276348   0.193   2.209  55.162  0.2146  0.4474  0.2269
18286TIP3    H176349   0.148   2.289  55.135  1.2120  0.9107 -0.1339
18286TIP3    H276350   0.201   2.158  55.081 -1.0123 -0.3291  0.5811
18287TIP3   OH276351   0.915   1.254  12.812 -0.0952 -0.2334 -0.6238
18287TIP3    H176352   0.899   1.215  12.898 -0.9700 -0.5411 -0.9046
18287TIP3    H276353   0.910   1.348  12.826 -1.5107 -0.2911 -0.5341
18288TIP3   OH276354   2.330   0.475   1.553  0.2820  0.1991 -0.5390
18288TIP3    H176355   2.279   0.541   1.600  0.8758  0.6170 -0.4711
18288TIP3    H276356   2.401   0.525   1.512  1.7900 -0.6100  0.9741
18289TIP3   OH276357   0.339   0.479  10.458 -0.4029  0.7205 -0.0414
18289TIP3    H176358   0.265   0.539  10.451 -0.6474  0.2553 -1.7078
18289TIP3    H276359   0.415   0.536  10.472 -0.6376  1.4315 -1.5310
18290TIP3   OH276360   0.951   2.191  20.335  0.1989 -0.2852 -0.1874
18290TIP3    H176361   0.925   2.126  20.269  0.3035 -0.5254  0.0035
18290TIP3    H276362   0.998   2.140  20.401 -1.6108 -0.3920  1.0970
18291TIP3   OH276363   3.052   0.380  12.750 -0.4617 -0.1555  0.0945
18291TIP3    H176364   3.028   0.418  12.835  0.6348 -1.5092  1.0400
18291TIP3    H276365   3.008   0.295  12.748  1.4182 -1.1743  0.3682
18292TIP3   OH276366   1.197   0.550  54.159  0.1875  0.6608 -0.3316
18292TIP3    H176367   1.246   0.618  54.205  2.4088 -0.3931 -0.9810
18292TIP3    H276368   1.208   0.572  54.066  1.8889 -1.0963 -0.6134
18293TIP3   OH276369   0.314   1.757  42.890 -0.4200 -0.0958 -0.5087
18293TIP3    H176370   0.390   1.702  42.872 -0.2922  0.1652 -0.7855
18293TIP3    H276371   0.292   1.739  42.981  0.2725  0.1842 -0.2780
18294TIP3   OH276372   2.171   1.939  65.435  0.1326 -0.2027 -0.1515
18294TIP3    H176373   2.091   1.896  65.405 -0.9052  1.8347 -0.4400
18294TIP3    H276374   2.161   1.944  65.530 -0.1025  0.0788 -0.1929
18295TIP3   OH276375   3.314   1.616  12.110 -0.4899 -0.1082  0.5691
18295TIP3    H176376   3.399   1.659  12.122  0.3619 -1.2093 -1.0865
18295TIP3    H276377   3.250   1.687  12.112  0.5648  0.8593  0.9095
18296TIP3   OH276378   0.942   2.244  66.661  0.2250 -0.0462 -0.5353
18296TIP3    H176379   0.947   2.257  66.567 -0.2363 -0.5035 -0.6235
18296TIP3    H276380   0.958   2.151  66.674 -0.9842 -0.2316 -0.2670
18297TIP3   OH276381   1.061   0.527   5.968 -0.2552  0.9336  0.3261
18297TIP3    H176382   1.035   0.618   5.954  0.1686  0.9924 -0.0772
18297TIP3    H276383   1.072   0.520   6.063  0.6433  1.5601  0.2747
18298TIP3   OH276384   1.732   0.616   8.230  0.4573 -0.3054  0.2412
18298TIP3    H176385   1.725   0.711   8.219  1.1461 -0.2074  0.6149
18298TIP3    H276386   1.646   0.583   8.203  0.3458  0.3812 -0.2959
18299TIP3   OH276387   2.279   1.230  57.269  0.1058  0.2455  0.1209
18299TIP3    H176388   2.216   1.160  57.248 -1.0751  0.5533  2.2467
18299TIP3    H276389   2.236   1.310  57.241  0.4778  0.3087 -0.2812
18300TIP3   OH276390   3.381   1.182  58.221  0.2130  0.6894  0.3210
18300TIP3    H176391   3.409   1.271  58.243 -0.8171  1.2167 -0.4197
18300TIP3    H276392   3.289   1.179  58.245  0.2977 -0.2817  0.5869
18301TIP3   OH276393   2.871   3.023  42.209 -0.4260 -0.3427  0.9336
18301TIP3    H176394   2.832   2.950  42.162 -1.5545  1.2707 -0.7470
18301TIP3    H276395   2.957   2.991  42.235 -1.2669 -2.6124  1.2120
18302TIP3   OH276396   2.861   1.778   5.591 -0.3455 -0.3070 -0.6916
18302TIP3    H176397   2.931   1.840   5.608  0.1252 -1.2220  0.9113
18302TIP3    H276398   2.780   1.829   5.600  0.0349  0.1102  0.5026
18303TIP3   OH276399   0.833   2.971  46.573  0.5354 -0.0540 -0.1408
18303TIP3    H176400   0.808   3.001  46.660 -0.6829 -3.3597  0.7970
18303TIP3    H276401   0.784   3.026  46.513 -3.2279 -1.3201  1.4955
18304TIP3   OH276402   0.775   0.793  59.029 -0.0128 -0.5181  0.9951
18304TIP3    H176403   0.851   0.845  59.002 -1.0210  0.9534  0.8783
18304TIP3    H276404   0.729   0.848  59.092 -1.5574 -0.9225  0.2815
18305TIP3   OH276405   0.735   1.784  60.993 -0.2622  0.4557  0.1308
18305TIP3    H176406   0.726   1.816  61.083 -1.0609 -1.1517  0.6660
18305TIP3    H276407   0.751   1.863  60.941 -0.1613  1.4652  1.6243
18306TIP3   OH276408   0.292   2.933  44.693 -0.4797  0.2955 -0.0779
18306TIP3    H176409   0.310   2.960  44.782  1.3423  2.2234 -0.9507
18306TIP3    H276410   0.373   2.890  44.664 -1.2946 -0.9504 -0.6173
18307TIP3   OH276411   1.604   0.942  17.397  0.9362 -0.6695 -0.4635
18307TIP3    H176412   1.599   0.850  17.425  0.4282 -0.3951  0.3894
18307TIP3    H276413   1.541   0.949  17.326  0.0260 -0.7002  0.3164
18308TIP3   OH276414   0.608   2.540  10.645 -0.3093 -0.5098  0.4812
18308TIP3    H176415   0.585   2.458  10.601 -0.2946 -0.3535  0.1797
18308TIP3    H276416   0.680   2.575  10.593 -1.7113  0.7657 -0.6706
18309TIP3   OH276417   2.619   1.553  46.059  0.5997 -0.8115 -0.0744
18309TIP3    H176418   2.578   1.581  45.977  0.3797  1.1680  0.6395
18309TIP3    H276419   2.705   1.595  46.059 -0.0716  0.6796  1.4287
18310TIP3   OH276420   0.060   0.296  62.263 -0.0591 -0.3889 -0.1989
18310TIP3    H176421   0.038   0.253  62.181 -0.4073  2.9815 -2.0723
18310TIP3    H276422   0.117   0.369  62.237 -1.2510  1.6193  2.3289
18311TIP3   OH276423   3.145   0.173  44.418  0.2772  0.5438  0.0747
18311TIP3    H176424   3.207   0.244  44.435  0.4573  0.4682 -0.2685
18311TIP3    H276425   3.088   0.172  44.496  1.1303  0.1574  0.7044
18312TIP3   OH276426   3.223   2.504  59.246  1.2033 -0.1020  0.0272
18312TIP3    H176427   3.200   2.586  59.203  1.8689  0.4055  0.6115
18312TIP3    H276428   3.278   2.458  59.183 -0.5793 -0.9120 -1.0127
18313TIP3   OH276429   1.157   0.482  17.074  0.1769 -0.6599 -0.3841
18313TIP3    H176430   1.130   0.562  17.120 -0.5479 -1.4445  0.5725
18313TIP3    H276431   1.220   0.441  17.133 -0.4289 -1.4547 -0.2844
18314TIP3   OH276432   0.932   1.284  44.414 -0.8399  0.4988  0.0607
18314TIP3    H176433   0.932   1.301  44.319 -1.1146 -1.0504 -0.2438
18314TIP3    H276434   1.009   1.330  44.446 -0.8560  1.2229 -0.8798
18315TIP3   OH276435   3.293   0.514  49.724 -0.5056  0.0060 -0.1299
18315TIP3    H176436   3.250   0.485  49.805 -0.2995  1.0791  0.3797
18315TIP3    H276437   3.355   0.581  49.753  0.7909 -0.7815 -0.9721
18316TIP3   OH276438   1.998   0.336  44.073  0.2541 -0.1373  0.1297
18316TIP3    H176439   1.980   0.321  43.980  1.3313  4.0734 -0.9614
18316TIP3    H276440   2.091   0.316  44.083  0.1417 -0.5761  0.3164
18317TIP3   OH276441   0.405   2.833  20.057  0.0643 -0.3211  0.5790
18317TIP3    H176442   0.421   2.771  20.129  1.1693  0.2665  0.8542
18317TIP3    H276443   0.323   2.803  20.019 -0.6266 -0.5813  2.1680
18318TIP3   OH276444   3.367   2.107  42.276 -0.0546  0.2174  0.1058
18318TIP3    H176445   3.452   2.132  42.239  0.0232  0.2846  0.3332
18318TIP3    H276446   3.312   2.183  42.261 -0.1649  0.0611 -0.3153
18319TIP3   OH276447   1.487   1.657  12.777  0.0958 -0.0551  0.8110
18319TIP3    H176448   1.545   1.581  12.771  0.6466  0.3633  0.7061
18319TIP3    H276449   1.439   1.644  12.859 -1.1328 -1.4127 -0.0764
18320TIP3   OH276450   3.238   1.597  11.483 -0.1208 -0.1212 -0.5290
18320TIP3    H176451   3.160   1.559  11.443  0.8737 -0.1342 -2.5937
18320TIP3    H276452   3.273   1.527  11.538  0.2564 -1.3452 -2.2439
18321TIP3   OH276453   2.807   1.509  42.349  0.1560  0.1278 -0.4049
18321TIP3    H176454   2.825   1.419  42.373  2.0309  0.5982  0.1392
18321TIP3    H276455   2.768   1.504  42.261 -0.2905 -1.2125 -0.1434
18322TIP3   OH276456   2.099   0.097  66.677  0.2849  0.2625  0.4016
18322TIP3    H176457   2.028   0.160  66.683  0.4800  0.4504  0.7478
18322TIP3    H276458   2.157   0.118  66.751  1.2351  0.7824 -0.4627
18323TIP3   OH276459   0.214   2.910   4.032  0.1657 -0.2594  0.5831
18323TIP3    H176460   0.244   2.881   3.946  0.0582 -1.3646  0.9149
18323TIP3    H276461   0.294   2.915   4.084  0.4897  2.0841 -0.0150
18324TIP3   OH276462   1.709   0.599  12.989  0.0248  0.3168 -0.3781
18324TIP3    H176463   1.715   0.532  13.058 -0.4724 -0.1947 -0.8220
18324TIP3    H276464   1.793   0.646  12.994  0.6222 -0.7201 -0.4567
18325TIP3   OH276465   0.908   2.549  12.889 -0.0868 -0.4571  0.2914
18325TIP3    H176466   0.904   2.463  12.931  1.0765 -0.1562  1.0527
18325TIP3    H276467   0.969   2.599  12.942 -0.5884  0.7839 -0.2727
18326TIP3   OH276468   0.045   3.373  19.212  0.2265 -0.3930 -0.3701
18326TIP3    H176469   0.088   3.344  19.132  0.6574  0.6646 -0.5462
18326TIP3    H276470   0.045   3.469  19.205 -0.3626 -0.3162  0.5637
18327TIP3   OH276471   0.145   2.824  12.667 -0.5937 -0.4771  0.8862
18327TIP3    H176472   0.176   2.906  12.628  0.2759 -1.6675 -1.0978
18327TIP3    H276473   0.069   2.800  12.613  1.0121 -2.4911 -0.6438
18328TIP3   OH276474   1.447   1.721   7.881  0.5848  0.1118 -0.2075
18328TIP3    H176475   1.418   1.726   7.790  1.9636  1.5961 -0.6124
18328TIP3    H276476   1.402   1.644   7.916 -0.4893 -0.1161 -1.9411
18329TIP3   OH276477   0.469   1.979  61.075  0.3611 -0.2947 -0.1719
18329TIP3    H176478   0.519   2.001  61.154 -0.1795  0.1856  0.0491
18329TIP3    H276479   0.396   1.925  61.107  0.8906 -1.2276 -0.5286
18330TIP3   OH276480   2.581   2.496  55.506 -0.3351  0.3054 -0.1065
18330TIP3    H176481   2.662   2.469  55.549 -1.7816  0.3927  2.8926
18330TIP3    H276482   2.540   2.415  55.478  0.5429  0.2398 -1.3028
18331TIP3   OH276483   2.303   2.422  64.063 -0.0907 -0.3068  0.5859
18331TIP3    H176484   2.346   2.376  64.136  0.3983 -1.0182 -0.1249
18331TIP3    H276485   2.212   2.391  64.066 -0.3057  0.3835  1.4508
18332TIP3   OH276486   1.583   1.784  20.752  0.2487 -0.6479  0.9340
18332TIP3    H176487   1.674   1.803  20.775 -0.0170  1.0409  0.7082
18332TIP3    H276488   1.540   1.770  20.836  0.3911  0.1648  1.1508
18333TIP3   OH276489   0.467   3.310  13.416  0.3429 -0.3411  0.3539
18333TIP3    H176490   0.450   3.372  13.487  0.6367 -0.7856  0.8130
18333TIP3    H276491   0.543   3.347  13.370 -2.0714  2.0565 -2.1611
18334TIP3   OH276492   1.199   0.492  43.816 -0.0559  0.2175 -0.0763
18334TIP3    H176493   1.273   0.529  43.768  0.0693  0.0923  0.0215
18334TIP3    H276494   1.131   0.482  43.749  0.5181 -1.1056 -0.5031
18335TIP3   OH276495   1.282   1.299  50.627  0.1465  0.1425 -0.6704
18335TIP3    H176496   1.271   1.376  50.572 -2.6498 -0.1613 -0.6809
18335TIP3    H276497   1.214   1.307  50.694  1.8198 -0.7805  1.2594
18336TIP3   OH276498   0.940   1.840  47.216  0.0997 -0.2136  0.0333
18336TIP3    H176499   1.009   1.787  47.255  0.4409  0.6260  0.6047
18336TIP3    H276500   0.917   1.794  47.135  3.4763  0.9705 -1.8463
18337TIP3   OH276501   2.181   2.443  48.117  0.0382  0.0596 -0.1742
18337TIP3    H176502   2.094   2.406  48.106  0.2027 -0.4047  0.0991
18337TIP3    H276503   2.213   2.407  48.199  0.2130  0.7801  0.0796
18338TIP3   OH276504   3.380   1.923   6.172 -0.2566 -0.1954  0.2248
18338TIP3    H176505   3.463   1.972   6.173  0.5121 -1.4456  1.1139
18338TIP3    H276506   3.404   1.836   6.141 -1.1914 -0.6478  0.7395
18339TIP3   OH276507   1.350   0.497  49.255 -0.5431 -0.0256  0.2891
18339TIP3    H176508   1.369   0.549  49.177  3.1075  0.1943  1.1341
18339TIP3    H276509   1.318   0.561  49.319  1.0108  0.7021  0.3802
18340TIP3   OH276510   3.295   0.561  53.662  0.9305 -0.7000 -0.1094
18340TIP3    H176511   3.329   0.534  53.748 -0.0983  1.8747  1.1999
18340TIP3    H276512   3.212   0.604  53.681  0.7278  0.0688 -2.4201
18341TIP3   OH276513   0.085   3.185  59.209  0.4619 -0.6541 -0.4539
18341TIP3    H176514  -0.007   3.204  59.192  0.2616  0.7217  1.7626
18341TIP3    H276515   0.131   3.217  59.131 -0.7033  1.1104 -0.4618
18342TIP3   OH276516   1.618   0.273  20.682  0.0656  0.5603  0.1755
18342TIP3    H176517   1.547   0.268  20.746 -1.7258  1.3760 -1.6400
18342TIP3    H276518   1.650   0.363  20.688 -0.6377  0.8751 -0.5627
18343TIP3   OH276519   2.431   1.627  63.063  0.1809 -0.3557  0.2129
18343TIP3    H176520   2.448   1.533  63.073  0.5869 -0.0876  3.5013
18343TIP3    H276521   2.465   1.649  62.977 -1.5047 -3.4880 -1.4096
18344TIP3   OH276522   2.804   2.072  56.037  0.2798  0.4716  0.1400
18344TIP3    H176523   2.759   2.075  56.122  0.6779 -0.5307  0.3972
18344TIP3    H276524   2.835   1.981  56.029  3.6520  1.4184  0.7291
18345TIP3   OH276525   2.943   0.264  56.185 -0.6903  0.3375  1.0137
18345TIP3    H176526   2.985   0.337  56.229 -0.0400  1.8726 -1.8840
18345TIP3    H276527   2.928   0.295  56.095 -1.7372 -2.5904  0.0391
18346TIP3   OH276528   0.242   3.283  54.509 -0.3703  0.2853  0.0249
18346TIP3    H176529   0.263   3.191  54.521  1.3312  0.7146  0.5986
18346TIP3    H276530   0.182   3.284  54.434  0.6529 -1.1763 -0.8678
18347TIP3   OH276531   1.424   3.400  21.891  0.0073 -0.2971  0.2844
18347TIP3    H176532   1.389   3.472  21.944  0.8744  0.2724  0.1068
18347TIP3    H276533   1.519   3.410  21.897  0.1933 -2.2409  1.3511
18348TIP3   OH276534   3.366   0.125   9.119 -0.3008 -0.1893 -0.4154
18348TIP3    H176535   3.422   0.139   9.194  1.8359  0.0113 -1.9529
18348TIP3    H276536   3.384   0.035   9.092 -0.5352 -0.0496 -1.0589
18349TIP3   OH276537   2.671   1.511  27.711 -0.3742  0.1262 -0.0195
18349TIP3    H176538   2.764   1.523  27.732 -0.1494  1.8233 -1.7200
18349TIP3    H276539   2.669   1.433  27.656 -0.0141 -0.0916  0.2661
18350TIP3   OH276540   1.224   2.308  52.034 -0.3879 -0.0641  0.5457
18350TIP3    H176541   1.203   2.293  52.126  0.0916 -1.9443  0.3917
18350TIP3    H276542   1.255   2.223  52.003 -2.1715  0.0706 -1.8084
18351TIP3   OH276543   3.393   2.026  58.291 -0.3113 -0.1756 -0.4430
18351TIP3    H176544   3.329   1.958  58.312 -0.4234 -0.0686 -0.4378
18351TIP3    H276545   3.391   2.085  58.366 -0.1258 -0.2329 -0.3918
18352TIP3   OH276546   0.426   3.394  17.165 -0.0101  0.3864  0.1697
18352TIP3    H176547   0.331   3.380  17.168 -0.3109  2.2685  1.1086
18352TIP3    H276548   0.456   3.373  17.253  0.6442 -1.1940 -0.4008
18353TIP3   OH276549   2.960   2.178  54.086  0.0890 -0.1760 -0.6461
18353TIP3    H176550   2.952   2.267  54.120 -0.7226 -0.2814 -0.5397
18353TIP3    H276551   2.870   2.150  54.070  0.1164 -1.8476  1.5672
18354TIP3   OH276552   1.214   2.502  62.494 -0.0586  0.0079  0.0550
18354TIP3    H176553   1.173   2.582  62.459  1.6580  0.4872 -0.9889
18354TIP3    H276554   1.191   2.434  62.431  0.4990  0.2084 -0.3638
18355TIP3   OH276555   1.131   1.855  17.847  0.4097 -0.3544 -0.9963
18355TIP3    H176556   1.060   1.901  17.801  1.4286  2.3914  0.0100
18355TIP3    H276557   1.209   1.906  17.828  1.7668 -2.0681 -0.2893
18356TIP3   OH276558   3.179   1.418  56.680  0.4921  0.3517 -0.1314
18356TIP3    H176559   3.188   1.355  56.751 -0.6313 -0.5578 -0.7641
18356TIP3    H276560   3.144   1.367  56.607 -0.4667  1.6977 -0.6579
18357TIP3   OH276561   1.130   3.179   5.225 -0.2065  0.7071 -0.3626
18357TIP3    H176562   1.165   3.118   5.291  0.0806  0.7159 -0.5037
18357TIP3    H276563   1.136   3.130   5.143 -1.8938  0.1517 -0.1999
18358TIP3   OH276564   0.758   2.878  62.480 -0.2431 -0.6472  0.3152
18358TIP3    H176565   0.813   2.949  62.511  2.5123 -0.6512 -3.7543
18358TIP3    H276566   0.736   2.903  62.390 -0.8462 -4.0074 -0.6046
18359TIP3   OH276567   1.505   1.355  11.118 -0.4104 -0.2007 -0.7872
18359TIP3    H176568   1.512   1.405  11.198  1.7054 -0.2624 -0.8886
18359TIP3    H276569   1.414   1.367  11.090 -0.8474  0.8066  0.9499
18360TIP3   OH276570   2.839   0.763  44.577 -0.8888  0.1037  0.2125
18360TIP3    H176571   2.836   0.739  44.484  1.3726 -2.9575  0.7647
18360TIP3    H276572   2.817   0.682  44.623  0.5003  0.8399  2.3389
18361TIP3   OH276573   0.758   0.804   8.142  0.3370  0.3114 -0.2194
18361TIP3    H176574   0.667   0.810   8.115 -0.3491  0.0219  1.9024
18361TIP3    H276575   0.807   0.797   8.060 -1.6154 -0.7134 -1.3559
18362TIP3   OH276576   0.072   1.655   1.716 -0.0348  0.1881 -0.1747
18362TIP3    H176577   0.042   1.587   1.656 -0.2310 -0.2929  0.4588
18362TIP3    H276578   0.112   1.607   1.788 -1.6230  0.6672  1.0747
18363TIP3   OH276579   1.159   1.929  61.893 -0.4453  0.6456 -0.1788
18363TIP3    H176580   1.243   1.905  61.855 -0.0378  0.5261  0.7566
18363TIP3    H276581   1.160   2.025  61.894  1.3578  0.7278  3.2469
18364TIP3   OH276582   2.474   1.091  43.746 -0.3396  0.4915  0.0069
18364TIP3    H176583   2.417   1.072  43.671 -1.3598  1.6394  0.4575
18364TIP3    H276584   2.555   1.044  43.726 -0.6574  0.5871 -1.7042
18365TIP3   OH276585   2.477   2.731   8.126  0.0780 -0.2866  0.7999
18365TIP3    H176586   2.429   2.726   8.208  0.2057 -0.7658  0.8492
18365TIP3    H276587   2.494   2.639   8.102  0.6130 -0.1335  0.5760
18366TIP3   OH276588   2.427   3.360  18.857  0.3241 -0.2708  0.5389
18366TIP3    H176589   2.432   3.280  18.910  0.1670  0.4209  1.6172
18366TIP3    H276590   2.518   3.383  18.840  0.3942 -0.1336  1.0760
18367TIP3   OH276591   1.641   1.993  10.231 -0.1901  1.4667  0.5847
18367TIP3    H176592   1.640   1.903  10.263  1.6075  1.7999  1.7145
18367TIP3    H276593   1.548   2.019  10.229 -0.5725  0.5820  3.1534
18368TIP3   OH276594   0.740   3.313  62.024  0.3021  0.4056 -0.1821
18368TIP3    H176595   0.728   3.293  62.116  0.1726  1.9973  0.1719
18368TIP3    H276596   0.693   3.243  61.978 -1.1119  0.5366  0.9923
18369TIP3   OH276597   1.592   3.249  12.293  0.0249  0.3924 -0.3428
18369TIP3    H176598   1.517   3.190  12.290  0.6101 -0.3629 -0.4849
18369TIP3    H276599   1.645   3.216  12.366 -0.6132  1.9695  0.8996
18370TIP3   OH276600   1.599   1.489  48.783 -0.0333 -0.4331  0.2682
18370TIP3    H176601   1.579   1.415  48.842 -1.0365  0.3671  0.9765
18370TIP3    H276602   1.514   1.516  48.750  0.3105  0.4997  0.1292
18371TIP3   OH276603   1.116   2.894   9.094 -0.3110 -0.3087  0.6936
18371TIP3    H176604   1.056   2.967   9.112 -0.1002 -0.0477  0.3590
18371TIP3    H276605   1.189   2.908   9.155  0.2330  0.3712 -0.0903
18372TIP3   OH276606   2.618   0.426   6.148 -0.6570  0.0284 -0.4119
18372TIP3    H176607   2.556   0.366   6.189  2.5129 -1.7492  2.3046
18372TIP3    H276608   2.616   0.504   6.203 -0.6143  0.0496 -0.4399
18373TIP3   OH276609   0.519   1.599  22.951 -0.2518 -0.1344  0.0125
18373TIP3    H176610   0.547   1.516  22.988  0.9031 -1.0875 -2.7462
18373TIP3    H276611   0.597   1.654  22.953 -0.3797  0.0637 -0.2690
18374TIP3   OH276612   3.352   2.721   2.323 -0.2556 -0.3162 -0.0978
18374TIP3    H176613   3.276   2.772   2.295  0.4597  0.3947 -0.8131
18374TIP3    H276614   3.316   2.638   2.353 -1.3453  0.1604 -0.0437
18375TIP3   OH276615   0.739   1.321  66.852  0.1110  0.2257  0.4681
18375TIP3    H176616   0.719   1.349  66.942 -1.0004 -0.1098  0.3325
18375TIP3    H276617   0.752   1.403  66.804  0.5956  0.4097  0.9046
18376TIP3   OH276618   1.288   2.526  21.211 -0.5892 -0.1916 -0.5307
18376TIP3    H176619   1.332   2.441  21.212  0.2039  0.2224 -0.2840
18376TIP3    H276620   1.312   2.567  21.293  0.8255  1.1828 -1.5949
18377TIP3   OH276621   2.525   1.002  21.621 -0.0473  0.5247 -0.4372
18377TIP3    H176622   2.478   1.036  21.697  0.1660  1.7336 -0.8236
18377TIP3    H276623   2.596   0.949  21.659 -0.2866  0.6380  0.1830
18378TIP3   OH276624   0.791   0.718   7.841  0.0423 -0.5948 -0.0537
18378TIP3    H176625   0.873   0.726   7.792  0.1033 -0.8117  0.0115
18378TIP3    H276626   0.724   0.713   7.773  0.0329  0.0929 -0.1009
18379TIP3   OH276627   3.445   3.397  29.896 -0.1987 -0.1154  0.6187
18379TIP3    H176628   3.464   3.382  29.988 -2.3528  2.4169  1.5880
18379TIP3    H276629   3.487   3.480  29.875 -2.2163  0.8666  0.2344
18380TIP3   OH276630   2.965   2.690  61.069  0.4102 -0.3385 -0.2396
18380TIP3    H176631   2.906   2.681  61.144  0.5453 -2.1772 -0.3010
18380TIP3    H276632   2.944   2.775  61.031  0.1565  0.5396  1.7184
18381TIP3   OH276633   0.795   3.102  55.644  0.6416 -0.0748 -0.4584
18381TIP3    H176634   0.834   3.188  55.657 -0.7865  0.5669 -0.2020
18381TIP3    H276635   0.779   3.069  55.732  0.3937 -0.2254 -0.5600
18382TIP3   OH276636   2.530   2.311  18.239  0.3020  0.1814 -0.1633
18382TIP3    H176637   2.620   2.280  18.229  0.8093  1.6139 -0.1886
18382TIP3    H276638   2.537   2.406  18.242 -1.1059  0.2890  0.9073
18383TIP3   OH276639   2.083   1.376  18.363  0.2610  0.1904  0.0220
18383TIP3    H176640   2.012   1.363  18.426  0.5500  0.8055  0.4863
18383TIP3    H276641   2.104   1.288  18.333 -0.0054 -0.0996  0.6552
18384TIP3   OH276642   1.460   2.799  45.961  0.1154 -0.0385 -0.6194
18384TIP3    H176643   1.403   2.793  45.885  1.6010 -2.8326 -1.7023
18384TIP3    H276644   1.494   2.888  45.960 -0.1634  0.1020 -3.0932
18385TIP3   OH276645   3.218   1.617  52.227  0.3337 -0.1612 -0.0326
18385TIP3    H176646   3.282   1.553  52.195 -1.4439 -1.0904 -2.0093
18385TIP3    H276647   3.253   1.702  52.199 -0.1151 -0.8022 -2.8307
18386TIP3   OH276648   2.326   1.470  13.714  0.4120  0.2099  0.2001
18386TIP3    H176649   2.233   1.486  13.699  0.4122 -0.7706 -0.9699
18386TIP3    H276650   2.370   1.546  13.677  0.1198  0.3786  0.1947
18387TIP3   OH276651   0.400   2.059  10.616 -0.1540 -0.2121 -1.0323
18387TIP3    H176652   0.321   2.081  10.566  0.3969  1.2405 -1.3136
18387TIP3    H276653   0.368   2.047  10.706 -0.7071  0.4116 -1.1290
18388TIP3   OH276654   1.161   0.613   1.577  0.3262 -0.4995  0.7113
18388TIP3    H176655   1.117   0.576   1.500 -1.7583  0.0852  1.5443
18388TIP3    H276656   1.102   0.593   1.650  1.7146 -0.0873  1.9870
18389TIP3   OH276657   0.660   0.970  17.662  0.7132 -0.0520 -0.2184
18389TIP3    H176658   0.631   0.995  17.574 -0.8235  1.1751  0.5820
18389TIP3    H276659   0.587   0.994  17.719  1.7994 -0.5145  1.4442
18390TIP3   OH276660   1.049   0.151  45.759 -0.3094  0.3849 -0.0954
18390TIP3    H176661   1.057   0.061  45.791 -0.8249 -1.2913 -4.1618
18390TIP3    H276662   1.138   0.174  45.731 -0.1699  1.2313  0.9678
18391TIP3   OH276663   2.257   1.048  15.309 -0.3452 -0.0237 -0.3645
18391TIP3    H176664   2.226   1.094  15.387 -0.9202 -0.1468 -0.5114
18391TIP3    H276665   2.303   1.115  15.258 -1.8517  0.6067 -0.9559
18392TIP3   OH276666   3.009   2.053  51.991 -0.1686 -0.1170  0.5591
18392TIP3    H176667   3.054   2.093  51.916 -1.1242 -0.4720 -0.2161
18392TIP3    H276668   3.009   1.959  51.971  0.8589 -0.3779  1.7149
18393TIP3   OH276669   1.016   0.074  14.275 -0.5619 -0.4133 -0.1164
18393TIP3    H176670   0.968   0.076  14.358  1.0138  0.5497  0.8121
18393TIP3    H276671   1.085   0.010  14.289 -1.6466 -1.9641 -1.5282
18394TIP3   OH276672   0.875   1.377  64.273 -1.0018 -0.1858  0.3400
18394TIP3    H176673   0.933   1.324  64.328  2.6005  1.4410 -1.5072
18394TIP3    H276674   0.852   1.320  64.199 -2.1682 -0.9601  1.2617
18395TIP3   OH276675   1.262   3.276  42.480 -0.3278  0.2171  0.1980
18395TIP3    H176676   1.201   3.254  42.550 -0.6999 -1.4312 -0.5891
18395TIP3    H276677   1.234   3.362  42.449 -1.7895 -0.1808  0.3506
18396TIP3   OH276678   1.966   2.542  48.313  0.0668  0.1449  0.0806
18396TIP3    H176679   1.993   2.628  48.282 -1.5742  0.9349  0.7105
18396TIP3    H276680   1.910   2.508  48.242 -0.6901  0.3658  0.5585
18397TIP3   OH276681   1.553   1.266  36.493  0.0965  0.0462 -0.5738
18397TIP3    H176682   1.480   1.307  36.538  0.2621  1.0614 -1.1993
18397TIP3    H276683   1.629   1.321  36.515  0.9134 -1.5757  0.9359
18398TIP3   OH276684   2.319   1.129   1.636 -0.1041  0.6386  0.4616
18398TIP3    H176685   2.296   1.216   1.602 -2.1262  1.1805  2.9069
18398TIP3    H276686   2.235   1.086   1.650  0.8246 -1.2247  0.5942
18399TIP3   OH276687   3.158   3.141   8.894 -0.3650 -0.2928 -0.5771
18399TIP3    H176688   3.073   3.180   8.915  0.5258  1.1430  0.6040
18399TIP3    H276689   3.155   3.053   8.933  0.0165  1.1173  3.0409
18400TIP3   OH276690   1.939   1.266   0.498  0.2340 -0.2301 -0.0558
18400TIP3    H176691   1.959   1.177   0.529  1.8407  0.3694  0.7230
18400TIP3    H276692   1.960   1.322   0.573 -0.4545  0.8497 -0.6480
18401TIP3   OH276693   3.039   0.263   4.968  0.2879  0.4658 -0.4510
18401TIP3    H176694   3.025   0.179   5.012  0.2452  0.8094  0.2178
18401TIP3    H276695   3.133   0.279   4.977  0.5984 -0.3060 -2.0797
18402TIP3   OH276696   0.073   2.263  10.962 -0.2053  0.3049 -0.0096
18402TIP3    H176697   0.027   2.272  11.046  1.4452  0.2642  0.9659
18402TIP3    H276698   0.125   2.344  10.956  2.4662 -1.2217  0.8659
18403TIP3   OH276699   0.659   3.081   3.327 -0.0150  0.0383  0.4763
18403TIP3    H176700   0.617   3.119   3.250 -0.2588 -0.9473  0.1110
18403TIP3    H276701   0.718   3.014   3.292  1.3955  0.9526  1.0197
18404TIP3   OH276702   3.172   2.879   8.666 -0.0492  0.1235 -0.2944
18404TIP3    H176703   3.190   2.785   8.662 -0.4326  0.0876 -2.0299
18404TIP3    H276704   3.091   2.886   8.716  0.7732 -0.3207  1.1410
18405TIP3   OH276705   0.824   0.580  60.009 -0.0730 -0.9133  0.4764
18405TIP3    H176706   0.768   0.503  60.018  0.2542 -1.0686  1.2342
18405TIP3    H276707   0.808   0.632  60.087  0.8318 -0.9666  0.7093
18406TIP3   OH276708   1.939   1.412  60.994 -0.0141  0.0619 -0.7647
18406TIP3    H176709   2.031   1.391  61.014  0.3994  1.3001 -1.2335
18406TIP3    H276710   1.914   1.475  61.061  0.4300  1.9310 -2.2425
18407TIP3   OH276711   0.669   1.517  12.404  0.2031 -0.0589 -0.0324
18407TIP3    H176712   0.735   1.451  12.426  0.7532  1.0741  1.9966
18407TIP3    H276713   0.586   1.479  12.434 -0.1164 -1.3734 -2.3477
18408TIP3   OH276714   2.323   2.584  28.164 -0.0260 -0.0009  0.1402
18408TIP3    H176715   2.326   2.525  28.089 -2.4051 -0.0004 -0.0108
18408TIP3    H276716   2.318   2.526  28.240  2.7610 -0.0124  0.4293
18409TIP3   OH276717   2.111   0.301  64.161  0.0901 -0.1637 -0.0276
18409TIP3    H176718   2.110   0.233  64.093  0.2089 -0.8733  0.6677
18409TIP3    H276719   2.156   0.260  64.235 -2.4452 -0.4199  1.4882
18410TIP3   OH276720   1.793   3.093  43.001  0.3752 -0.4307 -1.1818
18410TIP3    H176721   1.719   3.109  43.060  1.7478  2.7826 -0.0667
18410TIP3    H276722   1.784   3.159  42.933  1.7803 -0.4324 -1.4119
18411TIP3   OH276723   0.625   0.826  19.129  0.1696 -1.1723 -0.3658
18411TIP3    H176724   0.591   0.831  19.039 -0.8939  1.9318  0.0924
18411TIP3    H276725   0.713   0.863  19.123  0.4397 -1.7772 -0.2318
18412TIP3   OH276726   0.131   0.625  55.265  0.3222  0.0392  0.3786
18412TIP3    H176727   0.087   0.540  55.264  0.1839  0.0993  0.8811
18412TIP3    H276728   0.072   0.681  55.315  0.0959  0.6081 -0.5074
18413TIP3   OH276729   1.276   0.199  39.314 -0.4283 -0.1982  0.6502
18413TIP3    H176730   1.350   0.239  39.267 -1.2661  0.6474 -0.0057
18413TIP3    H276731   1.279   0.238  39.401 -2.0977  2.6057 -0.4002
18414TIP3   OH276732   0.722   2.958  22.159  0.5165 -0.3021  0.1525
18414TIP3    H176733   0.804   2.935  22.204  0.7849  0.2365 -0.0525
18414TIP3    H276734   0.670   2.878  22.163  1.3566 -0.8901 -0.3962
18415TIP3   OH276735   1.247   2.384  53.969 -0.4002  0.1220 -0.0856
18415TIP3    H176736   1.337   2.368  53.941 -0.2796  0.6992 -0.0290
18415TIP3    H276737   1.204   2.422  53.893 -0.4391  0.3989  0.0742
18416TIP3   OH276738   2.897   2.134  10.965 -0.7214 -0.5762 -0.4491
18416TIP3    H176739   2.914   2.166  11.054 -2.2985 -0.5230 -0.1487
18416TIP3    H276740   2.937   2.047  10.962  0.6280  0.0002 -0.1872
18417TIP3   OH276741   0.448   0.767  62.606  0.2527  0.5075  0.4332
18417TIP3    H176742   0.514   0.713  62.562  0.3117  0.4701  0.5716
18417TIP3    H276743   0.463   0.753  62.699  0.9383  1.5642  0.4943
18418TIP3   OH276744   1.470   0.277  11.599  0.2818 -0.3769 -0.0375
18418TIP3    H176745   1.460   0.182  11.604 -2.0913 -0.2186 -0.6627
18418TIP3    H276746   1.417   0.310  11.671  0.2471  0.5073 -0.4624
18419TIP3   OH276747   1.085   0.343   4.399  0.4027  0.2116  0.4560
18419TIP3    H176748   1.160   0.390   4.364  0.1724  1.3483  1.4630
18419TIP3    H276749   1.036   0.408   4.449 -0.9249 -0.6551  0.3404
18420TIP3   OH276750   3.095   2.161  54.315 -0.6174 -0.3680 -0.1026
18420TIP3    H176751   3.043   2.132  54.239 -2.0794  0.5020  0.5321
18420TIP3    H276752   3.038   2.221  54.362  1.1230  0.9511  0.4321
18421TIP3   OH276753   0.645   2.364  60.171  0.3522 -0.0839  0.2113
18421TIP3    H176754   0.725   2.392  60.218 -0.7999  0.1731  2.1298
18421TIP3    H276755   0.600   2.307  60.233 -1.9186  1.3590  0.0021
18422TIP3   OH276756   0.240   1.558  52.484 -0.0474 -0.3413 -0.2185
18422TIP3    H176757   0.209   1.481  52.532  1.9701 -0.7627  0.5378
18422TIP3    H276758   0.304   1.523  52.421  1.3676  0.7225  0.5570
18423TIP3   OH276759   0.071   1.369  62.103 -0.7579  0.3388 -0.8718
18423TIP3    H176760  -0.019   1.403  62.109 -1.4508 -1.6851  2.0596
18423TIP3    H276761   0.062   1.286  62.058 -0.2780  0.3310 -0.9545
18424TIP3   OH276762   3.387   1.326   4.881  0.4361 -0.5139  0.3553
18424TIP3    H176763   3.441   1.290   4.951  0.1095  0.4965  1.1527
18424TIP3    H276764   3.329   1.255   4.855  0.2333 -0.7533  1.4526
18425TIP3   OH276765   2.783   3.107  43.169 -0.1960 -0.2255  0.6677
18425TIP3    H176766   2.795   3.142  43.081 -0.1396  1.2964  1.2587
18425TIP3    H276767   2.731   3.027  43.156 -0.0177 -0.1399 -0.7455
18426TIP3   OH276768   2.891   1.814  50.532  0.4013 -0.3637  0.1405
18426TIP3    H176769   2.964   1.860  50.574 -1.2773  1.4049  1.3264
18426TIP3    H276770   2.822   1.881  50.524 -1.0516 -1.9117 -1.0626
18427TIP3   OH276771   3.424   1.933  14.429 -0.7232  0.0929 -0.0469
18427TIP3    H176772   3.384   2.012  14.465 -1.0157  0.4145 -1.0545
18427TIP3    H276773   3.512   1.961  14.403 -0.8571  0.1139 -0.4835
18428TIP3   OH276774   2.149   2.869  64.019 -0.2373 -0.1274 -0.3461
18428TIP3    H176775   2.102   2.918  64.087  0.8006  0.4583 -0.0389
18428TIP3    H276776   2.128   2.916  63.938 -2.1599 -1.3132 -0.5936
18429TIP3   OH276777   3.191   2.664  21.281 -0.3786  0.0043 -0.0921
18429TIP3    H176778   3.230   2.747  21.255 -1.7960  0.9512  0.6302
18429TIP3    H276779   3.098   2.684  21.292 -0.5008 -1.2940  1.6326
18430TIP3   OH276780   2.378   2.275  49.573 -0.0286  0.4783 -0.0236
18430TIP3    H176781   2.403   2.207  49.635 -0.9409  0.5130  0.3974
18430TIP3    H276782   2.368   2.354  49.626 -0.0972  0.6741 -0.3240
18431TIP3   OH276783   1.467   1.085  60.749 -0.2928 -0.4565 -0.3295
18431TIP3    H176784   1.452   1.067  60.842  0.0585 -1.6652 -0.4898
18431TIP3    H276785   1.473   1.180  60.744 -2.4618 -0.2026  0.5595
18432TIP3   OH276786   3.001   2.287  66.338 -0.3048 -0.2150  0.6361
18432TIP3    H176787   3.042   2.230  66.273 -1.2480  0.1168 -0.2734
18432TIP3    H276788   3.047   2.267  66.420  0.5758 -0.9868 -0.0262
18433TIP3   OH276789   1.742   1.335  35.186  0.3398 -0.3613  0.1723
18433TIP3    H176790   1.806   1.367  35.250 -0.4645  0.9155  0.3820
18433TIP3    H276791   1.727   1.243  35.211  0.5408 -0.0789  1.4037
18434TIP3   OH276792   0.823   0.028   1.098  0.1695  0.1411 -0.0156
18434TIP3    H176793   0.743  -0.013   1.064  0.2530 -1.8412  1.9205
18434TIP3    H276794   0.791   0.088   1.166  0.2838 -1.1987  1.2786
18435TIP3   OH276795   0.640   2.075  18.470  0.1770  0.5001  0.0218
18435TIP3    H176796   0.575   2.098  18.536  1.2850  1.5483  0.8070
18435TIP3    H276797   0.609   2.117  18.390 -0.4204  0.4693  0.2298
18436TIP3   OH276798   0.716   1.561  63.332  1.1511  0.2715  0.1255
18436TIP3    H176799   0.809   1.547  63.314  1.2153 -0.6553  1.0674
18436TIP3    H276800   0.710   1.653  63.358  1.5348  0.7697 -1.4632
18437TIP3   OH276801   2.706   2.621  56.019  0.3509 -0.2456 -0.0120
18437TIP3    H176802   2.742   2.533  56.012 -0.6059 -0.7888  1.5808
18437TIP3    H276803   2.784   2.677  56.027  0.9243 -1.1564  1.0512
18438TIP3   OH276804   1.882   0.578   0.253 -0.2313  0.5337  0.2913
18438TIP3    H176805   1.896   0.538   0.340 -1.7025  1.1355  0.8368
18438TIP3    H276806   1.867   0.670   0.272 -0.9741  0.5962 -0.5612
18439TIP3   OH276807   3.343   2.071  55.714  0.1003 -0.3932 -0.0536
18439TIP3    H176808   3.373   2.084  55.804  3.1787 -2.1761 -0.6442
18439TIP3    H276809   3.406   2.120  55.661  1.2261 -3.0389 -1.3475
18440TIP3   OH276810   2.250   1.935  58.777  0.0209 -0.0596 -0.2639
18440TIP3    H176811   2.330   1.883  58.788 -0.1466 -0.3225 -0.3045
18440TIP3    H276812   2.250   1.960  58.685 -0.1120 -0.3323 -0.3385
18441TIP3   OH276813   1.881   0.712   5.929 -0.0694 -0.0330 -0.2811
18441TIP3    H176814   1.813   0.651   5.957  0.1352  0.0305  0.3632
18441TIP3    H276815   1.834   0.795   5.914 -0.1721 -0.0524 -0.0723
18442TIP3   OH276816   1.523   0.539  21.101  0.6950 -0.9423  0.1143
18442TIP3    H176817   1.606   0.505  21.067 -1.0356 -3.1608 -2.3623
18442TIP3    H276818   1.472   0.559  21.022 -1.1731  0.1839  1.5448
18443TIP3   OH276819   0.188   0.832  48.739 -0.4112  0.0377 -0.0401
18443TIP3    H176820   0.181   0.927  48.743 -0.4075  0.1332 -1.5060
18443TIP3    H276821   0.142   0.808  48.658 -1.0020 -1.2779  0.6536
18444TIP3   OH276822   2.652   0.761  59.899  0.1660  0.5921 -0.2209
18444TIP3    H176823   2.698   0.759  59.815  0.1333  0.1814 -0.2303
18444TIP3    H276824   2.569   0.805  59.879  0.1286  0.4328 -0.4201
18445TIP3   OH276825   2.650   3.235  64.855 -0.5801 -0.4440 -0.1612
18445TIP3    H176826   2.662   3.328  64.869  0.6151 -0.7032  0.6304
18445TIP3    H276827   2.724   3.209  64.800 -2.1798 -0.5112 -2.4363
18446TIP3   OH276828   1.943   1.564  52.775 -0.0517  0.3417  0.1268
18446TIP3    H176829   1.902   1.634  52.725 -0.3200  1.2205  1.5153
18446TIP3    H276830   2.035   1.588  52.780 -0.2615  1.0097  1.1970
18447TIP3   OH276831   1.385   2.441  46.555 -0.3453 -0.4949  0.2705
18447TIP3    H176832   1.353   2.515  46.503 -1.2451 -1.1754 -0.1548
18447TIP3    H276833   1.415   2.481  46.636 -2.5951  0.1765  0.8514
18448TIP3   OH276834   2.099   1.195  55.662 -0.5039  0.0345  0.2870
18448TIP3    H176835   2.106   1.112  55.615  0.5003 -0.1500  0.7267
18448TIP3    H276836   2.044   1.250  55.606  1.0860  0.0155 -1.4108
18449TIP3   OH276837   0.583   3.020  12.698  0.3774  0.6725 -0.0425
18449TIP3    H176838   0.535   3.049  12.776 -0.2789 -0.2218 -0.0997
18449TIP3    H276839   0.671   3.001  12.730 -0.0643 -0.3335  0.6326
18450TIP3   OH276840   0.842   2.638  49.991 -0.2742 -0.1085 -0.0348
18450TIP3    H176841   0.851   2.547  49.965  0.6427 -0.1124  0.2821
18450TIP3    H276842   0.929   2.664  50.021 -0.0956  1.3325 -1.6104
18451TIP3   OH276843   0.187   2.215  46.170  0.0230 -0.3540 -0.1519
18451TIP3    H176844   0.102   2.257  46.184 -0.0631 -0.9665  1.3416
18451TIP3    H276845   0.169   2.121  46.179  0.4139 -0.7129 -2.3853
18452TIP3   OH276846   2.929   3.336   4.344 -0.5388  0.0111 -0.5288
18452TIP3    H176847   2.869   3.375   4.280 -0.9015  1.0074  0.3672
18452TIP3    H276848   2.890   3.359   4.429 -0.3218 -1.6601  0.0584
18453TIP3   OH276849   1.531   0.466  65.722 -0.6599 -0.1903 -0.0701
18453TIP3    H176850   1.562   0.504  65.804  0.2418  0.1279 -0.5354
18453TIP3    H276851   1.528   0.372  65.738 -0.8786 -0.0982  0.4500
18454TIP3   OH276852   0.720   1.803  37.414 -1.0206  0.1222  0.0269
18454TIP3    H176853   0.688   1.795  37.324  0.6123 -1.4867 -0.4548
18454TIP3    H276854   0.767   1.886  37.416  0.6082 -0.7207 -1.1992
18455TIP3   OH276855   2.310   1.918  67.008 -0.0500  0.2730 -0.0911
18455TIP3    H176856   2.351   1.833  67.023 -0.0739 -0.0041 -1.4993
18455TIP3    H276857   2.236   1.920  67.069 -0.4947 -1.0386 -0.5687
18456TIP3   OH276858   3.050   2.041  14.846 -0.7264 -0.8479 -0.5334
18456TIP3    H176859   2.993   2.015  14.919 -1.2998  0.3464 -0.5462
18456TIP3    H276860   3.100   1.961  14.826  0.3870 -0.8878  2.0107
18457TIP3   OH276861   3.172   0.629  46.866  0.3660 -0.0102  0.0202
18457TIP3    H176862   3.205   0.708  46.825  0.9047 -0.4614 -0.4390
18457TIP3    H276863   3.242   0.599  46.924  0.3222 -0.3612 -0.1016
18458TIP3   OH276864   0.149   2.897  64.483 -0.2880 -0.4461 -0.0619
18458TIP3    H176865   0.112   2.885  64.395  0.5584  0.2382 -0.5332
18458TIP3    H276866   0.111   2.826  64.535 -0.0289 -1.4781 -1.2335
18459TIP3   OH276867   0.042   2.222  66.047 -0.4993 -0.7514  0.2193
18459TIP3    H176868  -0.030   2.270  66.007  0.1079 -0.7815 -0.9271
18459TIP3    H276869   0.054   2.146  65.991  0.9687 -0.3266 -0.0641
18460TIP3   OH276870   0.135   0.677  14.177 -0.6555 -0.2701 -0.1844
18460TIP3    H176871   0.156   0.649  14.088 -0.8744  0.4061 -0.4526
18460TIP3    H276872   0.217   0.716  14.209 -0.2549 -1.4589  0.3023
18461TIP3   OH276873   1.117   2.155  39.463  0.3402 -0.2482  0.7034
18461TIP3    H176874   1.082   2.164  39.374  0.7603 -1.0097  0.4529
18461TIP3    H276875   1.169   2.075  39.460 -0.0543 -0.5590  1.7700
18462TIP3   OH276876   1.073   0.594  60.895 -0.2332 -0.0783 -0.3216
18462TIP3    H176877   1.014   0.536  60.847 -0.4973 -0.2033  0.1570
18462TIP3    H276878   1.132   0.629  60.828 -1.0962  0.3610 -0.8687
18463TIP3   OH276879   1.819   1.587   4.858 -0.0870 -1.0699  0.3967
18463TIP3    H176880   1.903   1.618   4.892  0.4379 -1.9687 -0.0519
18463TIP3    H276881   1.756   1.654   4.886  0.6932 -0.6246  1.1486
18464TIP3   OH276882   2.763   2.318  10.788  0.0233 -0.0023 -0.1961
18464TIP3    H176883   2.790   2.262  10.714  1.1586  0.4629 -0.1557
18464TIP3    H276884   2.786   2.267  10.866 -2.0212 -0.8940 -0.1173
18465TIP3   OH276885   3.422   1.352   0.087 -0.1601 -0.2649  0.1227
18465TIP3    H176886   3.465   1.425   0.043  1.1258 -0.7925  0.4366
18465TIP3    H276887   3.348   1.330   0.031 -0.4540  1.1368 -0.0745
18466TIP3   OH276888   2.340   1.396   5.743  0.6006  0.7216  0.1300
18466TIP3    H176889   2.250   1.374   5.769  1.6112 -3.4776  0.8611
18466TIP3    H276890   2.341   1.381   5.648  0.7470 -0.3809  0.2929
18467TIP3   OH276891   0.416   0.800  13.241 -0.2664 -0.2527  0.5640
18467TIP3    H176892   0.489   0.746  13.209 -1.1194 -0.1154 -1.8745
18467TIP3    H276893   0.455   0.885  13.259  0.0683  0.2442 -2.0482
18468TIP3   OH276894   0.299   2.843  50.854  0.5161 -0.0342 -0.1192
18468TIP3    H176895   0.300   2.886  50.939  0.1515  2.1800 -1.1755
18468TIP3    H276896   0.369   2.884  50.804  0.0607 -0.5462 -1.2353
18469TIP3   OH276897   1.701   1.003  36.351  0.2538 -0.1243  0.0177
18469TIP3    H176898   1.721   1.043  36.266 -1.3514 -0.9349 -0.7768
18469TIP3    H276899   1.696   0.909  36.332  0.2596 -0.3533  1.1093
18470TIP3   OH276900   0.047   0.458  64.983  0.5443  0.4082  0.0303
18470TIP3    H176901   0.110   0.429  64.917  2.2302  2.0640  0.8163
18470TIP3    H276902   0.088   0.438  65.067 -0.3240  0.7964  0.5696
18471TIP3   OH276903   2.890   2.580  12.482  0.0107  0.6386 -0.0184
18471TIP3    H176904   2.935   2.495  12.483  0.4035  0.8281  1.2772
18471TIP3    H276905   2.807   2.564  12.527  0.2413  1.0087  0.5498
18472TIP3   OH276906   2.654   1.682  66.040  0.0191 -0.5073  0.0100
18472TIP3    H176907   2.708   1.614  66.000  1.9362  0.6082  0.5700
18472TIP3    H276908   2.698   1.700  66.124  0.3139  2.2630 -0.6589
18473TIP3   OH276909   0.312   3.065  18.468 -0.2331  0.4864 -0.0176
18473TIP3    H176910   0.395   3.024  18.494  1.6973  2.1953 -2.9001
18473TIP3    H276911   0.299   3.135  18.531  0.9099  0.6082  0.1124
18474TIP3   OH276912   0.077   1.972  19.530  0.5088  0.5080  0.6246
18474TIP3    H176913   0.160   2.018  19.540  1.2822 -0.3485 -1.2811
18474TIP3    H276914   0.102   1.885  19.497 -1.1822  0.7004 -1.3642
18475TIP3   OH276915   3.045   0.080   0.633  0.0964  0.2681 -0.2234
18475TIP3    H176916   3.055  -0.006   0.673  1.4591 -0.3273 -1.7369
18475TIP3    H276917   3.098   0.138   0.689 -0.6679  0.1053  0.6847
18476TIP3   OH276918   2.011   2.005  55.861  0.2461  0.1783  0.5201
18476TIP3    H176919   1.998   2.098  55.843  0.5900  0.1889  0.2999
18476TIP3    H276920   2.106   1.993  55.857  0.2169 -0.1468  0.7304
18477TIP3   OH276921   2.587   0.817  10.521 -0.2858 -0.6285 -0.7322
18477TIP3    H176922   2.578   0.722  10.529  0.1214 -0.5719  0.6819
18477TIP3    H276923   2.497   0.849  10.524 -0.3926 -0.7299  3.4002
18478TIP3   OH276924   3.306   1.248  21.639 -0.2383  0.4473 -0.0315
18478TIP3    H176925   3.222   1.277  21.605  0.4989  0.3609 -2.0750
18478TIP3    H276926   3.371   1.287  21.580  1.1780  0.6195  1.5645
18479TIP3   OH276927   3.088   0.575   5.272 -0.2166 -0.0269 -0.3745
18479TIP3    H176928   3.165   0.526   5.300 -2.0541 -2.1864  1.2764
18479TIP3    H276929   3.023   0.508   5.251 -1.3051  1.6786 -3.0392
18480TIP3   OH276930   1.557   2.300   6.044  0.4081  0.3782  0.0340
18480TIP3    H176931   1.549   2.394   6.059  2.0523  0.6376 -0.5804
18480TIP3    H276932   1.623   2.270   6.107  0.5978 -0.1818 -0.4149
18481TIP3   OH276933   1.543   2.572  63.033  0.0141  0.4583  0.0368
18481TIP3    H176934   1.467   2.525  63.068  1.2391 -0.9114  1.0010
18481TIP3    H276935   1.531   2.569  62.938 -1.0906  0.1836  0.1732
18482TIP3   OH276936   1.408   2.771  15.084 -0.3112  0.5254  0.4271
18482TIP3    H176937   1.484   2.827  15.068 -1.9330  2.6556 -0.3903
18482TIP3    H276938   1.365   2.811  15.160 -1.3508  0.2160  0.0145
18483TIP3   OH276939   0.575   3.440  56.233  0.1659 -0.0202  0.4960
18483TIP3    H176940   0.627   3.518  56.212  0.4548 -0.0683  1.0082
18483TIP3    H276941   0.590   3.380  56.160 -0.5521  0.6361 -0.2110
18484TIP3   OH276942   1.723   3.421  26.637 -0.6557  0.2646 -0.1627
18484TIP3    H176943   1.654   3.359  26.659 -0.8313  0.5639  0.1348
18484TIP3    H276944   1.732   3.414  26.542 -0.8996  0.0213 -0.1690
18485TIP3   OH276945   3.426   2.048  50.492  0.0436  0.7057 -0.4945
18485TIP3    H176946   3.438   1.958  50.521 -1.9599  0.2047 -1.1009
18485TIP3    H276947   3.504   2.094  50.525 -0.0437 -0.7008  1.9540
18486TIP3   OH276948   3.240   3.368  49.085 -0.1912 -0.0468  0.1775
18486TIP3    H176949   3.293   3.372  49.005 -0.0969 -0.3109  0.2265
18486TIP3    H276950   3.158   3.326  49.057  0.6275 -2.0675  0.6359
18487TIP3   OH276951   2.408   3.270  17.076 -0.4451  0.2801  0.9118
18487TIP3    H176952   2.417   3.310  17.162 -0.3996 -1.5693  1.8271
18487TIP3    H276953   2.323   3.225  17.079 -0.6736  0.5987 -0.1933
18488TIP3   OH276954   2.964   2.806  63.354  0.2297  0.1609 -0.3919
18488TIP3    H176955   2.885   2.755  63.333 -0.0130  0.8584 -1.2560
18488TIP3    H276956   2.949   2.837  63.443  0.0078 -0.5960 -0.1608
18489TIP3   OH276957   2.668   1.511  62.463  0.0798  0.2861  0.0957
18489TIP3    H176958   2.732   1.534  62.531 -0.0329  0.3439  0.1828
18489TIP3    H276959   2.613   1.588  62.453  1.1291  0.8960 -1.2691
18490TIP3   OH276960   0.145   1.187   3.384  0.0424  0.3435  0.1735
18490TIP3    H176961   0.132   1.122   3.314 -1.1698  0.2879  0.4223
18490TIP3    H276962   0.237   1.178   3.408 -0.0830 -1.2433  0.1568
18491TIP3   OH276963   2.097   0.745  10.839  0.0467 -0.0759 -0.6888
18491TIP3    H176964   2.064   0.834  10.842 -0.6588 -0.3169  2.7023
18491TIP3    H276965   2.183   0.752  10.797 -0.4823  1.9653 -1.5418
18492TIP3   OH276966   0.062   1.863  49.798 -0.1143 -0.1800  0.1174
18492TIP3    H176967   0.048   1.781  49.750 -0.8462 -0.1761  0.2999
18492TIP3    H276968  -0.013   1.917  49.773  0.1366  0.2665  0.3420
18493TIP3   OH276969   1.986   2.522  44.927 -0.2554 -0.2247  0.6062
18493TIP3    H176970   2.018   2.552  44.842 -0.1761 -1.3582  0.2241
18493TIP3    H276971   1.894   2.548  44.928 -0.0963  0.3839  0.4680
18494TIP3   OH276972   1.114   1.539  20.521 -0.4761  0.3430  0.2060
18494TIP3    H176973   1.135   1.480  20.593  0.7820 -0.7470 -1.0177
18494TIP3    H276974   1.106   1.625  20.563  1.8793  0.0378  1.4440
18495TIP3   OH276975   2.291   1.560  18.942  0.9583 -0.7908 -0.0765
18495TIP3    H176976   2.256   1.623  18.879  0.0309 -0.5566  0.6465
18495TIP3    H276977   2.351   1.506  18.891 -0.2339 -1.0062 -1.3068
18496TIP3   OH276978   2.373   2.714  21.808  0.2922  0.0017  0.2272
18496TIP3    H176979   2.419   2.782  21.855 -0.4028  1.8278 -1.5858
18496TIP3    H276980   2.289   2.706  21.853  0.9087 -0.6903  1.2855
18497TIP3   OH276981   1.898   0.533  50.830 -0.6237 -0.0580 -0.0731
18497TIP3    H176982   1.861   0.472  50.766 -0.0330 -0.9494  0.4196
18497TIP3    H276983   1.918   0.479  50.906  0.7022  0.5829  0.0572
18498TIP3   OH276984   1.783   3.405   1.501  0.0470  0.1202  0.1577
18498TIP3    H176985   1.851   3.445   1.446  1.1512 -1.9094 -0.0732
18498TIP3    H276986   1.717   3.375   1.440  1.0793 -1.7669 -0.1270
18499TIP3   OH276987   1.194   3.020  59.695 -0.2947  0.0653 -0.0249
18499TIP3    H176988   1.266   2.979  59.648 -0.9088  0.3979 -1.3047
18499TIP3    H276989   1.126   2.953  59.699 -0.7015  0.4224 -0.7191
18500TIP3   OH276990   1.738   1.882  48.141 -0.0759  0.1927 -0.0051
18500TIP3    H176991   1.717   1.789  48.149  0.4312 -0.0879 -1.6235
18500TIP3    H276992   1.754   1.911  48.231  2.0719 -1.8486  0.3507
18501TIP3   OH276993   3.421   1.293  19.148 -0.3446  0.1597 -0.2821
18501TIP3    H176994   3.495   1.328  19.197 -1.3594  0.7261  0.9200
18501TIP3    H276995   3.452   1.286  19.058  0.5822  2.2029 -0.1777
18502TIP3   OH276996   1.025   3.226  50.719 -0.0381  0.0532  0.0318
18502TIP3    H176997   1.022   3.250  50.812  1.1537  0.7662 -0.0904
18502TIP3    H276998   0.965   3.287  50.677  0.5772  0.7518  0.1464
18503TIP3   OH276999   1.113   3.003  13.644 -0.1749  0.1061 -0.2265
18503TIP3    H177000   1.038   2.974  13.592 -1.5357 -0.9909  2.1521
18503TIP3    H277001   1.075   3.028  13.729  1.8283  2.4034  0.1133
18504TIP3   OH277002   0.152   1.282  56.661  0.1263 -0.7112  0.3228
18504TIP3    H177003   0.097   1.340  56.608 -0.4255 -3.2417 -2.1252
18504TIP3    H277004   0.102   1.267  56.741 -0.9402  0.0995 -0.1767
18505TIP3   OH277005   2.871   1.294  31.669 -0.2256 -0.1067 -0.5147
18505TIP3    H177006   2.840   1.383  31.684 -0.1640 -0.4179  1.6666
18505TIP3    H277007   2.888   1.291  31.574 -3.2657  1.1772 -1.2263
18506TIP3   OH277008   1.158   2.698  17.673  0.3836  0.3628  0.3139
18506TIP3    H177009   1.229   2.655  17.625 -0.9867 -0.2504 -1.2353
18506TIP3    H277010   1.120   2.628  17.726 -0.8438 -0.0265 -1.0214
18507TIP3   OH277011   3.413   0.657  57.478  0.1158 -0.2203 -0.1354
18507TIP3    H177012   3.365   0.579  57.450 -2.9240  0.7300  2.0264
18507TIP3    H277013   3.417   0.712  57.400 -2.4833 -0.3210 -0.4212
18508TIP3   OH277014   0.413   1.138   4.076  0.1070  0.4140 -0.0911
18508TIP3    H177015   0.391   1.200   4.145 -0.4189  1.3118 -1.0338
18508TIP3    H277016   0.459   1.190   4.010  0.3942 -0.3736 -0.5336
18509TIP3   OH277017   1.738   2.355   3.909 -0.0276  0.2340 -0.8144
18509TIP3    H177018   1.776   2.443   3.908 -2.6473  1.4808  0.5666
18509TIP3    H277019   1.657   2.362   3.859 -0.6079 -1.2280 -0.1511
18510TIP3   OH277020   1.411   2.906  65.436 -0.0091 -0.6020  0.2949
18510TIP3    H177021   1.343   2.840  65.448  1.2515 -1.9582  0.1573
18510TIP3    H277022   1.461   2.876  65.361  0.7923  0.3420  0.4397
18511TIP3   OH277023   2.205   3.136  17.149  0.1798  0.0562  0.1438
18511TIP3    H177024   2.246   3.116  17.233  1.0197  0.8223 -0.0678
18511TIP3    H277025   2.193   3.051  17.107  0.3459 -0.2790  0.7605
18512TIP3   OH277026   3.149   1.871   0.668  0.1128 -0.0448 -0.1738
18512TIP3    H177027   3.085   1.829   0.611 -0.8634  1.6502 -0.3767
18512TIP3    H277028   3.097   1.925   0.727  1.3439  3.5340 -2.0732
18513TIP3   OH277029   0.624   0.132  35.104  0.2540  0.3137  0.5353
18513TIP3    H177030   0.574   0.147  35.184  0.6563 -0.7319  0.9927
18513TIP3    H277031   0.610   0.040  35.084  0.5444  0.4495 -0.3427
18514TIP3   OH277032   1.408   2.423  59.165 -0.3360 -0.1930  0.3027
18514TIP3    H177033   1.315   2.416  59.147 -0.2116  0.6925 -0.8279
18514TIP3    H277034   1.449   2.363  59.102 -0.1063 -0.0383  0.3001
18515TIP3   OH277035   1.524   2.541  56.184 -0.6083  0.2312 -0.3649
18515TIP3    H177036   1.558   2.625  56.154  1.6872  0.1279  1.6683
18515TIP3    H277037   1.432   2.558  56.206 -0.2453  2.1294 -0.1878
18516TIP3   OH277038   3.135   3.246  52.265  0.0693 -0.3277 -0.3235
18516TIP3    H177039   3.045   3.264  52.292  0.2102  1.0433 -0.6479
18516TIP3    H277040   3.158   3.164  52.308 -1.0262 -0.2176  0.5120
18517TIP3   OH277041   3.352   2.509   7.277 -0.4658  0.6525  0.5409
18517TIP3    H177042   3.365   2.603   7.275  0.6779  0.4964 -0.7853
18517TIP3    H277043   3.361   2.485   7.369 -1.3972  1.9006  0.9744
18518TIP3   OH277044   1.254   2.193  49.796 -0.0543 -0.3903 -0.0197
18518TIP3    H177045   1.296   2.278  49.803 -0.9947  0.0816  0.1102
18518TIP3    H277046   1.193   2.190  49.870 -0.8927 -0.6614 -0.7015
18519TIP3   OH277047   1.867   3.448  15.265  0.3224  0.2574  0.5525
18519TIP3    H177048   1.831   3.534  15.243 -0.9228 -0.6546 -1.1898
18519TIP3    H277049   1.795   3.401  15.306  0.5833 -0.4333  0.2269
18520TIP3   OH277050   2.999   3.015   6.349  0.3955  0.5046 -0.4050
18520TIP3    H177051   3.020   3.100   6.311  0.1195  1.4059  1.3438
18520TIP3    H277052   3.058   3.007   6.424 -0.6947 -0.0766  0.4291
18521TIP3   OH277053   1.297   2.882  60.926  0.5602 -0.1832  0.4161
18521TIP3    H177054   1.206   2.873  60.957  0.1215  1.0784 -0.4112
18521TIP3    H277055   1.346   2.816  60.976 -0.6320 -0.2196  1.6066
18522TIP3   OH277056   1.742   2.626  44.572  0.0301 -0.6195  0.2762
18522TIP3    H177057   1.821   2.679  44.564  1.0249 -1.6183  2.6249
18522TIP3    H277058   1.674   2.689  44.596  1.2306 -0.2447  3.2248
18523TIP3   OH277059   0.898   0.778  48.564  0.2438  0.3064 -0.1415
18523TIP3    H177060   0.810   0.775  48.600  0.6817 -1.1522  0.8987
18523TIP3    H277061   0.954   0.745  48.635  1.6592  1.4239 -0.6922
18524TIP3   OH277062   2.474   1.820  67.276 -0.2038  0.2374 -0.2497
18524TIP3    H177063   2.503   1.766  67.350  0.1898 -0.0311 -0.5952
18524TIP3    H277064   2.389   1.853  67.303 -1.2322 -1.8783 -0.6695
18525TIP3   OH277065   1.839   2.600   3.778  0.2435 -0.3293 -0.0761
18525TIP3    H177066   1.922   2.567   3.812  0.1492 -1.2616 -0.7170
18525TIP3    H277067   1.863   2.669   3.716  0.4243  1.2496  1.6677
18526TIP3   OH277068   2.159   1.743  13.987  0.3392 -0.4244  0.2760
18526TIP3    H177069   2.073   1.766  14.020 -0.6230 -0.2065 -2.1510
18526TIP3    H277070   2.188   1.670  14.041 -1.0409 -0.0254  1.5979
18527TIP3   OH277071   1.870   0.850  59.595 -0.5775  0.7267 -0.3220
18527TIP3    H177072   1.915   0.817  59.517  2.2920  0.3192  1.3766
18527TIP3    H277073   1.897   0.941  59.602  1.8393 -0.0413  1.8169
18528TIP3   OH277074   1.705   2.601  43.512  0.5506  0.5711  0.3406
18528TIP3    H177075   1.709   2.517  43.467 -1.3866 -0.1514  1.4308
18528TIP3    H277076   1.666   2.661  43.448  0.5917  0.2944  0.0523
18529TIP3   OH277077   2.544   0.082  56.982  0.0456  0.1447  0.0143
18529TIP3    H177078   2.456   0.045  56.988 -0.7066  1.7718 -0.4037
18529TIP3    H277079   2.533   0.174  57.006  2.0175 -0.0695  2.1446
18530TIP3   OH277080   2.726   1.147  11.438 -0.0661 -0.3294 -0.3250
18530TIP3    H177081   2.660   1.213  11.458 -1.6318 -1.9512  0.1292
18530TIP3    H277082   2.696   1.068  11.484  2.6054 -0.9533  0.5125
18531TIP3   OH277083   0.087   0.139  22.259 -0.2755  0.1119  0.0105
18531TIP3    H177084   0.115   0.230  22.253 -0.7589  0.1908 -1.2751
18531TIP3    H277085   0.141   0.093  22.194 -2.0661  0.0178 -1.4888
18532TIP3   OH277086   0.034   2.577  57.302  0.2902  0.5374 -0.7603
18532TIP3    H177087  -0.026   2.580  57.377 -0.6551  0.5115 -1.4830
18532TIP3    H277088   0.079   2.661  57.303  1.4474 -0.0590  0.7344
18533TIP3   OH277089   1.143   1.376  58.483  0.1269 -0.5257  0.3509
18533TIP3    H177090   1.233   1.406  58.495  0.0736  0.5253 -1.4752
18533TIP3    H277091   1.094   1.456  58.465 -0.8382 -1.2756 -0.4262
18534TIP3   OH277092   1.042   1.542  38.474 -0.5237  0.5609  0.4183
18534TIP3    H177093   0.949   1.527  38.489 -0.4535 -0.3175  0.0537
18534TIP3    H277094   1.057   1.633  38.501 -1.5820  0.8711  0.0103
18535TIP3   OH277095   1.367   0.213  54.918 -0.3544 -0.5556 -0.3111
18535TIP3    H177096   1.435   0.225  54.985  0.7326  1.5352 -1.6780
18535TIP3    H277097   1.287   0.200  54.968  0.5756 -0.0948  1.3901
18536TIP3   OH277098   1.919   3.253  48.010  0.2204  0.3559  0.3963
18536TIP3    H177099   1.919   3.259  47.914  0.3361  0.6138  0.4093
18536TIP3    H277100   1.826   3.241  48.033  0.4286 -2.2410  0.1228
18537TIP3   OH277101   0.078   0.309  41.780  0.0930  0.3374  0.1219
18537TIP3    H177102   0.022   0.358  41.720 -0.0157 -0.8232 -0.7452
18537TIP3    H277103   0.124   0.376  41.830  0.7849  1.3486 -1.7856
18538TIP3   OH277104   0.557   1.201  21.226 -0.4155  0.2858 -0.2687
18538TIP3    H177105   0.594   1.290  21.225  1.0212 -0.2782 -0.4699
18538TIP3    H277106   0.509   1.196  21.309 -0.1260  1.1079 -0.0422
18539TIP3   OH277107   1.446   1.511  50.126  0.1933 -0.2004  0.2071
18539TIP3    H177108   1.445   1.457  50.206 -0.1202 -0.4108  0.0591
18539TIP3    H277109   1.539   1.531  50.113  0.0584  2.7019  2.5380
18540TIP3   OH277110   1.560   2.896  54.238 -0.4168  0.2918  0.7546
18540TIP3    H177111   1.523   2.941  54.314  0.0022  0.3723  0.9113
18540TIP3    H277112   1.538   2.804  54.252  0.8272  0.1125  1.6568
18541TIP3   OH277113   2.153   3.163  49.974  0.3092  0.0028  0.6850
18541TIP3    H177114   2.223   3.221  50.005  0.0448  0.2746  0.7860
18541TIP3    H277115   2.105   3.140  50.053  0.2261 -0.0991  0.6036
18542TIP3   OH277116   0.516   2.019  15.808  0.4440  0.4564 -0.0767
18542TIP3    H177117   0.459   1.946  15.833 -0.1799  1.1710  0.6545
18542TIP3    H277118   0.458   2.079  15.761  1.2429 -0.1041 -1.8800
18543TIP3   OH277119   0.265   2.935  10.933 -0.4961 -0.0609 -0.2082
18543TIP3    H177120   0.271   2.896  11.021 -0.8547 -1.1445 -0.6414
18543TIP3    H277121   0.351   2.916  10.894 -0.2655  0.5975 -0.0247
18544TIP3   OH277122   1.064   0.428  34.547  0.5158  0.3982  0.4180
18544TIP3    H177123   0.992   0.378  34.585  0.2175  1.1953  0.9253
18544TIP3    H277124   1.066   0.402  34.455  1.0105 -1.2898  0.8823
18545TIP3   OH277125   1.916   1.558  21.015 -0.2362 -0.1470  0.5206
18545TIP3    H177126   1.959   1.530  21.096  0.4076 -0.7317 -0.0138
18545TIP3    H277127   1.900   1.652  21.028  2.5760  0.4737  0.1616
18546TIP3   OH277128   3.451   2.381   8.628 -0.2009  0.0789 -0.0702
18546TIP3    H177129   3.439   2.442   8.702  0.5919 -0.2730  0.3655
18546TIP3    H277130   3.389   2.311   8.645  0.4020 -0.3069  0.6088
18547TIP3   OH277131   2.608   0.576  45.770  0.4051  0.4344 -0.5327
18547TIP3    H177132   2.696   0.608  45.790  0.0556  0.0489  1.8654
18547TIP3    H277133   2.622   0.507  45.705  2.0675 -0.6932  0.9384
18548TIP3   OH277134   1.664   0.812  39.119 -0.3127 -0.0442  0.3204
18548TIP3    H177135   1.654   0.899  39.079  0.2558 -0.5835 -1.0783
18548TIP3    H277136   1.657   0.751  39.045  1.9199 -1.0315  0.8281
18549TIP3   OH277137   1.892   2.803  10.321  0.5219  0.7361 -0.2174
18549TIP3    H177138   1.884   2.891  10.356 -0.4156  0.9343 -0.8765
18549TIP3    H277139   1.802   2.769  10.322  1.0336 -0.7165  1.2863
18550TIP3   OH277140   3.067   0.173   2.402  0.1879  0.5203 -0.0966
18550TIP3    H177141   2.989   0.227   2.412 -0.1858  0.2973 -1.6312
18550TIP3    H277142   3.121   0.194   2.479 -0.4727  2.1672 -0.0569
18551TIP3   OH277143   2.498   0.528  64.528  0.2744  0.6411 -0.3209
18551TIP3    H177144   2.454   0.499  64.608  1.5423 -0.2489  0.1021
18551TIP3    H277145   2.463   0.615  64.511 -0.3668  0.6549  0.9451
18552TIP3   OH277146   0.442   0.094  44.564 -0.1660 -0.4521 -0.0613
18552TIP3    H177147   0.347   0.093  44.576 -0.0737  1.5145  1.1635
18552TIP3    H277148   0.455   0.150  44.487  0.0257 -0.2139  0.1450
18553TIP3   OH277149   2.924   0.464   1.556  0.5739 -0.0227  0.1576
18553TIP3    H177150   2.835   0.489   1.577  0.6185  0.7917 -0.5695
18553TIP3    H277151   2.973   0.546   1.557  1.2232 -0.4016  0.1045
18554TIP3   OH277152   0.240   0.630  48.378  0.1809  0.2434  0.3804
18554TIP3    H177153   0.206   0.713  48.344  0.2235  0.3416  0.5760
18554TIP3    H277154   0.317   0.654  48.429  0.0748  0.1032  0.6069
18555TIP3   OH277155   0.659   0.662  15.746 -0.3600 -0.1691  0.2130
18555TIP3    H177156   0.652   0.567  15.736  2.7306 -0.4708 -0.0191
18555TIP3    H277157   0.660   0.676  15.841  1.6122 -0.6969  0.3142
18556TIP3   OH277158   1.850   3.109  53.559 -0.1726 -0.3539  0.1717
18556TIP3    H177159   1.942   3.083  53.554 -0.3331 -0.8590 -0.2945
18556TIP3    H277160   1.843   3.186  53.502  0.2381  0.5463  1.3023
18557TIP3   OH277161   0.536   1.531  11.878 -0.4875  0.1304  0.0875
18557TIP3    H177162   0.559   1.493  11.963  2.1049 -0.3390 -0.7317
18557TIP3    H277163   0.545   1.625  11.890 -0.1670  0.0674  0.3706
18558TIP3   OH277164   1.440   0.068  19.986  0.3389  0.0502  0.2980
18558TIP3    H177165   1.383   0.138  20.018  1.0874  1.0881 -0.5815
18558TIP3    H277166   1.410   0.050  19.897 -0.0295 -0.9669  0.6116
18559TIP3   OH277167   1.088   0.632   1.191  0.2413 -0.3198 -0.4743
18559TIP3    H177168   1.019   0.588   1.239 -1.4198  0.3799 -2.1084
18559TIP3    H277169   1.094   0.719   1.231  0.6081 -0.5811  0.0480
18560TIP3   OH277170   3.415   2.136  43.450 -0.0777  0.5561 -0.1443
18560TIP3    H177171   3.368   2.057  43.422  1.4033  0.0683 -1.3856
18560TIP3    H277172   3.435   2.183  43.369  0.8210  1.1721  0.4095
18561TIP3   OH277173   1.815   0.133   0.975  0.7217 -0.1372  0.0239
18561TIP3    H177174   1.900   0.138   0.931 -0.4647  1.6609 -2.2551
18561TIP3    H277175   1.759   0.086   0.914 -0.2141 -0.3295  1.0057
18562TIP3   OH277176   0.442   0.221  34.058  0.2629 -0.1504 -0.4748
18562TIP3    H177177   0.506   0.156  34.028  1.6538 -0.0707  2.0327
18562TIP3    H277178   0.361   0.171  34.068  0.6332 -0.8946 -1.0557
18563TIP3   OH277179   1.370   0.146  36.244 -0.4416 -0.0811 -0.2263
18563TIP3    H177180   1.369   0.220  36.184  1.6209  1.1579  1.1354
18563TIP3    H277181   1.439   0.167  36.306 -2.4275 -1.2645  2.6151
18564TIP3   OH277182   0.644   0.667  46.588  0.2706  0.2505  0.0100
18564TIP3    H177183   0.651   0.760  46.571  0.9615  0.4352  1.1767
18564TIP3    H277184   0.700   0.625  46.523  0.7258  0.7257  0.0903
18565TIP3   OH277185   2.185   1.688  54.930  0.5570  0.4531 -0.0928
18565TIP3    H177186   2.229   1.629  54.868  0.0509 -0.6188  0.5414
18565TIP3    H277187   2.247   1.697  55.002 -0.5037 -1.7405  1.2030
18566TIP3   OH277188   0.563   3.276  47.117  0.3862  0.3000 -0.1403
18566TIP3    H177189   0.635   3.329  47.080  0.0434  2.3000  1.8597
18566TIP3    H277190   0.485   3.330  47.104 -0.6289 -1.3556 -1.2468
18567TIP3   OH277191   2.584   2.791   2.416  0.5051  0.0306  0.3704
18567TIP3    H177192   2.488   2.792   2.411  0.5244 -0.2797 -0.1827
18567TIP3    H277193   2.603   2.777   2.508  0.0258  0.7884  0.5974
18568TIP3   OH277194   2.689   2.819   3.800 -0.2546  0.6031  0.7048
18568TIP3    H177195   2.663   2.729   3.819 -0.3468  0.4735 -0.0310
18568TIP3    H277196   2.698   2.860   3.887 -1.9511  0.3808  1.0217
18569TIP3   OH277197   0.940   3.244  16.446  0.7939  0.0169 -0.6086
18569TIP3    H177198   1.009   3.211  16.504  2.8987  0.5409 -2.6149
18569TIP3    H277199   0.926   3.334  16.475 -1.3545 -0.9509  1.7154
18570TIP3   OH277200   1.476   2.074  63.621 -0.7296 -0.3257 -0.2471
18570TIP3    H177201   1.466   2.142  63.554 -0.0850 -2.0611 -2.2283
18570TIP3    H277202   1.570   2.056  63.623 -0.9945 -1.9451 -0.6767
18571TIP3   OH277203   2.797   0.728  66.576 -0.2989 -0.1750  0.0692
18571TIP3    H177204   2.740   0.803  66.564 -1.5964 -1.4038 -2.0154
18571TIP3    H277205   2.760   0.680  66.650  0.2645  0.9373  1.1078
18572TIP3   OH277206   2.124   2.899  41.943  0.1249  0.2636 -0.5638
18572TIP3    H177207   2.062   2.827  41.944  1.5332 -1.0414 -1.5629
18572TIP3    H277208   2.181   2.884  42.019 -1.7507  2.4438  1.3984
18573TIP3   OH277209   2.140   0.348  10.945  0.1630  0.0458 -0.0728
18573TIP3    H177210   2.209   0.338  11.011  0.0126  1.8376  0.4199
18573TIP3    H277211   2.182   0.324  10.863  0.5439 -1.6066  0.5663
18574TIP3   OH277212   0.291   0.343  59.021 -0.1338  0.3550 -0.3431
18574TIP3    H177213   0.300   0.299  59.106  0.3146  0.9493 -0.0703
18574TIP3    H277214   0.340   0.425  59.032 -0.9258  0.9044 -0.8454
18575TIP3   OH277215   1.116   2.073  67.494 -0.0004 -0.6050  0.3988
18575TIP3    H177216   1.119   2.153  67.547  0.6496 -0.1795 -0.2646
18575TIP3    H277217   1.081   2.007  67.554 -1.0564  0.2797  0.8188
18576TIP3   OH277218   2.454   1.107  62.856 -0.0694 -0.2388 -0.1595
18576TIP3    H177219   2.370   1.075  62.824 -0.7084 -1.4576  2.5452
18576TIP3    H277220   2.517   1.040  62.830 -0.1631 -0.1099 -0.7543
18577TIP3   OH277221   3.375   1.580  18.805  0.3971 -0.0920 -0.1988
18577TIP3    H177222   3.288   1.549  18.830  0.6810  0.5004  1.7192
18577TIP3    H277223   3.387   1.548  18.716 -1.6461 -0.4516 -0.3979
18578TIP3   OH277224   0.042   0.911  12.272  0.0424  0.1761 -0.0789
18578TIP3    H177225  -0.040   0.898  12.320 -1.6024  1.9450 -2.2183
18578TIP3    H277226   0.051   0.832  12.219  0.4362 -0.5918  1.1011
18579TIP3   OH277227   0.213   3.212  42.304 -0.2535 -0.0960  0.2534
18579TIP3    H177228   0.171   3.288  42.264  0.2779 -0.5930 -1.3472
18579TIP3    H277229   0.233   3.155  42.230  0.2339 -1.3584  1.3237
18580TIP3   OH277230   1.359   1.211  48.774  0.1409  0.2690 -0.0239
18580TIP3    H177231   1.291   1.200  48.707  1.0044 -1.5427 -0.6853
18580TIP3    H277232   1.434   1.248  48.727  0.7392 -0.9726 -0.0855
18581TIP3   OH277233   1.800   2.446  63.101 -0.3462  0.2666  0.3362
18581TIP3    H177234   1.718   2.492  63.086  0.1383  0.8151 -0.7771
18581TIP3    H277235   1.850   2.504  63.159 -0.3283  0.4459  0.1431
18582TIP3   OH277236   0.501   2.978   5.637 -0.5953  0.2440  0.2484
18582TIP3    H177237   0.447   2.962   5.715  0.7448 -0.0853  1.1408
18582TIP3    H277238   0.526   3.070   5.644  1.3051 -0.3001  1.4290
18583TIP3   OH277239   0.227   0.630  54.113 -1.2143  0.2585 -0.2753
18583TIP3    H177240   0.252   0.551  54.064  0.5669 -0.1750  1.2204
18583TIP3    H277241   0.303   0.649  54.168 -2.5697  1.5743  1.2506
18584TIP3   OH277242   1.952   2.612  58.985  0.1726 -0.1973 -0.3926
18584TIP3    H177243   1.956   2.595  59.079 -0.8055  2.8422  0.3076
18584TIP3    H277244   2.027   2.670  58.968  0.5975 -1.0626 -1.6047
18585TIP3   OH277245   0.656   0.853  63.051 -0.3306 -0.6842 -0.1505
18585TIP3    H177246   0.598   0.855  63.127  0.4419 -2.8978  0.5843
18585TIP3    H277247   0.621   0.919  62.991 -2.4268 -0.6114  1.0854
18586TIP3   OH277248   0.505   0.540  45.200 -0.0591 -0.2551  0.0517
18586TIP3    H177249   0.585   0.590  45.184  0.0478 -0.7583 -1.0737
18586TIP3    H277250   0.531   0.449  45.188 -1.0490 -0.3711 -1.6089
18587TIP3   OH277251   0.707   1.082   3.711 -0.4860  0.2508 -0.0952
18587TIP3    H177252   0.737   1.147   3.648  0.0600  0.1324  0.0297
18587TIP3    H277253   0.736   1.116   3.796  1.2657 -0.8967 -0.1596
18588TIP3   OH277254   1.595   1.492   9.859 -0.1846 -0.3852 -0.2606
18588TIP3    H177255   1.601   1.431   9.786  0.1024 -0.8428  0.1405
18588TIP3    H277256   1.663   1.463   9.920 -0.9409 -0.4931  0.5402
18589TIP3   OH277257   1.547   2.004  18.790 -0.1912  0.5511  0.5883
18589TIP3    H177258   1.588   2.091  18.785 -1.0460  0.9092 -1.3948
18589TIP3    H277259   1.524   1.984  18.699 -0.8022 -1.3884  1.1297
18590TIP3   OH277260   0.893   1.879   6.026 -0.3726  0.1276 -0.7380
18590TIP3    H177261   0.797   1.885   6.021 -0.2815  0.7742 -3.0663
18590TIP3    H277262   0.922   1.970   6.030  0.1574 -0.0306 -0.9513
18591TIP3   OH277263   0.188   2.958  17.875 -0.4038 -0.4636 -0.0838
18591TIP3    H177264   0.195   3.043  17.918 -1.2746  2.0973 -4.3546
18591TIP3    H277265   0.243   2.900  17.927  0.1818  2.6247  3.1343
18592TIP3   OH277266   1.048   1.238  57.694  0.1063  0.1519 -0.3809
18592TIP3    H177267   1.042   1.181  57.617 -0.7351  0.5515 -0.6269
18592TIP3    H277268   1.026   1.325  57.660  0.7490  0.5111  0.1171
18593TIP3   OH277269   0.640   1.003  17.242 -0.0238  0.7013 -0.5894
18593TIP3    H177270   0.679   0.974  17.160  1.7932 -0.0216  0.4730
18593TIP3    H277271   0.690   1.081  17.266 -0.6233  0.9786 -0.2073
18594TIP3   OH277272   1.251   1.594   4.322 -0.4459  0.1655 -0.2538
18594TIP3    H177273   1.218   1.646   4.395 -1.1189 -0.5652 -0.0258
18594TIP3    H277274   1.179   1.593   4.259  0.3090  1.2188 -1.1754
18595TIP3   OH277275   2.134   2.628  58.467  0.0699  0.1925  0.2040
18595TIP3    H177276   2.050   2.671  58.484  0.0687  0.6118 -0.7658
18595TIP3    H277277   2.184   2.641  58.548 -0.6161  0.3639  0.6133
18596TIP3   OH277278   2.146   0.681  18.855  0.0330  0.4810  0.0083
18596TIP3    H177279   2.158   0.640  18.769  0.3965  1.0560 -0.2214
18596TIP3    H277280   2.053   0.668  18.875 -0.1124  0.5782 -0.5923
18597TIP3   OH277281   0.247   3.314  67.366  0.1738  0.2479  0.5133
18597TIP3    H177282   0.214   3.228  67.392 -0.3692  0.8669  1.9974
18597TIP3    H277283   0.191   3.376  67.412  1.0288  1.3915  0.0644
18598TIP3   OH277284   2.830   2.663  27.183 -0.0339 -0.2190 -0.3566
18598TIP3    H177285   2.921   2.652  27.209  0.1740  0.5020 -0.7399
18598TIP3    H277286   2.834   2.719  27.105 -0.7503 -0.8720 -0.8733
18599TIP3   OH277287   1.094   2.214  46.876  0.5441  0.1044  0.0342
18599TIP3    H177288   1.137   2.251  46.799  1.0183  0.2577  0.3651
18599TIP3    H277289   1.166   2.180  46.928  0.2479  0.2302  0.5284
18600TIP3   OH277290   2.344   3.170  57.411  0.5039 -0.1202  0.4133
18600TIP3    H177291   2.400   3.241  57.440 -0.0665  0.3463  0.4088
18600TIP3    H277292   2.397   3.121  57.348  1.4025 -0.5602  1.4876
18601TIP3   OH277293   0.891   0.050  16.991 -0.8135 -0.3824 -0.1979
18601TIP3    H177294   0.872   0.059  16.897 -1.9092 -0.9608 -0.0515
18601TIP3    H277295   0.812   0.083  17.034 -0.5680 -0.7084  0.5047
18602TIP3   OH277296   3.098   2.482  52.933  0.3617 -0.0450  0.2521
18602TIP3    H177297   3.145   2.520  52.859  0.1690 -1.1405 -0.4722
18602TIP3    H277298   3.156   2.413  52.966 -0.3020 -0.7687 -0.0442
18603TIP3   OH277299   2.759   3.211  47.024 -0.4608  0.2874 -0.5897
18603TIP3    H177300   2.707   3.214  47.104 -1.1789 -1.6487 -0.9169
18603TIP3    H277301   2.849   3.225  47.053 -0.7416 -0.0911  0.5208
18604TIP3   OH277302   2.749   2.415   0.796  0.1719 -0.0597  0.8612
18604TIP3    H177303   2.674   2.453   0.750  1.9486  0.5997 -1.7258
18604TIP3    H277304   2.746   2.322   0.774  0.2233  0.0024  0.5890
18605TIP3   OH277305   2.642   1.162   7.748 -0.3433  0.0072 -0.2403
18605TIP3    H177306   2.637   1.078   7.795 -0.5035  0.2406  0.1635
18605TIP3    H277307   2.729   1.161   7.708  1.3033  1.2709  2.9249
18606TIP3   OH277308   0.925   1.283  17.234  0.1615 -0.2336  0.1817
18606TIP3    H177309   1.010   1.318  17.209 -0.1400 -0.1410 -0.7548
18606TIP3    H277310   0.877   1.273  17.151 -1.1465  0.7946  0.7788
18607TIP3   OH277311   1.251   3.429  54.325  0.4087 -0.2271 -0.2789
18607TIP3    H177312   1.316   3.499  54.327 -0.6558  0.7708  0.3002
18607TIP3    H277313   1.179   3.461  54.379 -0.9755 -0.9035 -1.6450
18608TIP3   OH277314   0.487   1.593  50.282 -0.5926 -0.3239 -0.3489
18608TIP3    H177315   0.551   1.543  50.231  1.2842  1.5226  0.0454
18608TIP3    H277316   0.524   1.596  50.370 -1.6210  0.1325  0.0787
18609TIP3   OH277317   0.398   0.875  58.631 -0.5693 -0.6468  0.1984
18609TIP3    H177318   0.482   0.850  58.669 -0.8026 -0.3902  0.9177
18609TIP3    H277319   0.378   0.959  58.672 -1.4342 -0.9635  0.4542
18610TIP3   OH277320   1.868   0.772  12.587 -0.3858  0.3521 -0.3383
18610TIP3    H177321   1.773   0.776  12.597 -0.4389 -0.8681 -0.1390
18610TIP3    H277322   1.882   0.705  12.520  0.3234  0.7974 -0.6447
18611TIP3   OH277323   2.662   0.539  54.268  0.0492 -0.1918 -1.0336
18611TIP3    H177324   2.580   0.589  54.258 -0.8006 -1.2980  0.0232
18611TIP3    H277325   2.713   0.589  54.332  0.0305  0.2896 -1.3866
18612TIP3   OH277326   0.854   2.456  64.694 -0.2920  0.1581  0.6000
18612TIP3    H177327   0.902   2.373  64.694 -0.7415 -0.1203  1.7620
18612TIP3    H277328   0.911   2.517  64.741  0.2117  0.6284 -0.5954
18613TIP3   OH277329   1.843   1.868  20.771 -0.0100  0.3461  0.5880
18613TIP3    H177330   1.857   1.780  20.737  2.3257  1.0774 -0.5871
18613TIP3    H277331   1.875   1.864  20.861  0.7045  0.1148  0.3360
18614TIP3   OH277332   2.378   2.586  19.769  0.4868 -0.2838  0.1002
18614TIP3    H177333   2.295   2.604  19.813 -0.1972  0.0208 -1.2768
18614TIP3    H277334   2.416   2.513  19.819 -0.8999 -0.8445  0.3628
18615TIP3   OH277335   1.475   1.228  35.092 -0.0712 -0.0396 -0.1775
18615TIP3    H177336   1.527   1.148  35.101  1.7499  0.6777 -2.9702
18615TIP3    H277337   1.540   1.298  35.092 -1.3572  1.1881 -0.6586
18616TIP3   OH277338   2.764   1.066  65.922 -0.1703 -0.2889 -0.3504
18616TIP3    H177339   2.806   1.004  65.982 -1.0461 -1.3144 -0.7708
18616TIP3    H277340   2.789   1.152  65.955  1.5859 -0.8563 -0.1243
18617TIP3   OH277341   0.854   0.160  46.775  0.0129  0.1740  0.5050
18617TIP3    H177342   0.852   0.227  46.843 -0.2487 -0.2345  0.8971
18617TIP3    H277343   0.884   0.081  46.819 -0.0998 -0.0767  0.1345
18618TIP3   OH277344   3.350   2.508  18.676  0.0448 -0.0622 -0.0527
18618TIP3    H177345   3.356   2.499  18.771 -0.1741 -0.2358 -0.0557
18618TIP3    H277346   3.399   2.433  18.642 -0.7703 -0.5883 -0.0780
18619TIP3   OH277347   1.129   2.172   8.373  0.3897 -0.2646 -0.7036
18619TIP3    H177348   1.203   2.125   8.336  1.3139 -0.1993  0.9340
18619TIP3    H277349   1.112   2.128   8.456 -0.3004  0.7764 -0.2690
18620TIP3   OH277350   2.230   0.010   6.912 -0.2712  0.5655  0.2254
18620TIP3    H177351   2.160  -0.025   6.858  0.6182 -0.6113 -0.1993
18620TIP3    H277352   2.210  -0.021   7.001  0.0300 -0.2978 -0.0003
18621TIP3   OH277353   0.181   1.645   0.663  0.3253  0.2257  0.1649
18621TIP3    H177354   0.133   1.685   0.590  0.3013  0.5592  0.3629
18621TIP3    H277355   0.160   1.700   0.738  0.5554  0.0297  0.3715
18622TIP3   OH277356   1.796   1.113  55.548 -0.1032 -0.0342  0.2619
18622TIP3    H177357   1.806   1.098  55.641  0.6893  0.0840  0.1982
18622TIP3    H277358   1.818   1.205  55.535  1.2758 -0.4078 -0.2412
18623TIP3   OH277359   0.202   0.590  16.920  0.7693 -0.1705  0.8569
18623TIP3    H177360   0.204   0.670  16.972 -2.5390 -1.1759  2.8188
18623TIP3    H277361   0.254   0.527  16.971  1.0665 -0.0313  0.7298
18624TIP3   OH277362   1.037   0.025  50.037 -0.0919  0.4352  0.1928
18624TIP3    H177363   1.084  -0.018  49.966 -0.7573  0.3090 -0.1840
18624TIP3    H277364   0.971  -0.038  50.065 -0.8016  1.0421 -0.0778
18625TIP3   OH277365   3.042   0.800  16.073  0.6114  0.5728  0.3055
18625TIP3    H177366   2.989   0.879  16.084  0.1169  0.4038 -0.7897
18625TIP3    H277367   3.124   0.820  16.120  0.6786  1.9133 -0.3389
18626TIP3   OH277368   0.095   1.138  66.256  0.4040 -0.4882 -0.2578
18626TIP3    H177369   0.034   1.065  66.259  1.3708 -1.3152 -0.3033
18626TIP3    H277370   0.173   1.103  66.215  0.9899  0.4972 -0.0246
18627TIP3   OH277371   1.037   0.453  62.731  0.5759 -0.1014  0.2813
18627TIP3    H177372   0.957   0.401  62.733  0.6665 -0.2291  1.2422
18627TIP3    H277373   1.095   0.410  62.795  1.1940  0.3232  0.0154
18628TIP3   OH277374   1.508   3.058  58.945  1.0090  0.3502 -0.3971
18628TIP3    H177375   1.447   2.989  58.970 -0.0707  1.5452  0.3806
18628TIP3    H277376   1.573   3.014  58.890  0.5806 -1.3439  0.4033
18629TIP3   OH277377   0.455   0.930   6.612 -0.1895 -0.0315  0.0227
18629TIP3    H177378   0.501   0.861   6.564 -3.6681 -1.8827 -0.9885
18629TIP3    H277379   0.448   1.002   6.550  0.4115 -0.1162 -0.1492
18630TIP3   OH277380   3.395   2.859  42.995  0.1393  0.0751 -0.0658
18630TIP3    H177381   3.441   2.789  42.948  0.1890 -0.6522  1.0329
18630TIP3    H277382   3.308   2.823  43.012 -0.3123  0.8273 -0.7121
18631TIP3   OH277383   2.335   2.768  19.088  0.3341 -0.2129  0.4575
18631TIP3    H177384   2.429   2.786  19.083  0.2546 -0.0909 -1.1587
18631TIP3    H277385   2.296   2.829  19.025 -0.7116 -1.0401  0.2857
18632TIP3   OH277386   2.094   0.555  53.816  0.2313 -0.6439  0.5153
18632TIP3    H177387   2.028   0.560  53.747 -0.7649  2.6999  1.4899
18632TIP3    H277388   2.171   0.518  53.774 -0.3898  1.0466 -2.3681
18633TIP3   OH277389   1.639   0.163  66.149 -0.7507  0.1677 -0.2760
18633TIP3    H177390   1.651   0.114  66.230  0.3406  0.7196 -0.0842
18633TIP3    H277391   1.695   0.240  66.159  0.3452 -0.3323 -2.0235
18634TIP3   OH277392   3.346   1.521  61.745  0.4068  0.1319 -0.5934
18634TIP3    H177393   3.312   1.436  61.716  1.9449 -0.2760 -1.2980
18634TIP3    H277394   3.441   1.512  61.740  0.6185  1.6413  0.1122
18635TIP3   OH277395   0.192   3.034  57.446 -0.2395  0.4642  0.4842
18635TIP3    H177396   0.109   3.000  57.482 -0.2309  1.6766  1.7268
18635TIP3    H277397   0.224   3.093  57.513  1.8406 -0.2464  0.1726
18636TIP3   OH277398   2.161   1.204  51.239  0.7040 -0.5571 -0.6709
18636TIP3    H177399   2.107   1.260  51.296  1.4158 -0.0793 -0.4513
18636TIP3    H277400   2.140   1.233  51.150  0.4001 -0.5639 -0.6021
18637TIP3   OH277401   3.142   2.754  10.970 -0.6631 -0.5910  0.0566
18637TIP3    H177402   3.182   2.667  10.960  1.0487  0.2027 -0.4596
18637TIP3    H277403   3.159   2.798  10.887  1.4535  1.3323  1.3733
18638TIP3   OH277404   2.561   1.973  58.902  0.1399 -0.0867  0.3862
18638TIP3    H177405   2.603   2.011  58.979  0.6965 -1.2058  0.6589
18638TIP3    H277406   2.479   2.022  58.893  0.1739  0.2226  1.5561
18639TIP3   OH277407   2.593   2.187  18.875  0.3654 -0.4233 -0.6651
18639TIP3    H177408   2.581   2.215  18.784  2.0584  0.8955 -0.5329
18639TIP3    H277409   2.650   2.254  18.913 -0.0098 -1.1489  1.2782
18640TIP3   OH277410   2.294   2.922  64.241  0.2294  0.5359  0.0708
18640TIP3    H177411   2.385   2.947  64.225  0.1739  0.5892 -0.1638
18640TIP3    H277412   2.259   2.901  64.154  0.2414 -0.2496  0.2469
18641TIP3   OH277413   1.999   3.251  58.678 -0.0502 -0.2060  0.4130
18641TIP3    H177414   1.946   3.273  58.602 -0.0583  0.6899  0.6718
18641TIP3    H277415   2.027   3.161  58.662 -2.0432 -0.8766  0.5123
18642TIP3   OH277416   2.671   2.706   0.688  0.4806 -0.3606  0.3238
18642TIP3    H177417   2.600   2.646   0.713 -1.2195  1.5301  0.3112
18642TIP3    H277418   2.724   2.715   0.767  0.9384 -2.0440  0.2467
18643TIP3   OH277419   1.096   0.180  49.315  0.0971 -0.3034  1.2450
18643TIP3    H177420   1.010   0.171  49.275  0.0151  1.4987  0.9602
18643TIP3    H277421   1.154   0.205  49.243  1.1035 -2.4502  1.2338
18644TIP3   OH277422   1.154   1.117  12.242 -0.2965 -0.0129  0.0737
18644TIP3    H177423   1.099   1.117  12.320 -0.0870  1.1941  0.2510
18644TIP3    H277424   1.159   1.210  12.218  2.4395  0.0473  0.6292
18645TIP3   OH277425   1.281   0.351  64.223 -0.1269 -0.8437  0.2466
18645TIP3    H177426   1.358   0.345  64.166 -0.2657 -0.3412  0.0128
18645TIP3    H277427   1.317   0.377  64.308 -0.2813  1.9044 -0.4637
18646TIP3   OH277428   1.044   3.127  11.725 -0.5049  0.4224  0.7860
18646TIP3    H177429   1.046   3.045  11.774  2.0658 -0.0646  0.0258
18646TIP3    H277430   0.962   3.124  11.675 -0.8377 -1.3007  1.3816
18647TIP3   OH277431   3.121   1.630  27.282 -0.3253  0.7363  0.3820
18647TIP3    H177432   3.182   1.694  27.319  0.8310  1.2120 -2.1011
18647TIP3    H277433   3.036   1.655  27.317  0.4098  2.3013  1.1520
18648TIP3   OH277434   3.199   2.951  64.073 -0.1887  0.1993  0.5227
18648TIP3    H177435   3.175   3.010  64.145 -3.0343  0.2402 -0.3504
18648TIP3    H277436   3.198   3.007  63.995 -2.2361 -0.7644 -0.2186
18649TIP3   OH277437   0.429   2.954  44.913 -0.3927  1.1617  0.0774
18649TIP3    H177438   0.438   3.049  44.918  0.4536  1.0639  1.0425
18649TIP3    H277439   0.470   2.923  44.994  0.0190 -0.0608 -0.5719
18650TIP3   OH277440   1.537   2.358   0.604  0.7976 -0.0906  0.0695
18650TIP3    H177441   1.553   2.281   0.549 -0.3609  1.4860 -2.6791
18650TIP3    H277442   1.615   2.412   0.594  0.8243 -0.0496  0.4695
18651TIP3   OH277443   1.121   1.994  14.566 -0.1691  0.6116  0.5309
18651TIP3    H177444   1.206   1.966  14.533  0.5464  0.8089  2.1065
18651TIP3    H277445   1.130   2.088  14.581 -0.1300  0.3869  2.1191
18652TIP3   OH277446   1.468   1.887   9.019  0.4312 -0.6434 -0.4288
18652TIP3    H177447   1.542   1.886   9.080  0.2463 -0.6310 -0.2018
18652TIP3    H277448   1.421   1.805   9.037  0.0857 -0.3975 -0.1927
18653TIP3   OH277449   2.446   0.149  12.124 -0.0503 -0.1370  0.3071
18653TIP3    H177450   2.519   0.143  12.063  0.4833 -0.9100  1.0043
18653TIP3    H277451   2.372   0.109  12.078  0.7185 -2.1198  0.6862
18654TIP3   OH277452   3.231   0.071  12.315 -0.2785  0.1063 -0.8475
18654TIP3    H177453   3.299   0.018  12.274  0.0629  1.2171 -1.7706
18654TIP3    H277454   3.205   0.021  12.393  2.2697  0.0848  0.0950
18655TIP3   OH277455   2.747   2.241  48.669 -0.3294  0.2407 -0.0901
18655TIP3    H177456   2.747   2.182  48.594  2.7012  0.4052 -0.3661
18655TIP3    H277457   2.732   2.185  48.745 -0.1023 -0.4796 -0.5727
18656TIP3   OH277458   2.580   1.628   8.472  0.0844  0.3238  0.3694
18656TIP3    H177459   2.660   1.680   8.459 -0.3221  0.7064 -0.6470
18656TIP3    H277460   2.546   1.613   8.384 -1.0154  0.2303  0.7944
18657TIP3   OH277461   1.848   2.555  18.593 -0.4746  0.2777  0.0653
18657TIP3    H177462   1.884   2.494  18.528  2.1065  1.7603 -0.0384
18657TIP3    H277463   1.762   2.579  18.558  0.0662 -0.3767 -1.8831
18658TIP3   OH277464   2.147   1.715  66.840 -0.0142 -0.2342  0.1030
18658TIP3    H177465   2.141   1.796  66.892 -0.0644 -0.5759  0.6299
18658TIP3    H277466   2.064   1.670  66.856  0.0676 -0.4533 -0.0887
18659TIP3   OH277467   2.962   0.792  58.550 -0.2714  0.2519  0.2071
18659TIP3    H177468   2.955   0.885  58.527  0.1977  0.1679 -0.3077
18659TIP3    H277469   2.877   0.770  58.587 -0.3888  0.8863  0.3231
18660TIP3   OH277470   2.618   3.155  10.880 -0.1469 -0.7532 -0.3599
18660TIP3    H177471   2.617   3.076  10.825 -2.2983 -0.4069 -0.8931
18660TIP3    H277472   2.555   3.136  10.950 -0.3521  0.3026 -0.2413
18661TIP3   OH277473   3.026   2.901  16.419  0.7137  0.1376  0.3558
18661TIP3    H177474   2.931   2.912  16.416  0.7065  0.1715  0.6919
18661TIP3    H277475   3.059   2.982  16.458  1.1481  1.4811 -2.5688
18662TIP3   OH277476   1.681   1.500  17.633 -0.0325  0.1506 -0.0660
18662TIP3    H177477   1.598   1.502  17.679 -0.4385 -3.6358 -0.3077
18662TIP3    H277478   1.658   1.514  17.541 -0.3480 -0.3490 -0.0670
18663TIP3   OH277479   1.980   0.301  59.781  0.2737  0.5184 -0.0103
18663TIP3    H177480   1.909   0.360  59.756 -1.3530 -1.0192  0.7623
18663TIP3    H277481   2.009   0.334  59.866 -1.9097 -0.7678  1.3381
18664TIP3   OH277482   1.312   3.226  13.377 -0.3278 -0.5841 -0.4783
18664TIP3    H177483   1.339   3.139  13.405  0.3206  0.2284  1.6055
18664TIP3    H277484   1.394   3.270  13.354 -0.6432 -0.4603 -1.4267
18665TIP3   OH277485   0.402   1.860  47.750  0.4841 -0.2978 -0.2872
18665TIP3    H177486   0.460   1.831  47.680  2.5789  4.2555 -0.7521
18665TIP3    H277487   0.461   1.884  47.822 -0.7254  3.2222 -0.2824
18666TIP3   OH277488   1.168   2.971  43.520 -0.0092  0.5412 -0.0074
18666TIP3    H177489   1.138   3.048  43.567  0.5083  1.3139 -0.9060
18666TIP3    H277490   1.224   3.006  43.450 -2.1848 -0.3942 -2.3785
18667TIP3   OH277491   3.021   0.675  59.043  0.8979  0.2532 -0.2005
18667TIP3    H177492   2.947   0.621  59.017 -0.4738  0.9586  1.9549
18667TIP3    H277493   3.017   0.751  58.986  1.7488 -0.9954 -2.0174
18668TIP3   OH277494   0.118   0.252  42.716 -0.1592 -0.2927  0.2276
18668TIP3    H177495   0.128   0.281  42.625 -2.8143 -0.3720 -0.1479
18668TIP3    H277496   0.055   0.181  42.712  0.4326 -0.9788  2.0573
18669TIP3   OH277497   1.499   0.531  16.603 -0.0042 -0.5134 -0.0166
18669TIP3    H177498   1.451   0.548  16.685  0.4644 -1.8460  0.5702
18669TIP3    H277499   1.545   0.612  16.584 -1.1780  0.2486  0.3159
18670TIP3   OH277500   1.675   3.198  67.231 -0.7633  0.0273 -0.4111
18670TIP3    H177501   1.603   3.209  67.293 -0.7737 -0.0053 -0.4159
18670TIP3    H277502   1.655   3.115  67.187 -1.3979  0.6340 -1.2951
18671TIP3   OH277503   3.381   3.374  19.628  0.2394  0.2441 -0.3794
18671TIP3    H177504   3.465   3.393  19.670  0.6509 -0.4480 -0.8556
18671TIP3    H277505   3.317   3.378  19.699  0.9823 -1.3090  0.4281
18672TIP3   OH277506   2.248   2.855  62.269  0.5933 -0.5491 -0.3425
18672TIP3    H177507   2.290   2.875  62.185  1.3880  1.1417  0.4045
18672TIP3    H277508   2.269   2.763  62.285  1.1011 -0.6759 -1.6223
18673TIP3   OH277509   2.977   3.348  65.805 -0.3895 -0.1918 -0.0373
18673TIP3    H177510   2.934   3.431  65.787 -1.8739 -0.8122  0.4978
18673TIP3    H277511   3.002   3.314  65.719 -1.0654  0.1383 -0.3700
18674TIP3   OH277512   1.209   0.621  42.912 -0.0644 -0.1190  0.3445
18674TIP3    H177513   1.221   0.597  42.820  0.7001  0.1348  0.3686
18674TIP3    H277514   1.284   0.678  42.931  0.1992 -0.7671  1.3315
18675TIP3   OH277515   0.362   1.292  61.318  0.0464  0.6393  0.3490
18675TIP3    H177516   0.412   1.314  61.240 -0.6866  0.2525 -0.2363
18675TIP3    H277517   0.425   1.250  61.376  0.5849  0.9091 -0.0371
18676TIP3   OH277518   0.406   1.321  61.795  0.3472  0.0203 -0.1567
18676TIP3    H177519   0.489   1.362  61.771  1.0094 -1.7266 -1.0393
18676TIP3    H277520   0.429   1.232  61.821 -1.1477 -0.1830  0.6085
18677TIP3   OH277521   2.760   0.200   1.155  0.9738 -0.9273 -0.0886
18677TIP3    H177522   2.783   0.137   1.223 -0.0513  0.4533  1.6455
18677TIP3    H277523   2.787   0.159   1.073  0.4166 -3.5525  0.9552
18678TIP3   OH277524   0.327   1.425  47.386  0.4215 -0.3118 -0.0919
18678TIP3    H177525   0.396   1.396  47.445  0.0139 -1.1056  0.0078
18678TIP3    H277526   0.283   1.344  47.358  0.3780  0.0779 -1.1966
18679TIP3   OH277527   2.329   0.201  42.874  0.3052 -0.7532 -0.0631
18679TIP3    H177528   2.401   0.206  42.811 -1.7621  0.1952 -2.5360
18679TIP3    H277529   2.280   0.123  42.847 -1.2322  0.2926 -0.4156
18680TIP3   OH277530   2.659   1.392  51.629 -0.0292 -0.0374  0.5620
18680TIP3    H177531   2.720   1.464  51.617  1.4854 -1.4955 -1.1575
18680TIP3    H277532   2.608   1.416  51.706  2.6499  1.3198  2.0490
18681TIP3   OH277533   2.596   3.084  61.920  0.4745 -0.1064 -0.3413
18681TIP3    H177534   2.661   3.085  61.849  0.7188  1.3733 -0.1273
18681TIP3    H277535   2.614   3.164  61.970  0.7465 -1.4528  1.8035
18682TIP3   OH277536   0.061   0.575   0.243  0.2859 -0.0051  0.5444
18682TIP3    H177537   0.079   0.664   0.212 -0.3630  0.1512  0.5942
18682TIP3    H277538   0.018   0.533   0.168  2.0101 -0.7922 -0.0556
18683TIP3   OH277539   0.684   0.334  54.273  0.3076 -0.1331  0.1516
18683TIP3    H177540   0.755   0.397  54.288 -0.2449  0.4755  0.2738
18683TIP3    H277541   0.682   0.279  54.352  1.2553 -0.7732 -0.2629
18684TIP3   OH277542   1.449   3.329  14.351  0.0873 -0.2268  0.0391
18684TIP3    H177543   1.511   3.400  14.334 -0.7440  0.3572 -0.6502
18684TIP3    H277544   1.433   3.333  14.446  0.9776 -0.2862  0.1937
18685TIP3   OH277545   0.233   0.194  42.946  0.0629 -0.6731 -0.4499
18685TIP3    H177546   0.199   0.235  42.867 -1.1339  0.8765  0.8046
18685TIP3    H277547   0.189   0.239  43.017  0.5514 -2.5216  1.1008
18686TIP3   OH277548   1.415   1.626  57.120  0.1445 -0.1116  0.1577
18686TIP3    H177549   1.466   1.606  57.041 -0.3585 -0.8150  0.0051
18686TIP3    H277550   1.438   1.556  57.181 -0.5147 -0.3468  0.1398
18687TIP3   OH277551   1.961   3.254  59.410 -0.4087  0.6045 -0.4990
18687TIP3    H177552   1.874   3.246  59.448 -0.1791 -0.0748 -0.0931
18687TIP3    H277553   1.976   3.348  59.404 -0.9171  0.7237  0.0115
18688TIP3   OH277554   3.055   0.938   4.515 -0.2117  0.3305 -0.2538
18688TIP3    H177555   3.060   0.886   4.596  1.4447 -0.5506 -0.8846
18688TIP3    H277556   2.967   0.975   4.517 -0.6385 -0.6324  1.3667
18689TIP3   OH277557   1.935   2.101  16.161  0.3222  0.5132  0.2966
18689TIP3    H177558   1.898   2.013  16.152  1.8153 -0.2062  0.8853
18689TIP3    H277559   1.988   2.097  16.240  0.2221  2.0374  0.4754
18690TIP3   OH277560   0.060   1.989  46.464 -0.0172 -0.6000  0.5310
18690TIP3    H177561   0.133   2.049  46.450 -0.6615  0.0613 -0.1632
18690TIP3    H277562  -0.003   2.013  46.396 -0.3725 -1.9550  0.3635
18691TIP3   OH277563   0.991   3.432  56.002 -0.7205  0.1077  0.0367
18691TIP3    H177564   0.907   3.443  55.956  0.5575  1.6434 -2.1259
18691TIP3    H277565   1.054   3.477  55.946  2.0379 -3.1988  0.1890
18692TIP3   OH277566   1.547   2.812  63.154  0.0348 -0.7396 -0.0136
18692TIP3    H177567   1.552   2.716  63.150  2.6270 -0.7523  1.4722
18692TIP3    H277568   1.469   2.829  63.206 -1.5006 -1.9229 -1.7833
18693TIP3   OH277569   1.313   0.725  15.492 -0.2912 -0.7919 -0.4814
18693TIP3    H177570   1.381   0.768  15.543  1.0639 -0.2864 -2.5938
18693TIP3    H277571   1.272   0.664  15.554  0.1181  0.9351  1.6239
18694TIP3   OH277572   2.998   1.920  64.947  0.3814 -0.5191  0.5664
18694TIP3    H177573   3.073   1.862  64.961  0.6256 -0.9259 -1.9983
18694TIP3    H277574   3.012   1.957  64.860 -2.1308 -0.2084  0.2198
18695TIP3   OH277575   1.436   2.149  44.956  0.5501  0.5345 -0.5397
18695TIP3    H177576   1.371   2.120  44.892 -1.7127  0.3159  1.7232
18695TIP3    H277577   1.415   2.100  45.035 -0.0904  4.3635  1.9264
18696TIP3   OH277578   2.579   1.941  42.567  0.5963 -0.1621  0.3467
18696TIP3    H177579   2.616   1.864  42.523  0.2885 -0.0815 -0.0588
18696TIP3    H277580   2.628   1.947  42.649  0.2361 -1.1232  0.6440
18697TIP3   OH277581   3.060   2.755  20.749  0.5261  0.1920  0.6916
18697TIP3    H177582   3.034   2.705  20.826 -1.5901  0.8164  0.4498
18697TIP3    H277583   3.053   2.846  20.776  3.9380  0.4943  1.0061
18698TIP3   OH277584   2.845   3.112   5.625 -0.1488 -0.1099  0.2416
18698TIP3    H177585   2.753   3.104   5.599 -0.3448  0.3852  0.7469
18698TIP3    H277586   2.855   3.205   5.645  0.9752  0.2385 -1.6752
18699TIP3   OH277587   3.234   2.143  58.656 -0.4227  0.2013 -0.0141
18699TIP3    H177588   3.221   2.159  58.750  0.1253 -1.9535  0.4661
18699TIP3    H277589   3.145   2.136  58.621 -0.7769 -3.3475  1.2106
18700TIP3   OH277590   3.309   3.445   4.968  0.6794  0.8081 -0.7245
18700TIP3    H177591   3.321   3.464   4.875  1.5079  1.3259 -0.5230
18700TIP3    H277592   3.366   3.507   5.013  2.5218 -1.2893  0.0244
18701TIP3   OH277593   2.488   0.933   1.745  0.3142 -0.1757 -0.0054
18701TIP3    H177594   2.447   0.909   1.827 -0.5160  0.5716 -0.1869
18701TIP3    H277595   2.435   1.005   1.711  0.5204 -0.5877 -1.2872
18702TIP3   OH277596   3.439   1.656   6.104 -0.5297 -0.0218  0.0746
18702TIP3    H177597   3.466   1.583   6.048  0.0937  0.6792 -0.5667
18702TIP3    H277598   3.417   1.616   6.188 -0.0970 -0.9324 -0.2417
18703TIP3   OH277599   1.017   1.441  43.365  0.5139 -0.2013 -0.1835
18703TIP3    H177600   0.931   1.481  43.380  0.3594 -0.9775  1.1843
18703TIP3    H277601   1.022   1.430  43.270  0.0386  1.8438 -0.4763
18704TIP3   OH277602   2.371   0.642  48.899  0.2708 -0.7045  0.2983
18704TIP3    H177603   2.316   0.618  48.974 -1.6921 -0.9180 -1.1414
18704TIP3    H277604   2.452   0.675  48.939 -1.6277  1.6274  2.6338
18705TIP3   OH277605   0.948   1.387  44.156  0.3189 -0.0809 -0.0652
18705TIP3    H177606   0.949   1.295  44.130 -1.0061 -0.5248  1.3221
18705TIP3    H277607   1.039   1.414  44.151  0.8013 -1.6044 -0.0492
18706TIP3   OH277608   2.554   2.942  62.584  0.5511 -0.1160  0.0392
18706TIP3    H177609   2.510   3.019  62.550  1.7392 -0.5197 -2.6848
18706TIP3    H277610   2.495   2.869  62.561  1.1328 -0.3476 -0.7488
18707TIP3   OH277611   3.093   0.935  59.591  0.2305 -0.0389  0.4999
18707TIP3    H177612   3.000   0.934  59.616  0.2992 -0.7044  0.7531
18707TIP3    H277613   3.130   1.007  59.643 -0.1443  0.2445  0.3873
18708TIP3   OH277614   1.170   0.581  63.851  0.0636 -0.3635  0.5565
18708TIP3    H177615   1.153   0.498  63.895  0.0520 -0.7435 -0.1536
18708TIP3    H277616   1.092   0.597  63.798  0.5517 -0.5108 -0.2353
18709TIP3   OH277617   3.375   1.562  17.534  0.0370 -0.2560 -0.0088
18709TIP3    H177618   3.396   1.641  17.483  0.6015 -0.5110 -0.1820
18709TIP3    H277619   3.387   1.490  17.472 -0.9836 -0.4466  0.0027
18710TIP3   OH277620   0.509   1.988   5.214  0.1045  0.0255 -0.1013
18710TIP3    H177621   0.476   1.933   5.285  1.8524 -0.5197  0.3437
18710TIP3    H277622   0.446   1.977   5.143  0.0492 -2.0201  0.2202
18711TIP3   OH277623   2.913   2.989   1.604 -0.0951 -0.5009  0.4403
18711TIP3    H177624   2.902   3.057   1.670  1.1571 -1.3885  1.6340
18711TIP3    H277625   2.830   2.941   1.605 -0.7773  0.6124 -0.0105
18712TIP3   OH277626   0.994   1.811  42.701  1.0341  0.0358  0.2256
18712TIP3    H177627   1.042   1.730  42.718  0.2504 -0.6890 -0.8508
18712TIP3    H277628   0.906   1.782  42.677  0.0452  1.3199  2.0479
18713TIP3   OH277629   1.982   0.908   4.036 -0.3464  0.2033  0.2618
18713TIP3    H177630   1.984   0.900   3.941  1.0510  0.2918  0.2553
18713TIP3    H277631   2.017   0.995   4.053 -3.9985  1.7015  0.7638
18714TIP3   OH277632   3.319   1.066  53.420  0.4354  0.4094 -0.2233
18714TIP3    H177633   3.239   1.035  53.378  0.5613  0.3270 -0.4012
18714TIP3    H277634   3.321   1.160  53.402 -0.5544  0.7584  1.3073
18715TIP3   OH277635   2.912   2.921  10.893  0.2356 -0.2307  0.0717
18715TIP3    H177636   2.965   2.998  10.869  0.2842 -0.2957 -0.0306
18715TIP3    H277637   2.975   2.858  10.928  0.3403 -0.6173 -0.8003
18716TIP3   OH277638   1.014   3.430  60.642 -0.1011 -0.3830 -0.4072
18716TIP3    H177639   1.081   3.491  60.675  0.6539 -0.2941 -2.0097
18716TIP3    H277640   0.963   3.483  60.580 -1.4425 -0.5601  0.5126
18717TIP3   OH277641   3.339   2.071  57.213  0.5568 -0.3524  0.1264
18717TIP3    H177642   3.284   2.149  57.216 -1.5749 -1.7552 -0.1471
18717TIP3    H277643   3.351   2.054  57.119  1.7975  0.1019  0.1735
18718TIP3   OH277644   0.942   1.480  36.621 -0.1836  0.6506 -0.0555
18718TIP3    H177645   0.880   1.416  36.654 -0.6316  1.5925  0.9948
18718TIP3    H277646   0.998   1.501  36.697  1.3502 -0.0803 -0.9310
18719TIP3   OH277647   3.337   0.069  57.661  0.1090  0.2960  0.1327
18719TIP3    H177648   3.266   0.062  57.597  0.0329  2.0094  0.0002
18719TIP3    H277649   3.369   0.159  57.653  2.0334 -0.3007  0.4767
18720TIP3   OH277650   2.718   0.501  17.415  0.3532 -0.1772  0.3394
18720TIP3    H177651   2.702   0.595  17.421  2.5963  0.2527  0.4927
18720TIP3    H277652   2.810   0.491  17.440  1.2471 -1.9869 -3.0207
18721TIP3   OH277653   0.452   1.552  19.212 -0.3442 -0.0575 -0.2513
18721TIP3    H177654   0.415   1.518  19.294  0.1674  0.4002  0.1809
18721TIP3    H277655   0.405   1.506  19.143 -0.0751 -1.2203  0.3111
18722TIP3   OH277656   1.384   1.345  51.905 -0.5953  0.0621  0.3652
18722TIP3    H177657   1.350   1.315  51.989 -0.3555  0.5993  0.6581
18722TIP3    H277658   1.457   1.403  51.927 -0.6196  0.3209 -0.2046
18723TIP3   OH277659   0.212   0.121  43.717 -0.3233  0.5101 -0.2889
18723TIP3    H177660   0.156   0.044  43.711 -0.7754  0.8964 -1.2424
18723TIP3    H277661   0.289   0.091  43.764 -1.2232 -0.0899  0.8634
18724TIP3   OH277662   3.292   0.367   5.032 -0.6353 -0.5336  0.0138
18724TIP3    H177663   3.387   0.351   5.034 -0.4983 -0.3239 -2.4983
18724TIP3    H277664   3.267   0.368   5.125  1.6900 -1.2521  0.7338
18725TIP3   OH277665   1.073   0.147  21.556  0.4284  0.2626  0.2517
18725TIP3    H177666   1.076   0.160  21.461 -0.6169  0.4168  0.2312
18725TIP3    H277667   0.981   0.128  21.575  0.2952  1.8359  1.4338
18726TIP3   OH277668   1.935   2.727  58.135  0.8434 -0.2714  0.2494
18726TIP3    H177669   1.938   2.631  58.134  1.9312 -0.2855  1.7122
18726TIP3    H277670   1.997   2.754  58.067  0.7032 -0.6019 -0.0129
18727TIP3   OH277671   1.250   3.053  65.778 -0.3697  0.4914 -0.0549
18727TIP3    H177672   1.214   3.043  65.866  0.4302  1.6553  0.4320
18727TIP3    H277673   1.173   3.058  65.721 -0.8917 -0.8322  0.4868
18728TIP3   OH277674   2.768   1.661   6.247  0.3060  0.0081  0.3632
18728TIP3    H177675   2.798   1.752   6.250  1.7875 -0.3264 -1.9167
18728TIP3    H277676   2.682   1.663   6.289 -0.3081  2.7282 -0.8041
18729TIP3   OH277677   3.255   0.853  12.413 -0.2845 -0.2666  0.0676
18729TIP3    H177678   3.202   0.783  12.451 -0.9393  0.5277  0.6635
18729TIP3    H277679   3.215   0.933  12.446 -0.1671  0.4243 -1.3875
18730TIP3   OH277680   3.003   2.856  30.287 -0.4810 -0.4400  0.0039
18730TIP3    H177681   3.026   2.833  30.197 -0.5994  0.4358 -0.2554
18730TIP3    H277682   3.071   2.917  30.315 -0.4672 -0.6796  0.4958
18731TIP3   OH277683   2.268   3.007   5.193 -0.6800  0.1835 -0.0940
18731TIP3    H177684   2.204   3.046   5.133  1.1627  0.5218 -1.9511
18731TIP3    H277685   2.350   3.053   5.175  0.4668 -1.2678  1.1036
18732TIP3   OH277686   2.505   3.253  59.701 -0.3447  0.3028 -1.1596
18732TIP3    H177687   2.591   3.295  59.703 -0.0339 -0.3674 -0.0580
18732TIP3    H277688   2.499   3.216  59.613  1.2299 -1.1255 -0.7207
18733TIP3   OH277689   2.346   2.396   6.177 -0.1971  0.6297  0.5111
18733TIP3    H177690   2.334   2.488   6.151  1.3269  0.4357 -1.0832
18733TIP3    H277691   2.434   2.393   6.215  0.1615 -0.3083 -0.3302
18734TIP3   OH277692   3.007   0.942  10.387  0.0283 -0.0125  0.4625
18734TIP3    H177693   3.101   0.927  10.378  0.3523  0.7457  2.1573
18734TIP3    H277694   2.981   0.888  10.461 -1.0007 -0.6346 -0.3347
18735TIP3   OH277695   0.626   1.340  58.098 -0.3351  0.1099  0.1177
18735TIP3    H177696   0.557   1.288  58.056 -0.5053 -0.2930  0.8585
18735TIP3    H277697   0.700   1.280  58.104 -0.4184  0.0573  0.6654
18736TIP3   OH277698   0.078   0.372   2.751  0.2069  0.4201 -0.2838
18736TIP3    H177699   0.112   0.409   2.832  1.8238  0.6835 -1.0301
18736TIP3    H277700   0.049   0.447   2.700 -0.1076  0.3199 -0.2547
18737TIP3   OH277701   0.601   1.525  18.432 -0.1207  0.1327 -0.1900
18737TIP3    H177702   0.578   1.592  18.496 -1.4711 -0.1725 -0.3334
18737TIP3    H277703   0.628   1.575  18.355 -2.5271  0.6064 -0.8152
18738TIP3   OH277704   3.258   1.800  22.601  0.2361 -0.1977 -0.4723
18738TIP3    H177705   3.238   1.792  22.694  0.6749 -0.2356 -0.3784
18738TIP3    H277706   3.219   1.722  22.561 -1.6450  0.7798 -0.6242
18739TIP3   OH277707   0.269   1.327  54.540  0.5410  0.1196 -0.0704
18739TIP3    H177708   0.223   1.277  54.607  1.7949 -0.7717  0.1545
18739TIP3    H277709   0.251   1.280  54.458  0.6490  0.0601 -0.0591
18740TIP3   OH277710   2.695   0.014   5.073 -0.0227 -0.0996  0.5391
18740TIP3    H177711   2.659   0.090   5.119 -0.9099  0.1408 -0.5218
18740TIP3    H277712   2.729   0.050   4.991 -1.4594 -0.9867 -0.4799
18741TIP3   OH277713   2.308   3.352  54.156 -0.1807  0.4397 -0.3461
18741TIP3    H177714   2.255   3.329  54.232  0.5425  0.7769  0.2670
18741TIP3    H277715   2.378   3.408  54.191  1.0152 -0.5837 -1.0257
18742TIP3   OH277716   1.285   0.740  62.694 -0.0895  0.3024 -0.1242
18742TIP3    H177717   1.288   0.646  62.712 -0.1314  0.1848 -0.7100
18742TIP3    H277718   1.360   0.776  62.741  0.0177 -0.0460 -0.0273
18743TIP3   OH277719   2.091   3.221  44.765  0.5520 -0.1764 -0.1073
18743TIP3    H177720   2.004   3.260  44.771 -1.1305 -3.5858  0.1142
18743TIP3    H277721   2.114   3.199  44.855  1.6271  0.5439 -0.1798
18744TIP3   OH277722   1.000   2.088  42.812  0.3198 -0.5012 -0.2015
18744TIP3    H177723   0.969   2.012  42.763  1.6057 -1.6698  0.7235
18744TIP3    H277724   1.092   2.097  42.788  0.2946  0.5348  0.0181
18745TIP3   OH277725   0.595   1.460  22.206  0.4280  0.0439 -0.9066
18745TIP3    H177726   0.686   1.480  22.188  0.2223  1.8632 -0.1496
18745TIP3    H277727   0.590   1.365  22.202  2.4387 -0.1175 -0.5635
18746TIP3   OH277728   0.291   0.986  45.162  0.6891 -0.3066 -0.2063
18746TIP3    H177729   0.249   0.942  45.235  2.2377 -0.9912  0.3329
18746TIP3    H277730   0.255   0.944  45.084  0.4276 -0.9095  0.2361
18747TIP3   OH277731   2.959   2.590   0.617  0.1125  0.3273  0.0333
18747TIP3    H177732   2.929   2.670   0.659 -0.8280 -0.1345  0.2622
18747TIP3    H277733   2.917   2.519   0.666  1.3146 -0.3380  0.1492
18748TIP3   OH277734   0.899   1.654  46.443 -0.5034 -0.6073  0.0100
18748TIP3    H177735   0.886   1.663  46.537  0.1877  0.2789  0.0318
18748TIP3    H277736   0.853   1.729  46.405  0.9033  0.1759 -0.2003
18749TIP3   OH277737   1.770   3.390   5.163 -0.3971  0.5571 -0.6454
18749TIP3    H177738   1.727   3.382   5.078  0.1185 -1.1245 -0.7720
18749TIP3    H277739   1.792   3.301   5.187 -0.8273  0.9621  1.4241
18750TIP3   OH277740   1.762   0.673   2.972  0.3533 -0.0732 -1.0929
18750TIP3    H177741   1.847   0.694   2.934  1.3004  0.3974  1.1416
18750TIP3    H277742   1.723   0.758   2.993 -0.2627 -0.3075 -1.2710
18751TIP3   OH277743   2.353   2.087  27.715  0.0013 -0.1705 -0.7748
18751TIP3    H177744   2.278   2.047  27.759 -0.6398  1.3380 -0.4486
18751TIP3    H277745   2.403   2.128  27.785  0.8554 -0.6945 -1.0593
18752TIP3   OH277746   2.051   1.978  58.971  0.3048  0.5097 -0.3337
18752TIP3    H177747   2.058   2.068  59.003 -0.7011  0.4216  0.1846
18752TIP3    H277748   2.137   1.959  58.933 -0.0946  2.4223 -2.4258
18753TIP3   OH277749   2.662   0.108   8.893  0.3355 -0.6355 -0.3285
18753TIP3    H177750   2.676   0.164   8.817  0.6410 -0.5770 -0.2328
18753TIP3    H277751   2.568   0.111   8.909  0.4733  0.7274  0.3401
18754TIP3   OH277752   1.337   2.205  44.131  0.0512 -0.6495  0.9657
18754TIP3    H177753   1.324   2.295  44.098  1.2905  0.4622  3.3061
18754TIP3    H277754   1.282   2.151  44.074 -0.1799  1.4782 -0.9918
18755TIP3   OH277755   0.937   0.910  55.771  0.2233 -0.5957 -0.0683
18755TIP3    H177756   0.946   0.867  55.686  0.4572 -0.2536 -0.2188
18755TIP3    H277757   0.843   0.911  55.788  0.0063  0.9758 -1.1791
18756TIP3   OH277758   0.558   0.732   0.982 -0.4785  0.3002 -0.2501
18756TIP3    H177759   0.574   0.681   1.062  0.6357 -0.0306 -0.6662
18756TIP3    H277760   0.646   0.750   0.948 -0.9253  0.9960 -1.0541
18757TIP3   OH277761   3.016   0.182  66.517 -0.0656  0.1269  0.3196
18757TIP3    H177762   2.975   0.244  66.577  0.5353 -0.3279  1.2360
18757TIP3    H277763   2.982   0.097  66.543  1.0154 -0.1946  0.7333
18758TIP3   OH277764   3.182   1.791  27.819 -1.1229  0.6753 -0.7824
18758TIP3    H177765   3.211   1.710  27.779 -1.2897  0.8383 -1.2400
18758TIP3    H277766   3.131   1.764  27.895 -0.6197  0.3698 -0.5545
18759TIP3   OH277767   1.721   3.008   5.056  0.2701 -0.1069  0.1101
18759TIP3    H177768   1.680   3.059   4.987  0.5764 -0.8717 -0.6585
18759TIP3    H277769   1.710   3.060   5.135  0.0787  0.8706 -0.5512
18760TIP3   OH277770   1.231   0.567  16.267 -0.3493 -0.0872 -0.0275
18760TIP3    H177771   1.237   0.575  16.362 -0.1097 -1.8099  0.1349
18760TIP3    H277772   1.142   0.593  16.245 -0.5611 -0.1609  0.7363
18761TIP3   OH277773   0.526   1.984  53.432 -0.0516  0.7193 -0.3663
18761TIP3    H177774   0.618   2.005  53.444  0.5629 -0.6553 -2.1620
18761TIP3    H277775   0.479   2.052  53.480  1.8483 -0.6193  3.8093
18762TIP3   OH277776   0.539   0.549   9.726  0.2256  0.6477 -0.4032
18762TIP3    H177777   0.605   0.527   9.661  0.1339  0.5413 -0.4612
18762TIP3    H277778   0.511   0.637   9.702  1.5180  1.3664  0.6016
18763TIP3   OH277779   1.476   0.738  25.502 -0.0464  0.0114  0.6238
18763TIP3    H177780   1.400   0.793  25.488  0.2919  0.5758  0.9933
18763TIP3    H277781   1.547   0.781  25.454 -0.6208 -2.2330 -2.6426
18764TIP3   OH277782   0.279   2.146  67.501 -1.0136 -0.0825  0.3004
18764TIP3    H177783   0.222   2.220  67.481 -0.8019 -0.2336 -0.9565
18764TIP3    H277784   0.238   2.103  67.576 -1.6547  0.7552  0.4399
18765TIP3   OH277785   1.805   2.597  48.533  0.0592  0.0034 -0.4230
18765TIP3    H177786   1.861   2.559  48.465 -0.9431 -2.0159 -0.1895
18765TIP3    H277787   1.865   2.619  48.604  0.7142 -1.1673 -0.5837
18766TIP3   OH277788   0.445   0.063  45.053  0.1589  0.5915 -0.0583
18766TIP3    H177789   0.379   0.069  44.983  0.2298  1.8681 -0.0297
18766TIP3    H277790   0.396   0.082  45.133  0.2915  0.1552  0.1291
18767TIP3   OH277791   2.939   1.776  45.238  0.0816 -0.1249  0.2118
18767TIP3    H177792   3.020   1.818  45.209 -0.4116  0.4763 -0.3278
18767TIP3    H277793   2.876   1.794  45.168 -0.9212  0.7030  1.2861
18768TIP3   OH277794   0.499   0.640  56.028  0.2435 -0.0425 -0.1354
18768TIP3    H177795   0.442   0.623  55.953 -2.0327 -0.3120  1.5423
18768TIP3    H277796   0.497   0.558  56.078 -0.6385  0.9886  1.6258
18769TIP3   OH277797   1.006   2.135  62.314  0.4931  0.6565  0.0811
18769TIP3    H177798   1.047   2.125  62.400 -2.1646  2.1610  1.6762
18769TIP3    H277799   1.024   2.226  62.289 -0.5547  0.8948  0.1338
18770TIP3   OH277800   2.485   1.719  63.835 -0.1477 -0.2333 -0.3370
18770TIP3    H177801   2.458   1.811  63.836 -0.7121 -0.3965 -0.6294
18770TIP3    H277802   2.404   1.669  63.842  0.1616 -0.7149 -0.1213
18771TIP3   OH277803   1.952   2.844  14.640 -0.1671 -0.0553 -0.5252
18771TIP3    H177804   1.936   2.934  14.612 -0.9376 -0.5316 -1.7035
18771TIP3    H277805   1.946   2.793  14.559  0.3478 -1.1542  0.1151
18772TIP3   OH277806   2.504   2.350  64.961 -0.0656  0.5212 -0.3739
18772TIP3    H177807   2.520   2.315  65.048  0.5471  0.3574 -0.5452
18772TIP3    H277808   2.592   2.365  64.925 -0.3124  1.4617 -0.6147
18773TIP3   OH277809   0.703   0.392  62.092  0.1139  0.3572  0.6796
18773TIP3    H177810   0.786   0.415  62.134 -0.5890  1.6514  1.4561
18773TIP3    H277811   0.647   0.365  62.164 -0.8828  1.8832  0.5206
18774TIP3   OH277812   0.722   1.243  45.503  1.0326 -0.2305  0.4242
18774TIP3    H177813   0.670   1.289  45.437  0.8338 -2.3307 -0.9917
18774TIP3    H277814   0.719   1.299  45.580 -1.4120  0.8104 -0.3496
18775TIP3   OH277815   3.274   3.321  17.478 -0.4712  0.7047  0.2920
18775TIP3    H177816   3.229   3.402  17.503 -1.7003 -0.0100  0.4584
18775TIP3    H277817   3.211   3.275  17.422  1.1815  1.0175 -1.9854
18776TIP3   OH277818   3.377   2.572  52.466  0.3373  0.5255 -0.0152
18776TIP3    H177819   3.305   2.523  52.426  0.7443  2.0286 -2.8248
18776TIP3    H277820   3.409   2.514  52.535 -4.0332  0.1412  1.9929
18777TIP3   OH277821   1.146   1.451  13.057  0.1773  0.4729 -0.1753
18777TIP3    H177822   1.142   1.467  13.151 -2.5122 -0.5198 -0.0430
18777TIP3    H277823   1.090   1.519  13.019 -0.2165 -0.2400 -0.8823
18778TIP3   OH277824   1.953   1.227   2.970 -0.2947  0.6838  0.2485
18778TIP3    H177825   1.955   1.318   2.939 -2.9443  1.5019  2.1724
18778TIP3    H277826   2.038   1.192   2.945  0.1708  3.1526 -2.0921
18779TIP3   OH277827   1.855   2.333  51.571 -0.2449  0.3296  0.6587
18779TIP3    H177828   1.855   2.421  51.533 -0.9157  0.5132  1.0674
18779TIP3    H277829   1.848   2.348  51.665  2.6890 -0.0720  1.0381
18780TIP3   OH277830   0.507   0.800  22.287 -0.2656  0.2550 -0.0816
18780TIP3    H177831   0.436   0.749  22.327  0.7490 -1.3623 -0.2531
18780TIP3    H277832   0.578   0.737  22.277  1.1129  1.7719 -0.1551
18781TIP3   OH277833   0.650   1.744  13.360  0.1646  0.1934  0.6901
18781TIP3    H177834   0.556   1.742  13.377 -0.0637  0.3877 -0.4537
18781TIP3    H277835   0.657   1.739  13.265  1.3590 -0.8929  0.8124
18782TIP3   OH277836   0.195   1.983   9.674 -0.3675  0.1850  0.1833
18782TIP3    H177837   0.218   1.965   9.583  2.7893  0.2460  0.8544
18782TIP3    H277838   0.268   1.948   9.725 -2.1389 -0.0397  2.7390
18783TIP3   OH277839   2.654   3.002  51.290  0.0450  0.1962  0.5303
18783TIP3    H177840   2.679   3.053  51.213 -2.0279  0.0976 -0.2805
18783TIP3    H277841   2.691   3.050  51.364  3.1554 -0.3591 -0.5195
18784TIP3   OH277842   1.821   3.171   9.315  0.3069  0.5358  0.6586
18784TIP3    H177843   1.861   3.181   9.402  0.0493  1.1835  0.7083
18784TIP3    H277844   1.728   3.159   9.332  0.0341  2.1121  0.4316
18785TIP3   OH277845   0.413   2.477  43.131 -0.4118  0.3204  0.3124
18785TIP3    H177846   0.495   2.436  43.103 -0.4968 -0.4026  1.0695
18785TIP3    H277847   0.345   2.427  43.086 -0.4423  1.0682 -0.4957
18786TIP3   OH277848   1.801   3.370   4.582  0.2745  0.2093 -0.2334
18786TIP3    H177849   1.826   3.286   4.544  2.0171  1.2711 -1.6110
18786TIP3    H277850   1.710   3.382   4.555  0.0405 -1.1730 -0.1020
18787TIP3   OH277851   3.450   2.987   2.302 -0.6969 -0.1311  0.6695
18787TIP3    H177852   3.460   3.012   2.210  0.8326  1.5606  1.2549
18787TIP3    H277853   3.408   2.901   2.298  1.2681 -1.1075 -1.6726
18788TIP3   OH277854   0.419   1.275  64.653  0.1025 -0.0700 -0.0806
18788TIP3    H177855   0.394   1.297  64.743 -2.5586 -0.4199 -0.6503
18788TIP3    H277856   0.457   1.356  64.618 -0.6873  0.6816  0.7547
18789TIP3   OH277857   3.293   0.076  65.654  0.4666  0.1181 -0.6909
18789TIP3    H177858   3.387   0.092  65.663  0.6979 -1.2727 -0.5030
18789TIP3    H277859   3.286  -0.018  65.641 -0.8955  0.2406 -0.9064
18790TIP3   OH277860   1.056   3.104  53.192  0.3646 -0.5108  0.0492
18790TIP3    H177861   1.135   3.080  53.145 -0.2137  1.6297 -2.2688
18790TIP3    H277862   0.984   3.076  53.135 -0.5446 -1.4030  1.5653
18791TIP3   OH277863   3.342   0.130  48.333  0.6055  0.0340 -0.4725
18791TIP3    H177864   3.361   0.055  48.388 -0.1137  0.3357  0.1947
18791TIP3    H277865   3.343   0.205  48.392  0.1043  0.3977 -0.9067
18792TIP3   OH277866   1.106   0.289  54.981  0.1791  0.1433  0.2195
18792TIP3    H177867   1.034   0.319  55.038 -0.3426  0.0284 -0.3714
18792TIP3    H277868   1.101   0.345  54.904 -0.5403 -1.1392 -0.7144
18793TIP3   OH277869   3.076   3.306   8.013  0.1969  0.1140 -0.5697
18793TIP3    H177870   3.166   3.338   8.013  0.2067  0.0956 -1.1757
18793TIP3    H277871   3.022   3.384   8.000  0.1560  0.0615 -0.7291
18794TIP3   OH277872   0.793   0.962   6.364  0.2160  0.4554 -0.4726
18794TIP3    H177873   0.867   0.908   6.337  0.5862  1.9530 -2.7584
18794TIP3    H277874   0.806   1.045   6.319 -1.8518  1.4496  0.6020
18795TIP3   OH277875   2.154   2.454  52.458 -0.3966  0.6802 -0.5751
18795TIP3    H177876   2.081   2.413  52.504 -0.6246  1.6863 -0.0106
18795TIP3    H277877   2.132   2.446  52.365 -1.0823  0.7159 -0.4173
18796TIP3   OH277878   0.108   0.874  64.304 -0.2041 -0.4704  0.1138
18796TIP3    H177879   0.037   0.811  64.298  1.7536 -2.7493 -0.9298
18796TIP3    H277880   0.141   0.882  64.214  2.6495 -1.8516  0.8923
18797TIP3   OH277881   1.145   0.950  48.597 -0.3619  0.2127  0.0266
18797TIP3    H177882   1.145   0.855  48.584 -0.5716  0.4577 -2.1902
18797TIP3    H277883   1.084   0.983  48.531  0.4159  1.9676  0.1278
18798TIP3   OH277884   0.850   0.557  52.659 -0.1889 -0.0495 -0.7307
18798TIP3    H177885   0.799   0.491  52.705 -2.5986  1.1974 -1.4512
18798TIP3    H277886   0.917   0.583  52.723 -1.0125 -1.0924  0.6254
18799TIP3   OH277887   2.283   0.883  45.133  0.3636 -0.4081 -0.0612
18799TIP3    H177888   2.300   0.844  45.048  0.6237 -0.7971  0.1652
18799TIP3    H277889   2.368   0.887  45.175  0.3862  0.7158 -0.2080
18800TIP3   OH277890   0.748   1.034   7.455 -0.1185  0.2049 -0.3557
18800TIP3    H177891   0.668   1.039   7.508 -0.3129  0.0603 -0.6318
18800TIP3    H277892   0.767   1.125   7.432 -0.2464  0.2340 -0.3485
18801TIP3   OH277893   2.264   1.107   3.789  0.2196  0.1149 -0.0522
18801TIP3    H177894   2.356   1.113   3.765  0.5277 -1.2469  0.6687
18801TIP3    H277895   2.236   1.197   3.803  2.0653  0.4546  1.9620
18802TIP3   OH277896   2.758   1.085  46.178 -0.2015  0.8184  0.3413
18802TIP3    H177897   2.769   1.007  46.124 -1.9271  0.9445 -0.2666
18802TIP3    H277898   2.671   1.075  46.217 -0.6221  2.6057 -0.0466
18803TIP3   OH277899   3.106   2.315  56.436 -0.1998  0.1343  0.0092
18803TIP3    H177900   3.020   2.281  56.409 -0.0703 -0.6749  0.5777
18803TIP3    H277901   3.128   2.264  56.514  0.2044  1.2461  0.6483
18804TIP3   OH277902   1.095   1.309  54.529  0.2761 -0.1843 -0.1563
18804TIP3    H177903   1.022   1.310  54.591  0.6641  0.1677  0.3025
18804TIP3    H277904   1.172   1.320  54.583  0.5460  1.3217 -0.8052
18805TIP3   OH277905   1.636   2.702  52.155  0.5281  0.0903  0.7773
18805TIP3    H177906   1.592   2.728  52.237 -1.5475 -1.7773  0.3610
18805TIP3    H277907   1.664   2.785  52.116 -1.8264  1.3693  1.5751
18806TIP3   OH277908   0.911   2.794  36.481  0.1709 -0.4361  0.6270
18806TIP3    H177909   0.919   2.799  36.385 -1.0618  0.4427  0.5485
18806TIP3    H277910   0.828   2.838  36.500 -0.5757 -2.3364  1.9613
18807TIP3   OH277911   3.449   2.943  54.206  0.0778  0.3996 -0.1705
18807TIP3    H177912   3.422   2.863  54.251  1.2164  0.0891 -0.0195
18807TIP3    H277913   3.371   2.998  54.207 -0.3246 -0.1630  0.9395
18808TIP3   OH277914   0.910   3.274  63.068  0.0076  0.1072  0.0101
18808TIP3    H177915   0.944   3.227  62.992  1.1089  0.0139  0.5432
18808TIP3    H277916   0.930   3.366  63.049 -0.8781  0.2287 -0.3886
18809TIP3   OH277917   3.414   1.132  47.193 -0.2117 -0.4416 -0.5348
18809TIP3    H177918   3.415   1.042  47.161  1.2617  0.0117 -1.8939
18809TIP3    H277919   3.469   1.181  47.131  1.3705  0.8343  1.6948
18810TIP3   OH277920   2.399   1.965   1.610 -0.5657 -0.3548 -0.1392
18810TIP3    H177921   2.400   1.872   1.632  1.0995 -0.3586 -0.0729
18810TIP3    H277922   2.351   1.970   1.527  2.0358 -1.7569 -1.8638
18811TIP3   OH277923   1.023   2.096  34.306  0.4916 -0.1997  0.0585
18811TIP3    H177924   0.962   2.021  34.307  0.6512 -0.5163  4.0954
18811TIP3    H277925   1.110   2.056  34.301  0.6809 -0.6585  3.9834
18812TIP3   OH277926   0.493   1.534  14.829 -1.2134 -0.3235 -0.3749
18812TIP3    H177927   0.476   1.461  14.889 -1.1255 -1.1017 -1.2664
18812TIP3    H277928   0.576   1.571  14.858 -1.8483  0.1897  0.8196
18813TIP3   OH277929   3.223   2.796   3.476  0.2525 -0.2140  0.0964
18813TIP3    H177930   3.262   2.709   3.467  2.5892  0.5681  1.5792
18813TIP3    H277931   3.217   2.829   3.386 -1.4882 -2.1510 -0.5834
18814TIP3   OH277932   2.811   1.501  59.553  0.1498  0.2120  0.5936
18814TIP3    H177933   2.845   1.478  59.639  0.1915 -1.1777  0.2187
18814TIP3    H277934   2.841   1.431  59.495 -0.6791  0.6297 -0.3747
18815TIP3   OH277935   0.656   1.887  56.065  0.1017 -0.4819 -0.0104
18815TIP3    H177936   0.703   1.968  56.044 -0.9436 -0.0004 -0.5617
18815TIP3    H277937   0.583   1.916  56.119  1.2404 -1.3953  2.1415
18816TIP3   OH277938   2.790   2.202  17.367 -0.3053  0.4698  0.0518
18816TIP3    H177939   2.811   2.292  17.393  0.0420  0.9825 -1.8657
18816TIP3    H277940   2.871   2.169  17.328 -0.0742 -1.1142  1.7320
18817TIP3   OH277941   2.340   0.682  42.815  0.2909  0.0811  0.0298
18817TIP3    H177942   2.413   0.688  42.754 -0.6426  0.6513 -1.0688
18817TIP3    H277943   2.350   0.759  42.871  0.4909  0.2005 -0.1661
18818TIP3   OH277944   2.111   3.067  13.686  0.2952  0.2875 -0.2059
18818TIP3    H177945   2.050   3.054  13.759  0.6481 -2.0979 -0.2753
18818TIP3    H277946   2.190   3.101  13.727 -0.0233  0.4123  0.3151
18819TIP3   OH277947   0.820   3.195   3.082 -0.0073  0.2594  0.0807
18819TIP3    H177948   0.807   3.290   3.077  0.0160  0.1991 -1.5727
18819TIP3    H277949   0.732   3.158   3.077 -0.0258  0.1837  0.8468
18820TIP3   OH277950   1.877   1.559  61.223 -0.2172  0.1170 -0.5273
18820TIP3    H177951   1.808   1.616  61.255 -0.1386 -0.0511 -0.0557
18820TIP3    H277952   1.920   1.526  61.301 -0.3632 -0.7182 -0.7865
18821TIP3   OH277953   3.264   0.921  16.199  0.3194 -0.0047 -0.4883
18821TIP3    H177954   3.307   0.951  16.279  1.3459  0.0423 -1.0438
18821TIP3    H277955   3.234   1.002  16.156 -0.5059 -0.0474 -0.0163
18822TIP3   OH277956   1.110   2.910  52.716 -0.7219  0.5719 -0.0661
18822TIP3    H177957   1.107   2.901  52.621 -0.2143  0.4298 -0.0735
18822TIP3    H277958   1.190   2.864  52.741 -1.0403  0.2999  0.4666
18823TIP3   OH277959   1.417   1.868   3.942  0.1608 -0.2314 -0.3576
18823TIP3    H177960   1.432   1.789   3.995 -0.0175  0.3977  0.6604
18823TIP3    H277961   1.477   1.933   3.978 -1.7076  0.9546  0.7779
18824TIP3   OH277962   1.223   1.123  44.976  0.2988 -0.1281  0.2165
18824TIP3    H177963   1.145   1.164  44.940 -0.4665 -1.6556  0.0650
18824TIP3    H277964   1.257   1.187  45.038 -2.2558 -0.2008  1.8424
18825TIP3   OH277965   0.079   3.327  50.077  0.0651  0.4028 -0.1492
18825TIP3    H177966   0.044   3.303  49.991 -1.5073  0.8024  0.3543
18825TIP3    H277967   0.053   3.418  50.090  0.3333  0.3702  0.7346
18826TIP3   OH277968   0.782   0.450   9.856 -0.1566 -0.4061 -0.3955
18826TIP3    H177969   0.783   0.546   9.856 -0.5716 -0.3895 -1.5912
18826TIP3    H277970   0.802   0.425   9.766  0.0749 -1.4562 -0.0702
18827TIP3   OH277971   2.064   2.446   6.576 -0.1424  0.5920  0.6497
18827TIP3    H177972   2.071   2.412   6.487 -0.3706  1.2739  0.3650
18827TIP3    H277973   1.974   2.477   6.583 -0.5620 -0.7411  1.6019
18828TIP3   OH277974   1.013   2.376  67.077 -0.1735 -0.2671 -0.2140
18828TIP3    H177975   1.055   2.356  67.160  0.0124 -0.2295 -0.2973
18828TIP3    H277976   0.926   2.336  67.084  0.0799 -0.8322 -0.2593
18829TIP3   OH277977   3.196   2.248  55.154  0.6615  0.1814 -0.6848
18829TIP3    H177978   3.170   2.261  55.245 -0.3122 -0.1599 -0.8991
18829TIP3    H277979   3.145   2.313  55.105 -0.5098 -1.0864 -1.2117
18830TIP3   OH277980   0.716   2.280   6.705  0.2312  0.2460  0.1301
18830TIP3    H177981   0.629   2.249   6.732  1.0485 -0.9461  1.5354
18830TIP3    H277982   0.757   2.310   6.787  2.9151 -3.6976  0.4856
18831TIP3   OH277983   1.709   0.277   1.467  0.2297 -0.7039 -0.2505
18831TIP3    H177984   1.687   0.370   1.476  1.3978 -0.4104 -0.2798
18831TIP3    H277985   1.700   0.258   1.374  2.1172 -0.0410 -0.5971
18832TIP3   OH277986   1.396   2.746  50.793 -0.1597  0.0450 -0.3062
18832TIP3    H177987   1.454   2.679  50.757 -2.0620 -2.2112  0.5213
18832TIP3    H277988   1.329   2.758  50.725 -0.3324  0.4160 -0.0704
18833TIP3   OH277989   0.843   1.412  14.420  0.5359  0.6458 -0.0796
18833TIP3    H177990   0.889   1.401  14.504 -0.3919 -0.3393  0.3222
18833TIP3    H277991   0.875   1.340  14.366  2.5562  2.3558 -1.2828
18834TIP3   OH277992   3.411   1.630  51.589  0.4870  0.1010 -0.0318
18834TIP3    H177993   3.446   1.717  51.571 -0.6000  0.7348  0.8229
18834TIP3    H277994   3.432   1.614  51.681  0.6258 -0.5302 -0.1617
18835TIP3   OH277995   0.484   1.600  28.774  0.6305 -0.3440  0.3798
18835TIP3    H177996   0.446   1.529  28.723 -0.8875 -0.0827  1.0940
18835TIP3    H277997   0.413   1.630  28.831  1.1640  1.8536 -0.0091
18836TIP3   OH277998   0.358   0.488  65.401  0.0883 -0.4944  0.0560
18836TIP3    H177999   0.266   0.488  65.374 -0.2431 -1.2900  1.1447
18836TIP3    H278000   0.388   0.578  65.383 -1.4430  0.3568  1.4945
18837TIP3   OH278001   1.869   2.087  25.991  0.6671  0.0544 -0.0857
18837TIP3    H178002   1.877   2.144  26.067  0.3377 -0.0581  0.0301
18837TIP3    H278003   1.817   2.138  25.928  0.2069 -0.1913  0.0908
18838TIP3   OH278004   1.763   0.335  17.966 -0.2113 -0.3376 -0.2253
18838TIP3    H178005   1.816   0.260  17.992  2.3850  1.9407  1.7100
18838TIP3    H278006   1.783   0.348  17.873  1.4089 -0.5254  0.0606
18839TIP3   OH278007   1.463   1.837  57.524 -0.1386  0.0429 -0.2745
18839TIP3    H178008   1.431   1.924  57.549 -2.6918 -0.1127 -2.5027
18839TIP3    H278009   1.540   1.854  57.470 -1.4332  1.1009 -1.8874
18840TIP3   OH278010   2.461   2.850  21.032  0.4903  0.2363 -0.1962
18840TIP3    H178011   2.378   2.829  21.075  1.2926  0.1225  1.3729
18840TIP3    H278012   2.528   2.827  21.097  1.8001 -0.5257 -1.7501
18841TIP3   OH278013   3.446   0.188  63.834 -0.3805  0.2567 -0.0432
18841TIP3    H178014   3.385   0.118  63.814  2.3940 -2.2136 -0.5299
18841TIP3    H278015   3.444   0.245  63.757 -0.3572 -1.1173 -1.0967
18842TIP3   OH278016   0.446   0.385  50.227 -0.5493  0.1444  0.1124
18842TIP3    H178017   0.529   0.359  50.266 -1.1139 -0.7611  0.7705
18842TIP3    H278018   0.446   0.342  50.141  0.4255  1.6376 -0.6826
18843TIP3   OH278019   0.008   0.344  52.169  0.3996  0.0241  0.0462
18843TIP3    H178020   0.061   0.421  52.145  0.8239 -0.4266 -0.4925
18843TIP3    H278021   0.043   0.316  52.253 -0.8376  1.3852  1.0606
18844TIP3   OH278022   1.926   2.746   7.304  0.4789  0.3501  0.9774
18844TIP3    H178023   1.956   2.787   7.223 -0.4613 -0.3839  0.2275
18844TIP3    H278024   1.832   2.767   7.308  0.4983  0.3016  1.8308
18845TIP3   OH278025   3.110   2.913  57.881 -0.6619  0.0977 -0.3348
18845TIP3    H178026   3.162   2.929  57.960 -1.7901  1.4764  0.1701
18845TIP3    H278027   3.173   2.918  57.810  0.4242 -1.4027  0.4463
18846TIP3   OH278028   2.921   2.872  46.053  0.8090 -0.1019  0.1514
18846TIP3    H178029   2.975   2.833  45.984  1.3828  1.0243 -0.0544
18846TIP3    H278030   2.981   2.880  46.128  0.8624  0.8805  0.0164
18847TIP3   OH278031   2.773   1.232  43.546 -0.0043  0.5254  0.5833
18847TIP3    H178032   2.711   1.164  43.573  0.6847 -0.4725 -0.2695
18847TIP3    H278033   2.858   1.187  43.543  0.4825  1.4554  0.1098
18848TIP3   OH278034   0.849   1.204  64.990 -0.7551 -0.2217 -0.1563
18848TIP3    H178035   0.919   1.211  65.055 -1.6249  1.6060  0.6742
18848TIP3    H278036   0.869   1.272  64.926 -1.3273 -0.2240 -0.3446
18849TIP3   OH278037   0.578   0.676  18.768  0.2429  0.0841 -0.5330
18849TIP3    H178038   0.482   0.677  18.766  0.1039  0.9332  2.1230
18849TIP3    H278039   0.600   0.592  18.806  0.3321  1.0213  1.6486
18850TIP3   OH278040   2.541   2.250  18.610 -0.4774  0.6433  0.3273
18850TIP3    H178041   2.507   2.340  18.607 -2.2771  0.0056  0.7265
18850TIP3    H278042   2.478   2.199  18.560  0.2241 -0.5229  0.6008
18851TIP3   OH278043   3.183   2.706  50.826  0.0640  0.0862 -0.3345
18851TIP3    H178044   3.140   2.625  50.853 -1.1684  1.0273  0.6385
18851TIP3    H278045   3.226   2.737  50.906 -0.7594  1.1696 -0.2992
18852TIP3   OH278046   2.269   1.423  10.456  0.3554  0.6190 -0.3200
18852TIP3    H178047   2.286   1.498  10.398  0.5406 -0.3650 -1.5870
18852TIP3    H278048   2.356   1.388  10.476  0.2498  0.5144 -0.0443
18853TIP3   OH278049   0.163   3.366  65.857 -0.4224 -0.3170  0.2019
18853TIP3    H178050   0.069   3.375  65.872 -0.0573 -0.1402  2.8616
18853TIP3    H278051   0.198   3.453  65.875  0.2213 -0.1260 -1.6935
18854TIP3   OH278052   3.274   1.516  62.091 -0.7656  0.1014 -0.0912
18854TIP3    H178053   3.236   1.561  62.016  1.4260 -1.2874 -2.2089
18854TIP3    H278054   3.205   1.458  62.122 -1.7459  0.7428 -0.9921
18855TIP3   OH278055   0.191   3.059  43.097 -0.2460  0.0883 -0.3659
18855TIP3    H178056   0.148   3.126  43.149 -0.2716 -0.3155  0.1388
18855TIP3    H278057   0.136   2.981  43.109 -0.7421  0.2035 -1.6799
18856TIP3   OH278058   0.729   0.263  59.998  0.4366 -0.0937 -0.1263
18856TIP3    H178059   0.789   0.218  60.058 -0.8214 -0.2309  1.0818
18856TIP3    H278060   0.668   0.195  59.969 -0.2630  0.3991  0.1442
18857TIP3   OH278061   1.766   2.922  46.970 -0.7875  1.0582  0.3103
18857TIP3    H178062   1.831   2.985  47.003  0.5744 -0.1556  0.0360
18857TIP3    H278063   1.716   2.897  47.047  0.6634  0.2072  1.0133
18858TIP3   OH278064   1.945   0.191   2.659  0.0852  0.1438  0.3209
18858TIP3    H178065   1.990   0.275   2.658 -0.0881  0.2416  0.5002
18858TIP3    H278066   1.871   0.204   2.719 -0.4729  0.1444 -0.3448
18859TIP3   OH278067   3.057   3.253  65.555  0.1723 -0.4348  0.1525
18859TIP3    H178068   3.151   3.269  65.546  0.6450 -2.2920  1.2255
18859TIP3    H278069   3.035   3.198  65.480  0.3904 -1.6056  0.9191
18860TIP3   OH278070   1.624   2.062   7.380  0.0652 -0.5143  0.1829
18860TIP3    H178071   1.596   2.154   7.380  1.9388  0.1499  2.0843
18860TIP3    H278072   1.630   2.039   7.287  0.6280  1.6441 -0.3827
18861TIP3   OH278073   0.629   1.690  21.856 -0.0368  0.0546  0.2469
18861TIP3    H178074   0.686   1.686  21.932  2.1235 -0.5564 -1.3196
18861TIP3    H278075   0.608   1.783  21.847  0.7483  0.2979  0.8212
18862TIP3   OH278076   2.182   0.557   3.201 -0.0861 -0.1491  0.8428
18862TIP3    H178077   2.125   0.622   3.242  1.5558  0.9363  1.5400
18862TIP3    H278078   2.215   0.601   3.123  1.2622  0.0155  1.4714
18863TIP3   OH278079   1.490   1.047   7.830  0.4283 -0.0508 -0.1166
18863TIP3    H178080   1.454   1.100   7.758  0.7543  0.1181 -0.1566
18863TIP3    H278081   1.452   1.086   7.909 -0.1426 -0.4066 -0.2149
18864TIP3   OH278082   0.585   3.019  45.322  0.0976  0.4011  0.1038
18864TIP3    H178083   0.670   3.054  45.349  0.0735  1.6825 -1.3051
18864TIP3    H278084   0.521   3.069  45.373  0.1433  0.1444  0.4201
18865TIP3   OH278085   0.068   1.469  21.099 -0.0592 -0.4884  0.6661
18865TIP3    H178086   0.140   1.408  21.082  2.2235  1.6704  1.9173
18865TIP3    H278087   0.005   1.417  21.151  2.1399 -1.6446  2.3619
18866TIP3   OH278088   2.591   1.448   2.780  0.4041 -0.4173  0.3087
18866TIP3    H178089   2.678   1.459   2.741  0.1178 -1.6917 -0.7494
18866TIP3    H278090   2.532   1.491   2.718 -0.3286 -4.4151 -2.0629
18867TIP3   OH278091   0.884   2.170   4.388 -0.1628  0.1573  0.4975
18867TIP3    H178092   0.820   2.214   4.331  1.2081  1.0719 -0.3895
18867TIP3    H278093   0.907   2.237   4.453 -0.2135 -0.2266  0.9125
18868TIP3   OH278094   0.286   0.846  56.804  0.0684  0.2250 -0.2808
18868TIP3    H178095   0.230   0.904  56.752  0.2076 -0.3041 -1.0414
18868TIP3    H278096   0.315   0.901  56.877 -0.1147  0.9938 -0.7684
18869TIP3   OH278097   3.346   1.698  10.470 -0.2842 -0.0988 -0.0107
18869TIP3    H178098   3.334   1.786  10.434  0.9429 -0.1330 -0.5420
18869TIP3    H278099   3.420   1.661  10.421  1.3117 -0.2362  2.3551
18870TIP3   OH278100   0.057   1.009  51.167  0.0850  0.0287 -0.0373
18870TIP3    H178101   0.075   0.921  51.135  1.2915 -0.5447  1.9708
18870TIP3    H278102  -0.021   1.038  51.119 -1.2953 -2.7515  0.3325
18871TIP3   OH278103   2.722   0.776  63.934  0.1033  0.2052  0.9989
18871TIP3    H178104   2.702   0.735  64.018  1.5061 -0.7260  0.9129
18871TIP3    H278105   2.644   0.826  63.912 -0.3187  0.4083  2.8186
18872TIP3   OH278106   1.207   2.544  20.517 -0.1181 -0.3607  0.0437
18872TIP3    H178107   1.284   2.538  20.461  0.6930  2.3754  0.7395
18872TIP3    H278108   1.133   2.544  20.456  0.6988  1.7433 -1.0598
18873TIP3   OH278109   3.195   3.066  21.884 -0.5761 -0.6278  0.2493
18873TIP3    H178110   3.235   3.149  21.857  0.5692 -1.0571  0.5848
18873TIP3    H278111   3.201   3.010  21.806 -1.6365 -0.3131 -0.0770
18874TIP3   OH278112   0.953   0.353  45.576 -0.0694 -0.1621  0.1424
18874TIP3    H178113   0.989   0.307  45.651  1.4507  0.2611 -0.2901
18874TIP3    H278114   0.909   0.430  45.613 -0.6292 -0.7331  0.6871
18875TIP3   OH278115   1.264   0.389  55.673  0.0848  0.1457 -0.0667
18875TIP3    H178116   1.335   0.340  55.714  0.5988  0.7194 -0.2609
18875TIP3    H278117   1.270   0.367  55.580 -0.1850 -0.0433 -0.0407
18876TIP3   OH278118   2.439   2.853   8.803  0.1889  0.2448  0.4099
18876TIP3    H178119   2.398   2.876   8.887  0.7101 -0.3889  0.8484
18876TIP3    H278120   2.477   2.766   8.818 -0.4073 -0.2340 -0.7292
18877TIP3   OH278121   1.143   3.384  39.362  0.6150 -0.3632 -0.5048
18877TIP3    H178122   1.182   3.389  39.274 -1.1261 -3.0239 -1.5444
18877TIP3    H278123   1.193   3.315  39.406 -1.4906 -2.4237 -1.1696
18878TIP3   OH278124   0.291   2.534  46.381  0.6126  0.6803 -0.5460
18878TIP3    H178125   0.376   2.535  46.424  0.2276  1.9698  0.2308
18878TIP3    H278126   0.299   2.597  46.310  0.4968  0.3383 -0.8680
18879TIP3   OH278127   2.579   3.110  50.927  0.4740 -0.9935 -0.0381
18879TIP3    H178128   2.503   3.063  50.960 -0.9719  2.5622  2.2846
18879TIP3    H278129   2.543   3.172  50.864  1.1370  1.3542  1.7431
18880TIP3   OH278130   2.770   1.627  55.767 -0.1567  0.1244  0.1126
18880TIP3    H178131   2.784   1.538  55.736 -0.3958  0.0008  0.3591
18880TIP3    H278132   2.827   1.635  55.844  1.0343  0.6811 -0.7923
18881TIP3   OH278133   0.598   1.219  59.992  0.3083  0.4440  0.4884
18881TIP3    H178134   0.666   1.155  59.970  0.8693  1.6583 -1.5476
18881TIP3    H278135   0.644   1.285  60.044  0.4788  0.7764 -0.0761
18882TIP3   OH278136   2.017   1.387  51.371  0.2236 -0.0794 -0.3950
18882TIP3    H178137   2.045   1.478  51.372 -1.7312  0.5727 -1.0127
18882TIP3    H278138   1.922   1.391  51.358 -0.1933 -2.1519  1.5119
18883TIP3   OH278139   3.226   2.833  56.241 -0.1649  0.4956 -0.4680
18883TIP3    H178140   3.177   2.862  56.165  0.0036  0.9734 -0.3999
18883TIP3    H278141   3.318   2.833  56.213 -0.1848 -0.2686 -0.5566
18884TIP3   OH278142   3.126   3.096  21.274 -0.3652  0.1341  0.0110
18884TIP3    H178143   3.218   3.070  21.274 -0.2294  0.5915  0.8908
18884TIP3    H278144   3.123   3.172  21.216 -0.3705 -0.4512 -0.7778
18885TIP3   OH278145   2.806   3.353  51.711 -0.8305  0.0142  0.1819
18885TIP3    H178146   2.894   3.387  51.694 -1.2664 -0.0263 -2.6198
18885TIP3    H278147   2.787   3.378  51.801  1.4110  1.4397  0.3247
18886TIP3   OH278148   1.050   3.168  59.159  0.2263 -0.0197 -0.2997
18886TIP3    H178149   1.051   3.099  59.093  0.5902 -0.0702 -0.2433
18886TIP3    H278150   1.038   3.123  59.242 -1.3842  0.1239 -0.4124
18887TIP3   OH278151   0.982   2.835   8.364  0.8895  0.3818  0.1860
18887TIP3    H178152   1.077   2.834   8.376  0.8538  2.1475  0.9064
18887TIP3    H278153   0.958   2.743   8.358  2.2301 -0.3082  3.4927
18888TIP3   OH278154   0.340   2.956  13.979 -0.1166 -0.2798 -0.1124
18888TIP3    H178155   0.378   2.900  13.911  0.0425 -0.2543 -0.0449
18888TIP3    H278156   0.265   2.998  13.936 -0.7400 -1.1733  0.0797
18889TIP3   OH278157   0.745   3.207   5.877 -0.2318  0.1322  0.2331
18889TIP3    H178158   0.770   3.115   5.881  0.1652  0.2668  1.0590
18889TIP3    H278159   0.803   3.245   5.812 -0.9873 -0.3739 -0.7602
18890TIP3   OH278160   0.275   0.972  14.683 -0.1051 -0.0716  0.1922
18890TIP3    H178161   0.233   0.911  14.743 -0.4502  1.1183  1.1914
18890TIP3    H278162   0.250   1.058  14.714 -0.2849  0.5969 -1.6747
18891TIP3   OH278163   3.143   0.783  49.521  0.7660  0.4505  0.0724
18891TIP3    H178164   3.197   0.826  49.588 -0.7859  0.4889  1.3765
18891TIP3    H278165   3.111   0.855  49.467  0.2886  0.6713  0.6366
18892TIP3   OH278166   1.765   1.248  58.839  0.1454  0.1786  0.5860
18892TIP3    H178167   1.855   1.281  58.832  0.5231 -0.8114  0.7096
18892TIP3    H278168   1.773   1.165  58.884 -0.7221 -0.4263 -0.3377
18893TIP3   OH278169   2.810   0.936  45.015 -0.3474  0.1095 -0.1505
18893TIP3    H178170   2.819   1.030  45.001  1.3807  0.7558  3.8808
18893TIP3    H278171   2.852   0.896  44.939 -0.8447  2.5317 -1.8177
18894TIP3   OH278172   2.176   0.307  13.710  0.6207 -0.2164 -0.1628
18894TIP3    H178173   2.115   0.255  13.658  0.9933 -0.9370  0.0990
18894TIP3    H278174   2.228   0.242  13.758  1.4240  0.3825 -0.1938
18895TIP3   OH278175   1.591   0.519  49.672  0.2205 -0.0969 -0.5000
18895TIP3    H178176   1.678   0.479  49.667  0.8408  1.2812 -1.0590
18895TIP3    H278177   1.582   0.546  49.763  1.1679  1.4310 -0.8320
18896TIP3   OH278178   2.781   0.619  15.620 -0.0398 -0.2999  0.4187
18896TIP3    H178179   2.823   0.573  15.692  0.3537  0.1289  0.4624
18896TIP3    H278180   2.742   0.549  15.567  1.2158 -0.7470  0.0580
18897TIP3   OH278181   1.291   1.083   3.295 -0.1296  0.2479 -0.5863
18897TIP3    H178182   1.227   1.141   3.252  0.9161  0.3496 -2.0538
18897TIP3    H278183   1.334   1.140   3.358 -0.8393  0.4136 -0.2336
18898TIP3   OH278184   0.510   1.842  54.365  0.2146 -0.6577 -0.5889
18898TIP3    H178185   0.599   1.812  54.348 -0.1532 -2.6333  0.6570
18898TIP3    H278186   0.488   1.807  54.452 -0.5358  2.7844  0.7937
18899TIP3   OH278187   2.442   2.611  49.424 -0.4899  0.1581  0.2852
18899TIP3    H178188   2.397   2.543  49.374 -0.7230  1.0886 -0.8064
18899TIP3    H278189   2.418   2.594  49.515 -0.5182 -1.2265  0.0356
18900TIP3   OH278190   2.622   1.221   9.880  0.7713 -0.3330 -0.1267
18900TIP3    H178191   2.712   1.248   9.860 -0.1657  0.9030 -3.0889
18900TIP3    H278192   2.633   1.141   9.932  3.5578  0.6337  0.9974
18901TIP3   OH278193   2.690   1.251  16.682  0.0818 -0.4559 -0.0295
18901TIP3    H178194   2.605   1.240  16.640  0.8435 -0.9991 -1.5498
18901TIP3    H278195   2.752   1.250  16.609  1.4230 -0.5585  1.0711
18902TIP3   OH278196   1.853   2.904   9.678 -0.6132 -0.0870  0.7411
18902TIP3    H178197   1.917   2.866   9.738  0.3671  0.8502  0.3122
18902TIP3    H278198   1.881   2.994   9.667  0.7304 -0.7686 -3.0092
18903TIP3   OH278199   2.474   2.100   7.942  0.0294 -0.4594  0.6082
18903TIP3    H178200   2.456   2.025   7.998  1.1349 -0.8693  0.4516
18903TIP3    H278201   2.487   2.173   8.003 -0.1977 -0.5854  0.8052
18904TIP3   OH278202   0.650   1.096  45.775  0.0500 -0.1333 -0.0505
18904TIP3    H178203   0.693   1.040  45.710  2.4124  0.0151  1.2736
18904TIP3    H278204   0.714   1.166  45.791 -1.4752  1.1226  0.7293
18905TIP3   OH278205   1.473   0.532  66.891  0.5326  0.2397  0.4420
18905TIP3    H178206   1.506   0.589  66.960 -1.5928 -0.8987  2.5416
18905TIP3    H278207   1.543   0.468  66.877  0.6464 -0.0995  2.3179
18906TIP3   OH278208   3.246   1.825   5.288  0.5264 -0.0027  0.1297
18906TIP3    H178209   3.239   1.899   5.228  1.8199 -0.1170 -0.1997
18906TIP3    H278210   3.184   1.761   5.255 -1.2449  1.2311  0.9173
18907TIP3   OH278211   2.359   1.907  50.069 -0.0129 -0.1589 -0.0669
18907TIP3    H178212   2.430   1.905  50.005  0.2499 -0.9825  0.2483
18907TIP3    H278213   2.317   1.821  50.063 -0.0814 -0.1935  0.7605
18908TIP3   OH278214   0.865   3.104  63.911  0.1928 -0.2613  0.4351
18908TIP3    H178215   0.800   3.056  63.963  2.5046 -1.3596  2.5476
18908TIP3    H278216   0.940   3.111  63.969  1.5725  1.9802 -1.4890
18909TIP3   OH278217   2.484   2.050  21.308 -0.1638 -0.5733  0.4960
18909TIP3    H178218   2.506   2.030  21.217  1.2826 -0.5584  0.8120
18909TIP3    H278219   2.568   2.071  21.349 -0.8102 -0.3745  1.7910
18910TIP3   OH278220   2.353   2.047  50.467 -0.3826 -0.0090 -0.7102
18910TIP3    H178221   2.396   2.105  50.403 -0.5294  0.9943  0.0624
18910TIP3    H278222   2.338   2.104  50.543  0.9330 -1.4645  0.7105
18911TIP3   OH278223   2.654   1.806  45.664  0.0196 -0.0189  0.1643
18911TIP3    H178224   2.565   1.834  45.641 -0.1323 -1.7297 -1.5849
18911TIP3    H278225   2.641   1.735  45.727  0.1966  0.4194  0.6953
18912TIP3   OH278226   1.498   2.020  21.150 -0.3241  0.4474  0.1308
18912TIP3    H178227   1.474   2.094  21.205  0.8474  0.9197  0.0298
18912TIP3    H278228   1.545   2.059  21.076 -1.1645 -0.2431 -0.8057
18913TIP3   OH278229   2.709   0.674  67.462  0.1474 -0.0946  0.3693
18913TIP3    H178230   2.731   0.637  67.377 -1.2290  4.3217 -2.2334
18913TIP3    H278231   2.790   0.716  67.492  0.2359 -0.3344  0.4643
18914TIP3   OH278232   2.691   3.146  57.241  0.1589  0.0961 -0.1536
18914TIP3    H178233   2.661   3.237  57.237  0.2913  0.1299 -0.4186
18914TIP3    H278234   2.644   3.108  57.315 -2.8650 -0.7062 -2.2868
18915TIP3   OH278235   3.221   1.485  54.178 -0.1985 -0.1577 -0.4650
18915TIP3    H178236   3.305   1.450  54.209 -1.2424 -0.2393  2.5957
18915TIP3    H278237   3.195   1.548  54.245 -2.2886  0.3773 -1.6876
18916TIP3   OH278238   0.465   1.396  51.108 -0.5377 -0.4716  0.2051
18916TIP3    H178239   0.375   1.428  51.107 -0.5215 -0.4146  0.5431
18916TIP3    H278240   0.477   1.355  51.022 -0.2727  1.2244 -0.5980
18917TIP3   OH278241   0.579   1.379  49.811  0.4123  0.4136  0.0348
18917TIP3    H178242   0.581   1.284  49.822  0.7856  0.4432  0.2147
18917TIP3    H278243   0.659   1.399  49.762  2.8844  1.1561  3.9631
18918TIP3   OH278244   1.014   0.034  38.823 -0.4843 -0.1842 -0.0843
18918TIP3    H178245   1.046  -0.035  38.765  0.2754 -0.1891  0.3275
18918TIP3    H278246   0.936   0.069  38.779 -1.1384 -1.5906 -0.0865
18919TIP3   OH278247   0.193   2.760  17.563 -0.5615  1.0787 -0.0431
18919TIP3    H178248   0.118   2.817  17.577 -0.3631  1.3159  0.0726
18919TIP3    H278249   0.264   2.820  17.538 -0.5389  0.8109 -0.6482
18920TIP3   OH278250   0.592   0.544  64.432  0.0858  0.4295 -0.0876
18920TIP3    H178251   0.530   0.611  64.460 -0.3237 -0.0523  0.1936
18920TIP3    H278252   0.675   0.569  64.473  0.0911  1.0981 -0.5035
18921TIP3   OH278253   3.323   0.567  63.940 -0.0889  0.8530 -0.0889
18921TIP3    H178254   3.243   0.514  63.930 -0.0836  0.5475  1.3131
18921TIP3    H278255   3.392   0.503  63.958  0.3637  1.1654 -0.6833
18922TIP3   OH278256   3.024   2.702  19.104  0.3847  0.0184  0.0945
18922TIP3    H178257   2.966   2.775  19.126 -0.6149 -0.5860 -0.5075
18922TIP3    H278258   3.089   2.702  19.175  0.1180  1.1761  0.3669
18923TIP3   OH278259   0.802   1.256  51.019  0.0822  0.5467  0.0084
18923TIP3    H178260   0.737   1.310  50.976  0.5567  2.0605  1.0789
18923TIP3    H278261   0.846   1.209  50.948  0.2668  2.2864 -1.0910
18924TIP3   OH278262   0.711   1.434   4.554 -0.0249  0.5013  0.6271
18924TIP3    H178263   0.747   1.520   4.536 -0.0419 -0.0541 -2.7150
18924TIP3    H278264   0.763   1.400   4.627  0.6655  2.8837  1.3130
18925TIP3   OH278265   0.126   3.013  53.278 -0.8545  0.0840 -0.0861
18925TIP3    H178266   0.057   2.983  53.337  0.2575 -1.8692  0.3304
18925TIP3    H278267   0.205   3.017  53.332 -0.4274  1.3646 -0.7511
18926TIP3   OH278268   1.379   1.219  60.131  0.0797  0.1422  0.0171
18926TIP3    H178269   1.347   1.189  60.046 -0.2888  2.6156 -0.8003
18926TIP3    H278270   1.462   1.262  60.111  1.0641 -1.0917  1.2664
18927TIP3   OH278271   0.216   0.201  64.001 -0.7310 -0.3148  0.1736
18927TIP3    H178272   0.159   0.228  63.928 -1.2988 -0.3001  0.6192
18927TIP3    H278273   0.162   0.211  64.079 -0.1793 -0.4932  0.5847
18928TIP3   OH278274   1.650   1.244   8.305  0.2526 -0.3793 -0.1798
18928TIP3    H178275   1.715   1.207   8.247 -0.6631 -0.7508 -0.9960
18928TIP3    H278276   1.687   1.328   8.333  1.1294 -0.6514 -0.5127
18929TIP3   OH278277   2.924   2.749   1.396  0.3453 -0.7955 -0.3417
18929TIP3    H178278   2.855   2.813   1.379  0.9260 -0.4059 -1.3767
18929TIP3    H278279   3.005   2.794   1.371  0.8800 -1.5375  0.0120
18930TIP3   OH278280   1.392   1.027  48.464 -0.4026  0.7413  0.4964
18930TIP3    H178281   1.328   0.964  48.498 -0.2207 -1.1343 -2.2701
18930TIP3    H278282   1.473   0.977  48.454  0.8307  2.4173  1.5546
18931TIP3   OH278283   0.941   3.383  36.691  0.0162  0.3435 -0.2102
18931TIP3    H178284   0.900   3.301  36.718  0.7038  0.2696  0.6750
18931TIP3    H278285   0.976   3.420  36.773  2.2139  0.1052 -0.9637
18932TIP3   OH278286   0.194   3.428   6.472 -0.2926  0.4644 -0.2418
18932TIP3    H178287   0.232   3.492   6.532 -0.8835  0.9333 -0.3536
18932TIP3    H278288   0.258   3.421   6.401  0.3380  0.0207  0.3555
18933TIP3   OH278289   2.916   1.186  53.491  0.2658 -0.0017  0.2117
18933TIP3    H178290   2.981   1.256  53.484  0.3088 -0.1418 -0.9643
18933TIP3    H278291   2.835   1.224  53.457  0.3124 -0.5488 -0.5177
18934TIP3   OH278292   0.503   1.065  38.510  0.3873  0.5976  0.5213
18934TIP3    H178293   0.456   1.011  38.447  1.6556 -0.1892  0.2164
18934TIP3    H278294   0.482   1.026  38.595  0.9707 -0.1424  0.3370
18935TIP3   OH278295   0.213   1.001  30.769  0.1860  0.8404 -0.3331
18935TIP3    H178296   0.218   0.975  30.677  3.1395  1.3851 -0.4217
18935TIP3    H278297   0.258   0.931  30.816 -1.4305  0.4874  0.7873
18936TIP3   OH278298   0.866   0.137   8.738 -0.1346 -0.3433  0.2716
18936TIP3    H178299   0.791   0.130   8.797 -0.9946 -0.2648 -0.7783
18936TIP3    H278300   0.921   0.062   8.760 -0.7363 -0.6498  0.7685
18937TIP3   OH278301   1.985   0.206  65.350 -0.2431 -0.0367  0.1662
18937TIP3    H178302   2.020   0.159  65.275  1.7178  2.4410 -0.6226
18937TIP3    H278303   1.915   0.261  65.315  0.8596  1.3334  0.0012
18938TIP3   OH278304   1.839   0.142  57.512 -0.1298 -0.4444  0.0151
18938TIP3    H178305   1.922   0.176  57.477  0.3507 -0.8451  0.7441
18938TIP3    H278306   1.793   0.108  57.435 -0.2193  0.9952 -0.5948
18939TIP3   OH278307   0.210   0.182  11.057  0.2433  0.1359 -0.1079
18939TIP3    H178308   0.117   0.181  11.081  0.1401 -0.6346 -0.5059
18939TIP3    H278309   0.229   0.274  11.039 -0.0893  0.5088  1.2973
18940TIP3   OH278310   0.613   3.409   6.399 -0.4005  0.0037  0.1058
18940TIP3    H178311   0.630   3.407   6.493  0.2360 -0.5221 -0.0167
18940TIP3    H278312   0.694   3.442   6.361  0.2133 -1.9869 -0.4353
18941TIP3   OH278313   1.793   2.850  44.727 -0.1124 -0.1120  0.0583
18941TIP3    H178314   1.858   2.878  44.662  1.2625 -1.3059  0.8630
18941TIP3    H278315   1.758   2.932  44.762  1.8230  0.6150  0.4278
18942TIP3   OH278316   0.807   3.130  62.553  0.0582  0.0567  0.1738
18942TIP3    H178317   0.732   3.144  62.610  1.7002  0.1957  2.4575
18942TIP3    H278318   0.824   3.217  62.514 -1.2783 -0.1176 -0.8626
18943TIP3   OH278319   0.002   2.045  18.736  0.2028  0.1690  0.1437
18943TIP3    H178320   0.019   2.008  18.823 -0.3949 -1.1850 -0.2919
18943TIP3    H278321  -0.088   2.077  18.741  0.2997  0.4483  0.1325
18944TIP3   OH278322   0.946   1.969  15.349  0.0831  0.1140  0.2533
18944TIP3    H178323   0.877   1.934  15.406 -0.9738 -1.4585 -1.8418
18944TIP3    H278324   1.016   1.905  15.354 -0.2128 -0.2886 -0.5325
18945TIP3   OH278325   1.454   0.186  63.495  0.1274  0.2368  0.4145
18945TIP3    H178326   1.395   0.200  63.569  1.6810  3.5778  1.2058
18945TIP3    H278327   1.511   0.115  63.523 -0.9075 -0.2546  1.3310
18946TIP3   OH278328   2.589   2.483  61.352 -0.4498  0.0779 -0.4042
18946TIP3    H178329   2.495   2.493  61.363 -0.7138 -0.8901 -1.4869
18946TIP3    H278330   2.598   2.402  61.301  1.1921 -2.8989  3.9889
18947TIP3   OH278331   1.522   2.059  50.604 -0.4668 -0.0793 -0.0135
18947TIP3    H178332   1.578   1.989  50.637  1.4644  0.8150 -1.2056
18947TIP3    H278333   1.454   2.068  50.671  2.3099  0.5714  3.0169
18948TIP3   OH278334   1.349   1.518  11.377  0.0722 -0.1557  0.2030
18948TIP3    H178335   1.334   1.570  11.456  3.2096  2.2915 -0.6034
18948TIP3    H278336   1.443   1.503  11.375  0.1172 -0.2527 -2.9827
18949TIP3   OH278337   3.175   2.606  19.309  0.4489 -0.6505  0.2385
18949TIP3    H178338   3.242   2.639  19.370  0.7234 -0.8416  0.0460
18949TIP3    H278339   3.182   2.511  19.316  2.1699 -0.7721 -1.8402
18950TIP3   OH278340   2.572   2.881  64.185 -0.5344 -0.2645  0.0645
18950TIP3    H178341   2.644   2.847  64.132 -2.2934 -1.1329 -1.8816
18950TIP3    H278342   2.540   2.805  64.234 -0.1401  0.1294  0.9597
18951TIP3   OH278343   0.327   1.977  22.585  0.1715 -0.1516 -0.2587
18951TIP3    H178344   0.252   1.936  22.626  0.2502  1.4922  1.7213
18951TIP3    H278345   0.398   1.914  22.596 -0.6034 -1.1860 -1.0180
18952TIP3   OH278346   2.151   2.074  44.344  0.1262  0.1477 -0.2421
18952TIP3    H178347   2.181   2.078  44.435  0.9522 -0.2134 -0.4905
18952TIP3    H278348   2.057   2.059  44.350  0.2240 -0.1719  0.5552
18953TIP3   OH278349   0.348   3.083   6.191  0.2594  0.3665 -0.1350
18953TIP3    H178350   0.364   3.173   6.161  0.0236  0.2015 -0.7777
18953TIP3    H278351   0.257   3.066   6.168  0.2291  0.0456  0.2135
18954TIP3   OH278352   3.279   0.654  13.641  0.3698  0.1509 -0.2526
18954TIP3    H178353   3.239   0.701  13.714  1.9181 -0.0642  0.7804
18954TIP3    H278354   3.332   0.586  13.682 -1.0510 -1.9621 -1.6765
18955TIP3   OH278355   0.900   2.276  46.086 -0.3151 -0.2387 -0.5985
18955TIP3    H178356   0.986   2.282  46.126  0.1501 -0.7797 -1.4744
18955TIP3    H278357   0.870   2.366  46.078  0.3148 -0.0255 -0.5892
18956TIP3   OH278358   0.967   0.388  62.188  0.1691  0.4962 -0.0916
18956TIP3    H178359   0.987   0.296  62.169  0.6782  0.6190 -0.1730
18956TIP3    H278360   0.972   0.394  62.284  0.3579  0.4822 -0.0995
18957TIP3   OH278361   1.414   3.326  47.053  0.1955 -0.1507 -0.2566
18957TIP3    H178362   1.409   3.416  47.021 -1.5720 -0.2537 -0.3503
18957TIP3    H278363   1.426   3.335  47.147 -0.9468  0.2160 -0.1300
18958TIP3   OH278364   2.760   3.426  45.588  0.5962  0.5202  0.4613
18958TIP3    H178365   2.763   3.409  45.494  1.8755  1.6984  0.2585
18958TIP3    H278366   2.773   3.340  45.628  0.5774  0.0869 -0.4364
18959TIP3   OH278367   0.677   2.231  63.388  0.0179 -0.0158 -0.7356
18959TIP3    H178368   0.715   2.196  63.469  1.2411  0.8987 -0.8862
18959TIP3    H278369   0.610   2.167  63.364  0.5042 -0.9660  0.3141
18960TIP3   OH278370   3.386   0.071  66.183  0.0071  0.1283 -0.3552
18960TIP3    H178371   3.302   0.059  66.228 -0.3960 -0.1811 -1.1680
18960TIP3    H278372   3.382   0.012  66.108  0.5174  0.8824 -0.9963
18961TIP3   OH278373   3.149   0.125  64.118 -0.1387 -0.8925 -0.1592
18961TIP3    H178374   3.123   0.193  64.180 -2.1018 -0.6866 -1.1505
18961TIP3    H278375   3.232   0.092  64.152  0.4520  1.4004  0.8140
18962TIP3   OH278376   2.410   1.094   5.981 -0.0810  0.2432 -0.2575
18962TIP3    H178377   2.481   1.064   6.039 -0.1900  0.1957 -0.1478
18962TIP3    H278378   2.430   1.186   5.965  0.1300  0.1716 -0.4105
18963TIP3   OH278379   2.790   0.023  56.084  0.0440 -0.9151 -0.5786
18963TIP3    H178380   2.845   0.099  56.099  1.9192 -2.1332 -0.8327
18963TIP3    H278381   2.754   0.001  56.170 -0.6624  0.3385 -0.5444
18964TIP3   OH278382   1.878   1.323   3.900  0.0840 -0.1642 -0.1792
18964TIP3    H178383   1.918   1.248   3.855 -0.1798  0.0722 -0.8263
18964TIP3    H278384   1.792   1.332   3.858 -0.6585 -0.6625  1.1736
18965TIP3   OH278385   1.220   2.130   4.559  0.1523 -0.4482 -0.3878
18965TIP3    H178386   1.235   2.211   4.608 -2.0979 -0.5188  0.5366
18965TIP3    H278387   1.199   2.065   4.626 -0.2383 -1.2497 -1.2617
18966TIP3   OH278388   2.609   1.802  63.235 -0.2406  0.0867  0.5007
18966TIP3    H178389   2.597   1.886  63.190  1.9669 -0.6953 -1.8010
18966TIP3    H278390   2.574   1.737  63.174  2.5662 -0.9836 -0.1171
18967TIP3   OH278391   0.881   0.550  19.245  1.1571 -0.4075  0.2129
18967TIP3    H178392   0.925   0.519  19.324  0.8021 -0.7103  0.2951
18967TIP3    H278393   0.788   0.543  19.265  1.0440 -1.3268 -0.5388
18968TIP3   OH278394   0.287   0.895  66.297 -0.2240 -0.6706  0.1828
18968TIP3    H178395   0.313   0.943  66.219 -0.1253 -0.5289  0.3015
18968TIP3    H278396   0.282   0.962  66.366 -1.0100 -0.6812  0.1378
18969TIP3   OH278397   0.212   1.365   8.298  0.4364  0.2588  0.0780
18969TIP3    H178398   0.298   1.331   8.274 -0.1003 -1.8231  0.9161
18969TIP3    H278399   0.163   1.366   8.215  0.5514 -0.8432 -0.0197
18970TIP3   OH278400   0.843   1.724  50.189 -0.0843 -0.0842 -0.3644
18970TIP3    H178401   0.796   1.651  50.149  2.0990 -1.4766 -0.5117
18970TIP3    H278402   0.850   1.789  50.120  0.6505 -1.0527 -1.2381
18971TIP3   OH278403   0.621   0.530  52.238 -0.0407 -0.0418  0.1132
18971TIP3    H178404   0.622   0.623  52.217  2.6136 -0.2628 -1.1657
18971TIP3    H278405   0.713   0.502  52.229 -0.7146 -2.7345  0.6207
18972TIP3   OH278406   2.449   2.954  63.158  0.1532  0.5269 -0.2038
18972TIP3    H178407   2.383   2.888  63.138  0.8744 -0.6558  1.1219
18972TIP3    H278408   2.400   3.036  63.168 -1.2440 -0.4788  1.5896
18973TIP3   OH278409   2.719   3.248  20.780 -0.3411 -0.5169 -0.5997
18973TIP3    H178410   2.811   3.247  20.754 -0.4841 -0.5171 -1.1139
18973TIP3    H278411   2.719   3.216  20.870  0.2126 -0.0652 -0.4301
18974TIP3   OH278412   2.945   3.174  60.536 -0.0777 -0.0514 -0.6288
18974TIP3    H178413   2.898   3.156  60.454 -1.9085 -0.9441  0.5409
18974TIP3    H278414   2.941   3.092  60.584  0.1416  0.7113  0.7331
18975TIP3   OH278415   1.533   2.466   5.309 -0.3469  0.0985 -0.6717
18975TIP3    H178416   1.600   2.534   5.317  0.2334 -0.5446  0.0437
18975TIP3    H278417   1.474   2.481   5.384 -0.8977  0.5377 -1.1836
18976TIP3   OH278418   0.007   3.100   4.695 -0.0430  0.1470 -0.5916
18976TIP3    H178419  -0.057   3.170   4.687 -0.2776 -0.1328 -1.2217
18976TIP3    H278420   0.084   3.142   4.733  1.0009  1.5328 -3.9039
18977TIP3   OH278421   3.186   2.843   4.753 -0.7019  0.3931 -0.1595
18977TIP3    H178422   3.264   2.874   4.798 -0.3095  0.1112 -0.6399
18977TIP3    H278423   3.205   2.752   4.731 -0.6984  0.6602 -1.3208
18978TIP3   OH278424   0.432   1.061  44.842 -0.6737  0.6799 -0.1387
18978TIP3    H178425   0.381   0.983  44.820 -0.5747  0.4082  0.5712
18978TIP3    H278426   0.369   1.119  44.885 -0.4370  0.4157  0.5811
18979TIP3   OH278427   0.184   1.665  54.784  0.0742 -0.8434  0.4503
18979TIP3    H178428   0.157   1.718  54.708 -0.1190 -2.8239 -0.9333
18979TIP3    H278429   0.265   1.706  54.814 -0.3166  0.5130 -0.2607
18980TIP3   OH278430   2.900   2.158  50.431 -0.3765  0.3612  0.0281
18980TIP3    H178431   2.980   2.111  50.409 -0.2783  1.1329 -1.3966
18980TIP3    H278432   2.926   2.250  50.435 -1.0397  0.5466  0.3691
18981TIP3   OH278433   3.171   1.868  15.912  0.3468  0.1618  0.3292
18981TIP3    H178434   3.170   1.946  15.968 -0.6174  0.3556  0.0614
18981TIP3    H278435   3.116   1.805  15.957  0.2373  0.0243  0.0010
18982TIP3   OH278436   1.310   1.610  65.194  0.0946  0.0710 -0.1786
18982TIP3    H178437   1.315   1.594  65.099  0.7220 -0.2329 -0.1010
18982TIP3    H278438   1.265   1.694  65.202 -0.9478 -0.4144 -0.7077
18983TIP3   OH278439   0.190   0.023  13.616 -0.3860  0.0481 -0.4790
18983TIP3    H178440   0.145  -0.013  13.540 -1.6888  1.1127 -0.2309
18983TIP3    H278441   0.272   0.058  13.581  0.7237 -2.5781 -0.8202
18984TIP3   OH278442   2.915   0.892  63.815 -0.3065  0.4927 -0.2571
18984TIP3    H178443   2.851   0.848  63.872 -0.3269  0.7241 -0.0994
18984TIP3    H278444   2.968   0.821  63.780  0.9401  0.4431  1.5453
18985TIP3   OH278445   1.405   3.103   0.708 -0.0746 -0.0816  0.1536
18985TIP3    H178446   1.352   3.163   0.656  0.8160 -0.8073 -1.6544
18985TIP3    H278447   1.345   3.035   0.736 -0.5831  0.3711  0.1813
18986TIP3   OH278448   0.046   1.951  16.217  0.0082  0.1275 -0.2161
18986TIP3    H178449   0.048   1.861  16.249 -0.3635  0.6712  1.3925
18986TIP3    H278450   0.043   1.941  16.121  1.3973 -1.5342 -0.1432
18987TIP3   OH278451   1.289   1.642  43.321 -0.1571  0.8108  0.1921
18987TIP3    H178452   1.199   1.660  43.292 -0.2052 -0.2918 -0.4293
18987TIP3    H278453   1.281   1.622  43.414 -0.8644 -1.0610 -0.2196
18988TIP3   OH278454   3.316   2.995  52.939  0.7216  0.1332 -0.2569
18988TIP3    H178455   3.411   3.004  52.933  0.7297  2.0875  1.5694
18988TIP3    H278456   3.295   2.926  52.877  3.5300 -1.6915  0.6028
18989TIP3   OH278457   0.094   1.877  46.761 -0.5559  0.8186  0.6743
18989TIP3    H178458   0.087   1.921  46.677 -2.2020  0.9112  0.8205
18989TIP3    H278459   0.180   1.902  46.795 -0.9615  2.9776  0.2243
18990TIP3   OH278460   2.283   3.365   6.422 -0.1328 -0.4045 -0.0929
18990TIP3    H178461   2.280   3.338   6.514  1.1744  1.6888  0.6560
18990TIP3    H278462   2.356   3.426   6.418 -1.3190  1.0087 -2.1095
18991TIP3   OH278463   1.070   2.733  19.277  0.2993 -0.7538  0.1769
18991TIP3    H178464   1.007   2.748  19.207  0.8078 -0.3890 -0.2080
18991TIP3    H278465   1.147   2.784  19.252  0.3481 -0.3092  1.1906
18992TIP3   OH278466   0.093   2.842  57.632 -0.8150 -0.0910  0.1080
18992TIP3    H178467   0.170   2.785  57.641 -0.6814 -0.0712 -0.7752
18992TIP3    H278468   0.107   2.911  57.697  0.4267  0.4590 -0.6888
18993TIP3   OH278469   0.188   1.070  12.432 -0.0282  0.4868 -0.1339
18993TIP3    H178470   0.148   1.152  12.402 -0.0481  0.2300 -0.8252
18993TIP3    H278471   0.173   1.008  12.361  0.7797  0.1252  0.0001
18994TIP3   OH278472   0.188   1.838  58.329 -0.2389 -0.2938  0.2527
18994TIP3    H178473   0.205   1.889  58.408 -0.4954 -1.2901  0.9690
18994TIP3    H278474   0.102   1.867  58.299 -0.5510 -0.5663  0.8710
18995TIP3   OH278475   2.055   1.116  47.351  0.1877  0.0232 -0.1926
18995TIP3    H178476   2.116   1.091  47.421 -0.7221 -0.6281  0.3973
18995TIP3    H278477   1.970   1.081  47.380 -0.2095 -0.2722 -1.6384
18996TIP3   OH278478   3.091   2.076  29.920  0.1220 -0.0600  0.2964
18996TIP3    H178479   3.163   2.071  29.856  1.0324 -2.2043  1.3816
18996TIP3    H278480   3.135   2.085  30.004 -0.8303 -1.7617  1.0166
18997TIP3   OH278481   0.932   0.707  64.102  0.4033  0.2601 -0.7213
18997TIP3    H178482   0.969   0.786  64.062  0.4539 -0.4187 -2.0795
18997TIP3    H278483   1.008   0.658  64.133  0.3104  1.5987  1.9745
18998TIP3   OH278484   2.082   0.063  57.885 -0.1877 -0.2953 -0.3069
18998TIP3    H178485   2.062  -0.025  57.916  0.5539  0.2117  1.7842
18998TIP3    H278486   2.158   0.052  57.828  0.7773 -0.8979  1.0339
18999TIP3   OH278487   2.993   2.876  65.593  0.3026 -0.1807 -0.0015
18999TIP3    H178488   2.950   2.937  65.652  1.1428  1.8593 -1.3753
18999TIP3    H278489   3.041   2.816  65.650 -0.4951  0.4694  1.3878
19000TIP3   OH278490   2.611   3.012  54.122 -0.1053 -0.3452 -0.0788
19000TIP3    H178491   2.598   2.925  54.161  1.6665 -0.7795 -0.3711
19000TIP3    H278492   2.693   3.004  54.073  1.5693  2.1844  2.0294
19001TIP3   OH278493   3.093   1.904  46.968 -0.0304  0.1735 -0.0519
19001TIP3    H178494   3.004   1.891  47.003  0.2639  1.2986  1.2324
19001TIP3    H278495   3.128   1.816  46.957 -0.5611 -0.2761  1.5041
19002TIP3   OH278496   1.832   2.517  51.180  0.4404 -0.7842 -0.0979
19002TIP3    H178497   1.846   2.423  51.192 -1.5763 -1.1972 -0.6515
19002TIP3    H278498   1.832   2.529  51.085 -0.4814 -0.4433 -0.0626
19003TIP3   OH278499   3.357   1.781  45.633 -0.2437 -0.4074 -0.0442
19003TIP3    H178500   3.421   1.711  45.620 -0.2082 -0.6881  1.3954
19003TIP3    H278501   3.321   1.764  45.720  0.6100  2.0018  0.8752
19004TIP3   OH278502   1.193   1.081  19.301 -0.0596 -0.0049 -0.6291
19004TIP3    H178503   1.239   1.163  19.283  0.3418 -0.3962 -1.4464
19004TIP3    H278504   1.163   1.089  19.391  2.8354 -0.3025  0.4455
19005TIP3   OH278505   2.055   3.398  52.556 -0.3754  0.1584  0.2116
19005TIP3    H178506   2.139   3.419  52.596  0.6175 -0.8441 -1.2673
19005TIP3    H278507   2.052   3.449  52.476 -0.5516 -0.8214 -0.4273
19006TIP3   OH278508   2.587   1.371  42.542  0.5552 -0.8316 -0.0159
19006TIP3    H178509   2.618   1.425  42.615 -0.6700 -0.2606  0.0919
19006TIP3    H278510   2.496   1.351  42.563  0.6663 -2.0398 -0.5946
19007TIP3   OH278511   0.140   1.518  62.658  0.1533  0.4924  0.1430
19007TIP3    H178512   0.189   1.436  62.654 -1.3967 -0.4773  0.1552
19007TIP3    H278513   0.207   1.585  62.672  1.6085 -0.6008 -1.1238
19008TIP3   OH278514   1.607   0.938   6.321 -0.1278  0.1616 -0.3660
19008TIP3    H178515   1.553   0.860   6.302  0.3484 -0.4563  0.7752
19008TIP3    H278516   1.590   0.957   6.413  0.2458  1.0484 -0.4756
19009TIP3   OH278517   2.034   1.545  67.305 -0.1547 -0.4264 -0.0642
19009TIP3    H178518   2.097   1.475  67.287  1.1484  0.0248  2.3629
19009TIP3    H278519   2.000   1.526  67.392 -0.5877  1.3560  0.2055
19010TIP3   OH278520   2.356   1.146  48.315 -0.1694 -0.0932 -0.1980
19010TIP3    H178521   2.309   1.186  48.389 -1.0688  1.4774 -1.5389
19010TIP3    H278522   2.395   1.220  48.269  0.3265 -1.0357 -1.3361
19011TIP3   OH278523   0.810   1.144   6.146  0.3534 -0.2968 -0.0972
19011TIP3    H178524   0.733   1.189   6.181 -0.2778 -0.4594 -1.2067
19011TIP3    H278525   0.870   1.214   6.121 -0.5815 -0.0055 -1.7194
19012TIP3   OH278526   3.441   1.514  65.218  0.1220 -0.0311  0.0445
19012TIP3    H178527   3.405   1.550  65.299  0.6537  2.3226 -0.6924
19012TIP3    H278528   3.480   1.590  65.174  2.1734 -1.7105 -1.1960
19013TIP3   OH278529   3.047   1.272  51.757 -0.2204 -0.1215  0.4095
19013TIP3    H178530   3.035   1.344  51.695 -1.7043  0.3298  1.1758
19013TIP3    H278531   3.066   1.196  51.702 -1.9870  0.1566 -0.6774
19014TIP3   OH278532   1.659   0.467  58.121  0.0309  0.0612 -0.0694
19014TIP3    H178533   1.675   0.511  58.037  0.8679 -0.0725  0.0161
19014TIP3    H278534   1.564   0.458  58.125 -0.0403  0.3811 -0.8470
19015TIP3   OH278535   1.936   0.201   6.299  1.2403  0.0863 -0.3192
19015TIP3    H178536   1.957   0.192   6.206  1.3133 -2.1582 -0.1476
19015TIP3    H278537   1.993   0.137   6.343 -0.1212 -0.2595  1.0373
19016TIP3   OH278538   0.980   1.203  66.878 -0.7179 -0.0395  0.8818
19016TIP3    H178539   0.893   1.239  66.861 -0.3459 -0.5456 -2.9843
19016TIP3    H278540   0.964   1.115  66.911 -1.7011 -0.0814  0.3300
19017TIP3   OH278541   1.292   0.161  36.583  0.6710 -0.0800  0.2775
19017TIP3    H178542   1.213   0.177  36.532 -0.4810 -1.0016  1.6754
19017TIP3    H278543   1.341   0.243  36.579 -1.6169  1.4573  1.4840
19018TIP3   OH278544   0.852   0.900  64.513 -0.2266 -0.5204  0.3568
19018TIP3    H178545   0.819   0.814  64.541 -1.9866 -0.0762 -0.2112
19018TIP3    H278546   0.943   0.901  64.542 -0.2690 -2.4289  0.7118
19019TIP3   OH278547   2.318   0.097  62.061 -0.4888  0.3690 -0.3331
19019TIP3    H178548   2.272   0.174  62.027 -1.3910  0.7220  1.5214
19019TIP3    H278549   2.407   0.105  62.025 -0.8637  1.6958 -1.0503
19020TIP3   OH278550   0.484   2.684  11.638 -0.6128  0.1428  0.9825
19020TIP3    H178551   0.560   2.721  11.591 -0.7942 -1.8265 -1.0378
19020TIP3    H278552   0.515   2.674  11.728  1.8848 -1.3659  0.0582
19021TIP3   OH278553   0.381   2.122   7.060  0.2162  0.0121  0.1083
19021TIP3    H178554   0.320   2.155   6.995  0.5366  2.0510  0.7728
19021TIP3    H278555   0.421   2.201   7.097 -1.1598 -0.8695  3.9485
19022TIP3   OH278556   1.315   0.180  45.743 -0.3422  0.2669  0.5447
19022TIP3    H178557   1.319   0.085  45.733 -1.5686  0.2906 -0.4996
19022TIP3    H278558   1.401   0.205  45.778 -0.1578 -1.2561  1.2362
19023TIP3   OH278559   0.842   0.288  22.086 -0.0745 -0.0369  0.4564
19023TIP3    H178560   0.779   0.216  22.083  2.1110 -2.0676  0.1384
19023TIP3    H278561   0.864   0.296  22.178 -0.2169  0.1570  0.4755
19024TIP3   OH278562   0.041   1.349   0.554 -0.0422  0.0098 -0.4559
19024TIP3    H178563  -0.011   1.365   0.633 -0.8824  0.7151 -1.1245
19024TIP3    H278564   0.122   1.311   0.586 -0.7067 -0.5180  0.6799
19025TIP3   OH278565   1.173   2.178   4.233  0.7723 -0.4400  0.1704
19025TIP3    H178566   1.159   2.089   4.202  3.3960 -0.7101 -0.4888
19025TIP3    H278567   1.160   2.173   4.328 -0.3833 -1.2032 -0.0143
19026TIP3   OH278568   2.876   3.303  55.890 -0.2371 -1.1496 -0.3128
19026TIP3    H178569   2.839   3.382  55.931  1.3753 -0.9424  0.8586
19026TIP3    H278570   2.832   3.230  55.933 -0.3340 -0.8968  0.0219
19027TIP3   OH278571   1.877   2.791  57.656 -0.1956  0.2079  0.3896
19027TIP3    H178572   1.789   2.822  57.638  0.1089  0.6818 -0.3241
19027TIP3    H278573   1.865   2.703  57.691 -0.9625  0.3796  0.5782
19028TIP3   OH278574   2.370   2.417  63.801  0.2334 -0.3553  0.7641
19028TIP3    H178575   2.352   2.423  63.895  1.8159  1.4971  1.0078
19028TIP3    H278576   2.357   2.506  63.768  0.7754 -0.7426 -0.5771
19029TIP3   OH278577   1.807   0.093  15.595 -0.0162  0.2022  0.3277
19029TIP3    H178578   1.779   0.031  15.527 -2.6332  2.0497 -0.4322
19029TIP3    H278579   1.781   0.052  15.677  0.2575 -0.6526 -0.0053
19030TIP3   OH278580   0.911   0.171  20.673 -0.2507  0.2234 -0.6656
19030TIP3    H178581   0.970   0.246  20.669 -0.5817  0.4492 -1.4890
19030TIP3    H278582   0.883   0.167  20.764  0.5540  0.4865 -0.4016
19031TIP3   OH278583   2.777   0.942  44.217 -0.0587  0.6737 -0.1211
19031TIP3    H178584   2.753   0.933  44.125 -4.7369  1.2258  0.8254
19031TIP3    H278585   2.719   0.881  44.263 -0.0468  2.5915  2.6700
19032TIP3   OH278586   1.601   0.536  35.322  0.0893 -0.0930  0.0846
19032TIP3    H178587   1.567   0.563  35.237 -2.3602  1.8815  1.5523
19032TIP3    H278588   1.652   0.612  35.353  1.0266 -0.8167  0.3642
19033TIP3   OH278589   1.299   2.609  61.523  0.2458 -0.6075  0.3895
19033TIP3    H178590   1.331   2.655  61.445  1.2357 -0.9283  0.5797
19033TIP3    H278591   1.245   2.674  61.569 -0.4792 -0.4683 -0.6303
19034TIP3   OH278592   3.285   0.019  30.724 -0.3144 -0.7283  0.3142
19034TIP3    H178593   3.202   0.000  30.768  0.1947  1.4271  2.4291
19034TIP3    H278594   3.331   0.077  30.785  0.5603  2.3856 -2.9507
19035TIP3   OH278595   1.949   2.173  14.574  0.5167  0.1012 -0.2500
19035TIP3    H178596   1.955   2.142  14.484  1.3157  0.2946 -0.2684
19035TIP3    H278597   1.948   2.092  14.626 -1.0029 -0.0519 -0.4617
19036TIP3   OH278598   0.202   1.459  51.059 -0.0198 -0.3031 -0.2552
19036TIP3    H178599   0.158   1.383  51.022  0.9010 -0.7395 -0.4978
19036TIP3    H278600   0.246   1.500  50.984  0.5018 -0.2506  0.0739
19037TIP3   OH278601   2.448   3.077  53.588 -0.0965  0.2148  0.2514
19037TIP3    H178602   2.516   3.050  53.526 -0.1623 -1.8147  0.9674
19037TIP3    H278603   2.487   3.063  53.674 -1.5903 -1.7030  0.6871
19038TIP3   OH278604   0.377   2.577   6.898 -0.1299  0.0155  0.0090
19038TIP3    H178605   0.323   2.616   6.966 -2.0248 -3.3901  0.6529
19038TIP3    H278606   0.465   2.610   6.916 -0.7667  0.2233  3.3434
19039TIP3   OH278607   0.429   0.649   4.364 -0.3490 -0.1862 -0.4267
19039TIP3    H178608   0.452   0.591   4.291  0.1273 -1.7574  0.9017
19039TIP3    H278609   0.457   0.736   4.335  1.2083 -1.0023 -1.5448
19040TIP3   OH278610   0.374   3.337   6.260 -0.2012  0.9316  0.6829
19040TIP3    H178611   0.461   3.352   6.298  1.1805 -0.0508 -1.8385
19040TIP3    H278612   0.376   3.385   6.177 -1.0517 -1.2218 -0.6556
19041TIP3   OH278613   2.019   1.773  25.749 -0.1395 -0.6210  0.1986
19041TIP3    H178614   2.097   1.817  25.716 -1.3488  0.2652 -1.6441
19041TIP3    H278615   2.042   1.680  25.750  1.1739 -0.3207  0.4747
19042TIP3   OH278616   1.185   0.152  53.201  0.2815 -0.6757  0.3536
19042TIP3    H178617   1.181   0.059  53.226  1.6187 -0.4466  1.5262
19042TIP3    H278618   1.269   0.161  53.156 -0.4241 -0.2743 -0.9516
19043TIP3   OH278619   3.111   1.901  15.263 -0.2883  0.9405  0.1329
19043TIP3    H178620   3.035   1.959  15.276 -0.7451  0.1081  1.2789
19043TIP3    H278621   3.076   1.827  15.214 -0.2481  0.5257  0.7178
19044TIP3   OH278622   2.739   1.409  45.467  0.2600  0.6697  0.1534
19044TIP3    H178623   2.804   1.463  45.511 -0.4410  0.3129  1.6821
19044TIP3    H278624   2.662   1.465  45.459 -0.2823  0.1003  1.2362
19045TIP3   OH278625   0.878   2.124  15.895  0.0022 -0.0545 -0.4238
19045TIP3    H178626   0.968   2.105  15.922  0.1621  0.4725 -0.5657
19045TIP3    H278627   0.868   2.080  15.811  0.0820 -0.2302 -0.3415
19046TIP3   OH278628   2.746   0.738   3.417  0.6481 -0.7811 -0.1584
19046TIP3    H178629   2.739   0.813   3.358  3.1350 -0.2617  0.0770
19046TIP3    H278630   2.801   0.769   3.489 -0.2348 -2.1579  1.1659
19047TIP3   OH278631   2.359   2.771  18.782  0.0119 -0.0103 -0.1465
19047TIP3    H178632   2.374   2.841  18.719  0.1229 -0.6361 -0.8301
19047TIP3    H278633   2.271   2.740  18.763  0.0564 -0.2230 -0.0086
19048TIP3   OH278634   1.746   2.748  34.155 -0.0038  0.3767  0.3443
19048TIP3    H178635   1.689   2.703  34.093 -1.1689  0.4544  1.3308
19048TIP3    H278636   1.818   2.780  34.102 -1.8201  1.9380 -1.3051
19049TIP3   OH278637   2.524   1.181   2.193 -0.4057 -0.2913  0.0432
19049TIP3    H178638   2.476   1.154   2.115 -0.4427  0.8687 -0.3691
19049TIP3    H278639   2.457   1.194   2.260 -0.5206 -0.0105 -0.1254
19050TIP3   OH278640   2.822   1.289  18.537 -0.3021  0.3992  0.1212
19050TIP3    H178641   2.756   1.342  18.492 -1.1688 -0.5981  0.1677
19050TIP3    H278642   2.859   1.232  18.469 -0.7988 -0.3073  0.4209
19051TIP3   OH278643   2.133   0.900  57.624  0.1406  0.2789 -0.1347
19051TIP3    H178644   2.071   0.862  57.687  0.0812 -1.3148 -1.1064
19051TIP3    H278645   2.216   0.853  57.641  0.0792 -0.2975 -1.3235
19052TIP3   OH278646   2.904   0.782  27.234 -0.5650  0.0806  0.3031
19052TIP3    H178647   2.840   0.832  27.183 -1.3324 -0.7427  0.4434
19052TIP3    H278648   2.852   0.729  27.293  0.2817  0.1031  1.1023
19053TIP3   OH278649   2.834   0.477  10.028  0.2563  0.1661  0.0077
19053TIP3    H178650   2.857   0.566  10.054  1.5950  0.2724 -1.3811
19053TIP3    H278651   2.915   0.428  10.036 -0.2659 -0.7277 -0.0559
19054TIP3   OH278652   0.353   0.485  62.233  0.6492 -0.0959 -0.1677
19054TIP3    H178653   0.406   0.518  62.305 -2.3222  1.8427  1.3398
19054TIP3    H278654   0.360   0.552  62.165 -0.5696  0.6876  0.4429
19055TIP3   OH278655   0.699   2.183   2.343  0.3048  0.0240  0.6070
19055TIP3    H178656   0.642   2.214   2.413  0.1008 -1.2802  1.0488
19055TIP3    H278657   0.680   2.089   2.336 -0.5376  0.2971 -1.9989
19056TIP3   OH278658   1.253   1.510  63.064 -0.2963  0.0287  0.0955
19056TIP3    H178659   1.260   1.466  62.979  2.3711  1.8766 -0.7776
19056TIP3    H278660   1.268   1.441  63.128  0.5952 -0.8932 -1.0742
19057TIP3   OH278661   2.815   3.200  50.239  0.3532  0.4713  0.1550
19057TIP3    H178662   2.767   3.134  50.289  1.0954  0.8853  1.4449
19057TIP3    H278663   2.892   3.154  50.207 -0.6051 -0.0695 -1.5355
19058TIP3   OH278664   0.799   3.063  57.525 -0.2930 -0.2126  0.1888
19058TIP3    H178665   0.708   3.066  57.496  0.1920  1.0442 -1.3673
19058TIP3    H278666   0.803   3.130  57.594 -0.5771 -0.4415  0.4365
19059TIP3   OH278667   0.205   0.700  11.443  0.1646 -0.9321  0.0522
19059TIP3    H178668   0.173   0.744  11.365  2.8601  0.6669 -0.2829
19059TIP3    H278669   0.210   0.770  11.509  1.5311 -1.3837  0.4611
19060TIP3   OH278670   1.427   0.711  44.252  0.1934  0.3784  0.1631
19060TIP3    H178671   1.389   0.715  44.340 -0.9932 -0.0478 -0.3010
19060TIP3    H278672   1.396   0.628  44.217  2.4828 -0.5393  0.1224
19061TIP3   OH278673   1.061   2.854   9.907 -0.5398  0.2102 -0.1203
19061TIP3    H178674   1.065   2.758   9.911 -0.2360  0.1654 -1.0713
19061TIP3    H278675   1.135   2.883   9.959  0.4611 -0.1371 -1.2964
19062TIP3   OH278676   0.792   1.414  52.207  0.0481  0.2561  0.4040
19062TIP3    H178677   0.813   1.349  52.275  1.1255  0.6111  0.4358
19062TIP3    H278678   0.836   1.494  52.236 -1.1582  0.9816  0.2983
19063TIP3   OH278679   2.926   2.606  66.933 -0.2357  0.5453  0.2978
19063TIP3    H178680   2.955   2.627  66.844  1.6223  0.4663  0.8364
19063TIP3    H278681   2.871   2.680  66.958 -1.4301  0.2100 -1.1543
19064TIP3   OH278682   2.912   2.902  44.990  0.1243 -0.0885  0.2629
19064TIP3    H178683   3.003   2.908  45.018  0.3206  0.7183 -0.4836
19064TIP3    H278684   2.916   2.864  44.902  0.0307  2.6234 -1.0097
19065TIP3   OH278685   1.682   3.338  42.498 -0.4647  0.0173  0.3729
19065TIP3    H178686   1.755   3.394  42.471  0.0854 -0.4569  0.8434
19065TIP3    H278687   1.604   3.390  42.479 -0.0633  0.1702 -1.0078
19066TIP3   OH278688   0.354   0.451   9.040 -0.0840 -1.1610 -0.4117
19066TIP3    H178689   0.421   0.442   8.972  0.1225 -0.4528 -0.3075
19066TIP3    H278690   0.389   0.403   9.115  1.9306  1.9297  0.8225
19067TIP3   OH278691   0.537   2.014   9.310  0.0657  0.3285 -0.5923
19067TIP3    H178692   0.500   2.100   9.329  2.6984  1.4240  0.1081
19067TIP3    H278693   0.597   2.029   9.236 -0.1764 -1.1332 -1.1237
19068TIP3   OH278694   1.870   1.533   1.584  0.7566 -0.1269  0.4886
19068TIP3    H178695   1.916   1.484   1.517  0.0281 -0.8614  0.5063
19068TIP3    H278696   1.910   1.620   1.582  0.4531  0.0080 -1.1915
19069TIP3   OH278697   2.990   1.868  10.991 -0.3567 -0.8679  0.1392
19069TIP3    H178698   2.945   1.806  10.935  1.1628 -2.5333  0.6494
19069TIP3    H278699   3.008   1.819  11.072  0.3507  0.4247  0.8115
19070TIP3   OH278700   2.528   0.101  14.519  0.0564 -0.0253  0.5502
19070TIP3    H178701   2.501   0.028  14.574  0.0134 -0.3572  0.0937
19070TIP3    H278702   2.531   0.065  14.430 -0.1363  0.5712  0.2965
19071TIP3   OH278703   2.428   0.552   7.824 -0.1862  0.1025 -0.1828
19071TIP3    H178704   2.376   0.627   7.853 -2.0258 -0.3926 -2.0371
19071TIP3    H278705   2.385   0.476   7.864  0.5605 -0.1498  0.1695
19072TIP3   OH278706   2.843   1.187  60.815 -0.0416  0.0612  0.4681
19072TIP3    H178707   2.758   1.225  60.791 -0.1895  1.3256  2.7080
19072TIP3    H278708   2.893   1.261  60.849  1.7513 -0.7940 -0.2107
19073TIP3   OH278709   0.211   3.079  60.688 -0.3501  0.0055  0.4602
19073TIP3    H178710   0.200   3.028  60.608 -1.8059  0.2930  0.4490
19073TIP3    H278711   0.177   3.022  60.757 -1.6951  0.8050  0.4886
19074TIP3   OH278712   0.006   0.829   1.808  0.1935 -0.1673 -0.3840
19074TIP3    H178713   0.073   0.793   1.751 -0.1153 -0.7212 -0.4081
19074TIP3    H278714   0.036   0.917   1.829  0.2136  0.1114 -1.5522
19075TIP3   OH278715   3.096   1.618  46.633  0.0837 -0.7457 -0.1351
19075TIP3    H178716   3.033   1.654  46.570  2.6659  0.7411 -2.0537
19075TIP3    H278717   3.086   1.672  46.711 -0.9436 -0.5240 -0.4038
19076TIP3   OH278718   1.956   0.841   6.795 -0.2537  0.3089  0.2649
19076TIP3    H178719   2.048   0.815   6.787 -0.3559 -0.0362  0.2027
19076TIP3    H278720   1.920   0.828   6.707 -0.9450 -1.8358  0.7920
19077TIP3   OH278721   2.280   2.701  55.978  0.1746  0.4832 -0.1060
19077TIP3    H178722   2.323   2.677  56.059  3.3054 -0.8916 -1.9934
19077TIP3    H278723   2.259   2.617  55.936 -2.2047  1.1433 -0.4354
19078TIP3   OH278724   0.762   2.453  59.246 -0.5180 -0.0403  0.3698
19078TIP3    H178725   0.691   2.409  59.293  0.5191 -2.0254  0.1800
19078TIP3    H278726   0.830   2.465  59.312 -0.3431  0.2080  0.1444
19079TIP3   OH278727   2.002   2.179   2.143  0.5350 -0.0861 -0.2785
19079TIP3    H178728   1.969   2.147   2.228  1.1797 -1.3028 -0.4572
19079TIP3    H278729   1.955   2.126   2.079 -0.6524  1.4719 -0.7711
19080TIP3   OH278730   3.080   2.173  60.458 -0.3595 -0.5866  0.2896
19080TIP3    H178731   2.996   2.218  60.446 -0.0920  0.1333  1.0820
19080TIP3    H278732   3.110   2.155  60.368 -0.5053  0.7619 -0.0531
19081TIP3   OH278733   0.731   3.319  14.196 -0.5498 -0.2973  0.3005
19081TIP3    H178734   0.742   3.346  14.287  1.2062 -1.6269  0.5311
19081TIP3    H278735   0.639   3.339  14.176 -0.9450  0.1122  2.3070
19082TIP3   OH278736   0.176   1.909  21.132 -0.2007  0.1442  0.0897
19082TIP3    H178737   0.130   1.844  21.183 -1.2988  0.9509  0.1564
19082TIP3    H278738   0.129   1.913  21.049  0.5400  0.0635 -0.3498
19083TIP3   OH278739   1.610   3.004  45.621  0.2335  0.1308  1.0261
19083TIP3    H178740   1.644   3.014  45.532 -0.2756 -1.1428  0.6641
19083TIP3    H278741   1.686   2.982  45.674  0.0810 -2.4227  0.2757
19084TIP3   OH278742   2.802   3.352  61.269  0.3421 -0.2225  0.6145
19084TIP3    H178743   2.834   3.262  61.272 -2.3469 -1.4234 -1.6463
19084TIP3    H278744   2.859   3.395  61.205  1.7359 -0.2132  1.8125
19085TIP3   OH278745   1.294   3.075   4.050  0.5202  0.0959  0.2557
19085TIP3    H178746   1.203   3.054   4.071  0.7891 -2.4843 -0.7006
19085TIP3    H278747   1.289   3.129   3.972 -0.1982 -0.5020 -0.1235
19086TIP3   OH278748   2.077   0.461  17.609  0.0727 -0.7780 -0.1777
19086TIP3    H178749   2.156   0.501  17.647 -0.4487 -0.4398  0.5852
19086TIP3    H278750   2.057   0.516  17.533 -1.2967  1.2145  1.5057
19087TIP3   OH278751   2.689   2.300  60.108 -0.0025  0.1821  0.2673
19087TIP3    H178752   2.785   2.303  60.105  0.0339 -0.4672  0.6710
19087TIP3    H278753   2.666   2.223  60.056 -0.2088 -0.7079  1.6415
19088TIP3   OH278754   1.285   1.262  46.172 -0.2200 -0.1410  0.3671
19088TIP3    H178755   1.203   1.312  46.174  0.4519  1.0248  0.0332
19088TIP3    H278756   1.283   1.217  46.087 -0.8348 -0.6962  0.6684
19089TIP3   OH278757   0.824   1.962   2.992 -0.2960  0.4306 -0.8215
19089TIP3    H178758   0.875   1.939   2.914  0.8510 -1.0300  0.2966
19089TIP3    H278759   0.890   1.982   3.058 -1.2529  2.0761 -0.3197
19090TIP3   OH278760   3.404   2.146  55.983  0.3021 -0.0701  0.5351
19090TIP3    H178761   3.463   2.111  56.050  0.2547 -0.3741  0.4178
19090TIP3    H278762   3.317   2.122  56.014  0.0784  2.0475  1.7109
19091TIP3   OH278763   1.746   1.784  19.702  0.3085  0.0071  0.0893
19091TIP3    H178764   1.785   1.808  19.786 -0.2874  1.2235  0.0504
19091TIP3    H278765   1.816   1.798  19.639  0.6293 -0.4878  0.3311
19092TIP3   OH278766   2.909   1.995  44.113  0.3508 -0.2649  0.0754
19092TIP3    H178767   2.988   1.965  44.158  0.0659 -0.7375  0.2650
19092TIP3    H278768   2.861   2.046  44.178  0.0907 -0.6866  0.2150
19093TIP3   OH278769   0.969   1.900  48.838 -0.4139  0.0245 -0.2064
19093TIP3    H178770   1.048   1.917  48.888 -0.6124  1.0260 -0.1990
19093TIP3    H278771   0.898   1.903  48.903 -0.3511 -2.4833  0.0666
19094TIP3   OH278772   0.230   0.583  61.312 -0.2852 -0.0564  0.0722
19094TIP3    H178773   0.228   0.489  61.329  0.9317 -0.1196  0.0009
19094TIP3    H278774   0.258   0.590  61.221  0.6474  0.3672  0.3717
19095TIP3   OH278775   0.535   2.543  62.870  0.3378 -0.4137  0.6661
19095TIP3    H178776   0.554   2.509  62.957 -0.4839 -0.6538  0.7669
19095TIP3    H278777   0.620   2.565  62.833  0.8251 -1.6888  0.9684
19096TIP3   OH278778   3.412   2.662   9.904 -0.5184  0.4061  0.2955
19096TIP3    H178779   3.371   2.579   9.880 -0.9949  0.7232  0.0027
19096TIP3    H278780   3.440   2.700   9.821  1.8124 -0.5208  0.5818
19097TIP3   OH278781   1.785   2.367  42.713  0.3758  0.3065  0.3806
19097TIP3    H178782   1.840   2.366  42.791  2.6854 -0.5611 -1.1474
19097TIP3    H278783   1.819   2.439  42.661  0.7259 -0.8004 -0.9885
19098TIP3   OH278784   2.305   0.870  56.299  0.2692 -0.1969  0.3282
19098TIP3    H178785   2.323   0.777  56.292  0.5824 -0.2301  1.3504
19098TIP3    H278786   2.217   0.876  56.335  0.2737 -0.1032  0.3264
19099TIP3   OH278787   0.996   3.165  62.817  0.1994  0.2495  0.0099
19099TIP3    H178788   0.962   3.156  62.728  1.0420  2.8279 -0.6621
19099TIP3    H278789   1.087   3.136  62.812 -0.0489 -0.6091  0.3078
19100TIP3   OH278790   0.675   0.123  48.087  0.1396 -0.5860 -0.4400
19100TIP3    H178791   0.615   0.092  48.155  0.1446 -2.2746 -1.1594
19100TIP3    H278792   0.710   0.205  48.121 -1.9147 -0.0117  0.3782
19101TIP3   OH278793   1.094   1.781  63.533 -0.0708  0.9857  0.1147
19101TIP3    H178794   1.108   1.875  63.536 -0.5391  1.0385  1.3419
19101TIP3    H278795   1.010   1.770  63.489 -0.0318  1.1419  0.0028
19102TIP3   OH278796   2.433   1.432  54.286  0.0620 -0.3079 -0.2633
19102TIP3    H178797   2.342   1.459  54.294 -0.0735 -1.2031  2.2127
19102TIP3    H278798   2.480   1.487  54.349  0.5132 -2.4891  1.4616
19103TIP3   OH278799   0.117   2.324   7.303  0.2800 -0.4186  0.2400
19103TIP3    H178800   0.096   2.265   7.374  0.4039 -1.6609 -0.7256
19103TIP3    H278801   0.036   2.373   7.288  0.3894  0.1830  1.5123
19104TIP3   OH278802   3.158   0.348  49.277 -0.0544 -0.4121  0.8959
19104TIP3    H178803   3.189   0.436  49.297  2.3748 -0.8039 -0.6827
19104TIP3    H278804   3.065   0.358  49.258  0.1982  1.8411  0.6301
19105TIP3   OH278805   2.963   3.045  22.028  0.5128  0.1697 -0.0677
19105TIP3    H178806   3.042   3.034  21.974  1.2209  0.4187  0.8879
19105TIP3    H278807   2.993   3.094  22.104 -1.0048  2.0726 -0.6268
19106TIP3   OH278808   0.315   1.578  49.456 -0.5006  0.2444  0.3239
19106TIP3    H178809   0.370   1.552  49.382 -0.4714 -0.8191  0.6969
19106TIP3    H278810   0.370   1.562  49.533 -1.5652 -1.6276  0.7589
19107TIP3   OH278811   2.464   0.675  48.449 -0.2252 -0.2696 -0.1173
19107TIP3    H178812   2.464   0.579  48.450 -0.3384 -0.2942  2.1864
19107TIP3    H278813   2.546   0.698  48.406  0.0280 -1.4134 -0.2769
19108TIP3   OH278814   2.654   0.279   3.712  0.7440  0.0117  0.1405
19108TIP3    H178815   2.603   0.281   3.793  2.5289  1.5649  1.3286
19108TIP3    H278816   2.602   0.329   3.650 -0.9124 -1.6522  0.0836
19109TIP3   OH278817   1.782   1.054  50.164 -0.2144 -0.0431  0.2619
19109TIP3    H178818   1.826   1.096  50.089 -0.9732 -1.6441 -1.1306
19109TIP3    H278819   1.691   1.085  50.158 -0.2600 -0.1176  0.5836
19110TIP3   OH278820   2.414   0.946  21.384 -0.2941 -0.2072  0.3095
19110TIP3    H178821   2.455   0.967  21.467 -0.8034 -0.6148  0.6700
19110TIP3    H278822   2.422   1.026  21.332  1.0161 -0.3146  0.3344
19111TIP3   OH278823   2.233   0.402  59.263  0.2217 -0.3427  0.0423
19111TIP3    H178824   2.144   0.387  59.296  0.0936  0.6818  0.1913
19111TIP3    H278825   2.229   0.372  59.172 -1.0933  2.2090 -0.8331
19112TIP3   OH278826   2.616   3.304  12.978  0.2221 -0.5087 -0.2370
19112TIP3    H178827   2.700   3.347  12.997  0.2262 -0.7929  0.4266
19112TIP3    H278828   2.560   3.374  12.944  1.2380 -0.6443 -2.3312
19113TIP3   OH278829   0.598   2.277  51.190  0.4740  0.1498 -0.9816
19113TIP3    H178830   0.546   2.358  51.190  0.7094  0.3377  0.5863
19113TIP3    H278831   0.676   2.299  51.139  0.3401  0.7939 -0.9202
19114TIP3   OH278832   0.351   2.759  53.209  0.1471  0.0303  0.1331
19114TIP3    H178833   0.325   2.685  53.153  0.1448 -0.7250  1.1073
19114TIP3    H278834   0.278   2.770  53.269  0.4366  0.4022  0.4210
19115TIP3   OH278835   3.439   2.498   5.914 -0.3425 -0.5756  0.1418
19115TIP3    H178836   3.347   2.524   5.915  0.0320  0.8617 -0.1711
19115TIP3    H278837   3.437   2.403   5.922 -1.8510 -0.5707  0.1556
19116TIP3   OH278838   2.225   1.041  63.929  0.3050  0.3332  0.0905
19116TIP3    H178839   2.318   1.020  63.931  0.0359 -0.9745 -0.2684
19116TIP3    H278840   2.199   1.025  63.838 -0.2869  0.5765  0.2155
19117TIP3   OH278841   2.983   3.346  21.839  0.1484  0.0755  0.4193
19117TIP3    H178842   2.987   3.264  21.790  0.2948  0.6251 -0.5113
19117TIP3    H278843   2.897   3.344  21.882 -0.1388 -0.2696 -0.1492
19118TIP3   OH278844   1.511   1.820  51.464 -0.8688  0.4230 -0.0391
19118TIP3    H178845   1.508   1.860  51.377 -2.8090  1.3961  0.4257
19118TIP3    H278846   1.600   1.836  51.495 -0.0169 -0.2984 -1.9789
19119TIP3   OH278847   1.816   1.939   6.240  0.8824 -0.6648 -0.6326
19119TIP3    H178848   1.770   1.868   6.285  0.3751 -0.1499 -0.3223
19119TIP3    H278849   1.908   1.925   6.260  0.7021 -0.7187  0.1723
19120TIP3   OH278850   1.468   2.097   0.486  0.0716  0.3340 -0.2863
19120TIP3    H178851   1.419   2.057   0.414 -1.3746  0.2300  0.7142
19120TIP3    H278852   1.426   2.065   0.565  1.6355  0.4341  0.6393
19121TIP3   OH278853   2.486   2.470  59.974 -0.7150  0.3419  0.3794
19121TIP3    H178854   2.555   2.425  60.024 -1.1757 -0.7136  0.1104
19121TIP3    H278855   2.410   2.411  59.980 -1.5798  1.4593  0.6257
19122TIP3   OH278856   3.062   0.150  21.278 -0.1503  0.3619 -0.4843
19122TIP3    H178857   3.069   0.231  21.228 -0.9251  1.6956  1.4342
19122TIP3    H278858   3.037   0.084  21.214 -0.6253  1.8763 -1.9290
19123TIP3   OH278859   0.960   1.276  61.254  0.5152 -0.1143  0.2368
19123TIP3    H178860   0.926   1.248  61.170 -0.2407 -2.0801  1.1254
19123TIP3    H278861   1.026   1.210  61.276  0.0022 -0.2148  1.5986
19124TIP3   OH278862   2.972   3.214  47.641  0.2196 -0.7010 -0.3510
19124TIP3    H178863   2.930   3.300  47.644 -0.0612 -0.8041 -1.1586
19124TIP3    H278864   2.913   3.157  47.690 -1.4500 -1.1844 -2.7530
19125TIP3   OH278865   1.881   1.316  64.714  0.2602  0.1496 -0.8555
19125TIP3    H178866   1.802   1.367  64.699 -1.0430 -1.6016 -0.2936
19125TIP3    H278867   1.946   1.380  64.742 -2.0197  1.2451  2.5028
19126TIP3   OH278868   2.345   0.611  20.422  0.1437  0.1423 -0.1172
19126TIP3    H178869   2.440   0.624  20.423  0.1361  0.3795 -0.9551
19126TIP3    H278870   2.327   0.551  20.494  0.7208  1.4710  1.1968
19127TIP3   OH278871   1.247   2.121  63.784  0.0352  0.3174 -0.1456
19127TIP3    H178872   1.248   2.046  63.843  0.0266  0.8554  0.5612
19127TIP3    H278873   1.324   2.109  63.729  0.1631 -0.0957  0.1160
19128TIP3   OH278874   1.015   3.179   0.282  0.4572  0.7506 -0.2397
19128TIP3    H178875   0.930   3.191   0.325 -0.0058  0.4963 -1.0639
19128TIP3    H278876   1.078   3.178   0.354 -0.1837  1.3998  0.3557
19129TIP3   OH278877   1.489   3.380  42.730 -0.0063  0.5030 -0.4350
19129TIP3    H178878   1.471   3.430  42.650 -0.6836 -0.0743 -0.6579
19129TIP3    H278879   1.402   3.352  42.760  0.4205 -1.5637 -0.9906
19130TIP3   OH278880   2.936   0.433  11.738 -0.4597  0.2534  0.3279
19130TIP3    H178881   2.939   0.376  11.661  0.7929  0.7722 -0.0385
19130TIP3    H278882   2.992   0.390  11.802  0.0335  0.7614  0.2506
19131TIP3   OH278883   3.378   0.522  11.593 -0.4036  0.0529  0.4305
19131TIP3    H178884   3.402   0.550  11.504 -0.7453  3.9708  1.4095
19131TIP3    H278885   3.456   0.479  11.626  0.6568  0.8738 -0.8937
19132TIP3   OH278886   1.783   1.549  46.375  0.2744 -1.2235 -0.0830
19132TIP3    H178887   1.812   1.585  46.459  0.6600  0.4788 -0.9004
19132TIP3    H278888   1.772   1.455  46.392  1.0814 -1.0516  1.6611
19133TIP3   OH278889   2.667   0.386  42.828 -0.0443 -0.0505 -0.6175
19133TIP3    H178890   2.646   0.324  42.759 -0.2913 -0.0669 -0.5271
19133TIP3    H278891   2.654   0.338  42.910 -1.4427  0.4751 -0.5003
19134TIP3   OH278892   1.429   3.377  51.335 -0.1906 -0.4367  0.3522
19134TIP3    H178893   1.514   3.414  51.358 -0.1236 -0.6001  0.3758
19134TIP3    H278894   1.442   3.340  51.248 -0.2214 -0.5124  0.3805
19135TIP3   OH278895   2.529   1.557  67.438 -0.1052 -0.4216 -0.0069
19135TIP3    H178896   2.585   1.480  67.431  0.0843 -0.3182  0.3378
19135TIP3    H278897   2.451   1.526  67.484 -0.0890 -0.4404  0.0079
19136TIP3   OH278898   0.706   3.242   4.925 -0.1409  0.0111  0.2796
19136TIP3    H178899   0.672   3.300   4.857  1.1265  0.3540 -0.0920
19136TIP3    H278900   0.662   3.270   5.005  0.1929  1.2575  0.0389
19137TIP3   OH278901   0.825   1.714  36.040  0.4735 -0.2384 -0.1707
19137TIP3    H178902   0.773   1.791  36.015  0.4560  0.3200  1.4791
19137TIP3    H278903   0.886   1.746  36.105 -0.2690 -1.8084  1.3872
19138TIP3   OH278904   3.254   0.936  66.842 -0.4007  0.3474 -0.2623
19138TIP3    H178905   3.226   0.845  66.853  1.2582 -0.0876  0.7083
19138TIP3    H278906   3.250   0.951  66.747  0.3923 -1.1241 -0.5578
19139TIP3   OH278907   0.925   1.999  15.668  0.1493 -0.6856 -0.4568
19139TIP3    H178908   0.954   2.079  15.624  0.9443  0.6827  2.3132
19139TIP3    H278909   1.001   1.941  15.666  1.1182  0.4091  1.2362
19140TIP3   OH278910   1.040   2.090   1.508  0.1397 -0.7345  0.6246
19140TIP3    H178911   0.960   2.103   1.559 -0.2363  0.7940 -0.2902
19140TIP3    H278912   1.014   2.031   1.437  0.3707 -1.9156  1.4966
19141TIP3   OH278913   2.776   2.201  60.420 -0.2837  0.0225 -0.6268
19141TIP3    H178914   2.836   2.126  60.426  1.8288  1.4640 -2.2717
19141TIP3    H278915   2.690   2.161  60.404 -0.1244 -2.1762  2.9645
19142TIP3   OH278916   0.739   0.585  66.693 -0.5000  0.1831  0.0448
19142TIP3    H178917   0.656   0.537  66.683  0.1078 -1.0485  0.7538
19142TIP3    H278918   0.806   0.523  66.667  0.3218  0.5943  1.1364
19143TIP3   OH278919   0.084   1.904  42.826  0.0204 -0.1713 -0.3721
19143TIP3    H178920   0.086   1.997  42.850 -2.4920 -0.5430  1.7666
19143TIP3    H278921   0.168   1.869  42.857  0.5938  1.1897 -0.3301
19144TIP3   OH278922   1.593   0.807  62.484  0.5605  0.5499  0.4179
19144TIP3    H178923   1.555   0.791  62.397 -1.3523  0.6235  1.1966
19144TIP3    H278924   1.685   0.785  62.474  0.0067 -1.3708 -1.1381
19145TIP3   OH278925   1.120   1.661  16.714 -0.1572 -0.7824  0.0214
19145TIP3    H178926   1.088   1.699  16.796  1.2809  1.3088 -0.3070
19145TIP3    H278927   1.200   1.614  16.739  1.8937  2.1972 -0.4432
19146TIP3   OH278928   0.955   3.116  48.418  0.6826  0.0792  0.5146
19146TIP3    H178929   1.016   3.100  48.346  2.7001  0.7040  1.9846
19146TIP3    H278930   0.936   3.029  48.454  1.8087 -0.0357  0.8694
19147TIP3   OH278931   0.283   2.781  49.223  0.4047 -0.4114 -0.1461
19147TIP3    H178932   0.351   2.718  49.247 -1.5502 -1.4938  3.3487
19147TIP3    H278933   0.212   2.763  49.285 -1.4887  3.2401 -1.0055
19148TIP3   OH278934   0.111   2.545  30.085 -0.2353 -0.4298  0.2876
19148TIP3    H178935   0.188   2.542  30.142  1.3385  2.2877 -1.4530
19148TIP3    H278936   0.039   2.574  30.142  1.2157  1.9506  1.0725
19149TIP3   OH278937   2.815   0.154  56.562  0.0501  0.7095 -0.3157
19149TIP3    H178938   2.792   0.246  56.547 -2.1841  0.0267 -1.4728
19149TIP3    H278939   2.757   0.125  56.632 -0.8107 -0.3453 -1.4178
19150TIP3   OH278940   1.316   1.215  10.674 -0.0192 -0.4970 -0.1424
19150TIP3    H178941   1.321   1.119  10.683  1.6240 -0.4114  0.2686
19150TIP3    H278942   1.358   1.233  10.590  2.7435  0.0372  1.2397
19151TIP3   OH278943   1.566   1.260   3.806  0.0771 -0.2882 -0.1301
19151TIP3    H178944   1.546   1.168   3.821 -0.6779 -0.1330 -0.1017
19151TIP3    H278945   1.480   1.300   3.790  0.4284  0.3531 -0.4312
19152TIP3   OH278946   0.337   1.054  61.560  0.4871 -0.2319 -0.2002
19152TIP3    H178947   0.363   0.965  61.535  0.7214  0.4747 -2.7552
19152TIP3    H278948   0.406   1.110  61.525  0.3076  0.9995  1.2979
19153TIP3   OH278949   2.941   2.100  49.924 -0.3841 -0.2778  0.0764
19153TIP3    H178950   2.918   2.035  49.858  1.1041 -1.6704  0.8482
19153TIP3    H278951   2.943   2.051  50.006 -2.1665  1.4046  1.2196
19154TIP3   OH278952   0.799   1.695  22.080  0.4176 -0.1854 -0.6897
19154TIP3    H178953   0.850   1.616  22.098  1.0503  0.0053 -1.5572
19154TIP3    H278954   0.804   1.746  22.161  2.4394  0.2627 -1.0401
19155TIP3   OH278955   1.008   2.606  15.415 -0.4725 -0.0350 -0.0838
19155TIP3    H178956   0.979   2.514  15.414 -1.4431  0.2479 -0.9367
19155TIP3    H278957   1.103   2.601  15.409 -0.5631 -0.9974 -1.2727
19156TIP3   OH278958   3.049   3.144  50.078  0.0897 -0.0147  0.5883
19156TIP3    H178959   3.108   3.219  50.085  3.4815 -2.4786  0.9833
19156TIP3    H278960   3.067   3.093  50.156 -0.4564 -2.2764 -0.6800
19157TIP3   OH278961   1.370   1.091  34.521 -0.0683 -0.5280  0.0065
19157TIP3    H178962   1.430   1.146  34.572  1.3973 -1.2792 -0.8330
19157TIP3    H278963   1.396   1.106  34.430 -0.0305 -2.1282 -0.2778
19158TIP3   OH278964   2.757   0.279  44.386  0.3648 -0.0780  0.2456
19158TIP3    H178965   2.789   0.226  44.313 -0.8245  0.5654 -0.7583
19158TIP3    H278966   2.672   0.312  44.358 -0.6252 -0.6484  2.3164
19159TIP3   OH278967   1.426   2.346  39.358  0.7730 -0.4527 -0.3506
19159TIP3    H178968   1.466   2.368  39.442  1.1981 -1.9440 -0.1339
19159TIP3    H278969   1.389   2.259  39.371 -0.0439 -0.2823 -1.4168
19160TIP3   OH278970   0.304   2.557  17.076 -0.2529 -0.1127 -0.2041
19160TIP3    H178971   0.231   2.599  17.121  1.9122  2.7207  1.0103
19160TIP3    H278972   0.264   2.508  17.004 -3.3876  0.1637  1.2156
19161TIP3   OH278973   1.245   1.828  62.970  0.1940 -0.1511 -0.4141
19161TIP3    H178974   1.190   1.768  62.920  2.9840 -0.9533 -2.8444
19161TIP3    H278975   1.297   1.771  63.027  0.4453  0.2828 -0.2068
19162TIP3   OH278976   3.202   0.774  62.287 -0.1918  0.4524  0.5023
19162TIP3    H178977   3.194   0.864  62.255  1.2528  0.1274 -0.9006
19162TIP3    H278978   3.238   0.726  62.213 -1.1873 -1.3612  1.1394
19163TIP3   OH278979   1.167   2.067  51.237 -0.5084  0.7547  0.2135
19163TIP3    H178980   1.169   2.158  51.208  2.1902  0.6657 -0.1000
19163TIP3    H278981   1.100   2.026  51.181  0.6368  1.8194 -2.0760
19164TIP3   OH278982   1.707   1.676  65.456  0.2506  0.6348  0.1760
19164TIP3    H178983   1.632   1.617  65.448  0.9516 -0.0823 -1.4917
19164TIP3    H278984   1.713   1.694  65.550 -1.1877 -0.3518  0.4934
19165TIP3   OH278985   1.578   2.611   7.066 -0.1411 -0.4891  0.5832
19165TIP3    H178986   1.626   2.541   7.022 -2.4334 -1.1324 -1.0478
19165TIP3    H278987   1.592   2.593   7.160  1.2054 -1.7279  0.1880
19166TIP3   OH278988   0.485   0.845  43.327  0.0070  0.0256  0.4050
19166TIP3    H178989   0.493   0.936  43.299  0.7344 -0.1500  0.0162
19166TIP3    H278990   0.441   0.850  43.412  0.4197  0.7685  0.5877
19167TIP3   OH278991   0.305   0.926  20.432  0.4832 -0.0997 -0.0058
19167TIP3    H178992   0.295   0.913  20.526  1.2159  1.1176  0.2581
19167TIP3    H278993   0.247   0.860  20.393 -0.4291 -0.1107  1.2965
19168TIP3   OH278994   2.504   2.926   5.365 -0.5208 -0.5676  0.7328
19168TIP3    H178995   2.422   2.961   5.332  0.4415 -0.7240 -2.1164
19168TIP3    H278996   2.553   3.002   5.396 -0.8200 -0.1594  0.2124
19169TIP3   OH278997   1.187   0.070  11.504 -0.4124  0.0928  0.6083
19169TIP3    H178998   1.249   0.064  11.431  0.6727  4.0507  0.9724
19169TIP3    H278999   1.209  -0.003  11.561 -0.7667 -2.7029 -2.4816
19170TIP3   OH279000   3.000   3.271  47.136 -0.1383 -0.0838 -0.5595
19170TIP3    H179001   2.989   3.284  47.230 -1.6403 -0.8871 -0.5737
19170TIP3    H279002   3.094   3.265  47.122  0.1369  0.8927  0.7581
19171TIP3   OH279003   3.295   0.586  14.084 -0.1491  0.2436 -0.6655
19171TIP3    H179004   3.322   0.538  14.163 -0.1828  0.4194 -0.5458
19171TIP3    H279005   3.213   0.545  14.057  1.6839 -2.3513 -2.7929
19172TIP3   OH279006   2.879   0.537  14.625  0.0532 -0.6373  0.1654
19172TIP3    H179007   2.874   0.441  14.620  0.6349 -0.6791  0.3256
19172TIP3    H279008   2.812   0.567  14.565  1.0944 -1.1443 -1.2983
19173TIP3   OH279009   2.862   3.371  52.032 -0.3223  0.0233 -0.3436
19173TIP3    H179010   2.934   3.344  51.976  0.4639 -0.2391  0.7740
19173TIP3    H279011   2.894   3.448  52.079 -1.4785  1.1226 -1.2679
19174TIP3   OH279012   2.772   2.929  14.047  0.1276  0.2910  0.3623
19174TIP3    H179013   2.767   2.838  14.018  1.1262  0.6580 -1.0925
19174TIP3    H279014   2.861   2.938  14.082  0.5785  1.0696 -0.9244
19175TIP3   OH279015   1.575   2.684  37.977 -0.1728 -0.1465 -0.3317
19175TIP3    H179016   1.612   2.696  37.890 -0.0535 -0.1727 -0.2835
19175TIP3    H279017   1.510   2.753  37.986  0.4365  0.4080 -0.1003
19176TIP3   OH279018   2.900   2.471  19.225  0.3390 -0.5893  0.1331
19176TIP3    H179019   2.812   2.506  19.239  0.5127 -0.5302  1.1329
19176TIP3    H279020   2.951   2.546  19.194  0.2132 -0.4412  0.2844
19177TIP3   OH279021   2.165   0.969  47.880  0.2234 -0.1069  0.2039
19177TIP3    H179022   2.165   0.874  47.887 -0.7421 -0.3684 -2.3740
19177TIP3    H279023   2.105   0.998  47.949 -0.9669 -1.4980 -0.2051
19178TIP3   OH279024   1.112   2.210   7.384 -0.0615  0.0624 -0.2271
19178TIP3    H179025   1.137   2.299   7.362 -0.3045  0.3529  0.6321
19178TIP3    H279026   1.072   2.176   7.304 -3.0600  1.8679  0.3330
19179TIP3   OH279027   0.102   1.971  54.360 -0.3376 -0.6493 -0.3923
19179TIP3    H179028   0.119   1.934  54.274 -3.4265  0.4970 -1.6172
19179TIP3    H279029   0.163   2.046  54.366  0.4268 -1.1817 -1.2219
19180TIP3   OH279030   2.213   1.443  15.223  0.1548  0.2504 -1.2857
19180TIP3    H179031   2.254   1.467  15.306 -1.1479 -1.9351  0.1002
19180TIP3    H279032   2.163   1.521  15.198 -1.2388  0.2705  1.2148
19181TIP3   OH279033   0.026   0.248  57.434 -0.1349  0.6446 -0.3400
19181TIP3    H179034   0.086   0.220  57.503 -1.6077  1.1186  1.1998
19181TIP3    H279035   0.024   0.174  57.373 -2.0280 -1.7843  2.3421
19182TIP3   OH279036   0.996   1.268   4.420 -0.2023  1.0290  0.3422
19182TIP3    H179037   1.017   1.240   4.330 -1.4867 -1.2343  0.6729
19182TIP3    H279038   0.999   1.364   4.416 -0.8802  1.0312 -2.3024
19183TIP3   OH279039   2.627   1.423  49.551  0.4877  0.1557  0.3296
19183TIP3    H179040   2.620   1.369  49.472  1.2826 -0.3069  0.5687
19183TIP3    H279041   2.696   1.486  49.531  0.5231  0.1929  0.5637
19184TIP3   OH279042   1.641   2.210  44.664  0.2718 -0.4010  0.2800
19184TIP3    H179043   1.693   2.170  44.734 -0.8035 -1.0295  0.7583
19184TIP3    H279044   1.625   2.139  44.603  0.6890 -0.0014 -0.3018
19185TIP3   OH279045   0.282   1.519  52.091 -0.3516  0.2533  0.2989
19185TIP3    H179046   0.303   1.470  52.171 -0.7873  0.5978  0.6304
19185TIP3    H279047   0.270   1.609  52.121  0.8919  0.6609 -0.3646
19186TIP3   OH279048   2.966   0.893   0.186  0.2800  0.1658 -0.1305
19186TIP3    H179049   2.919   0.853   0.259  0.8435 -0.5359 -0.1358
19186TIP3    H279050   2.970   0.824   0.119  0.8384  0.3914 -0.3372
19187TIP3   OH279051   2.717   1.957  56.284  0.8696 -0.0385 -0.0422
19187TIP3    H179052   2.646   2.020  56.270  0.9089  0.9080  3.2234
19187TIP3    H279053   2.681   1.893  56.346  2.8493  0.5968  1.8878
19188TIP3   OH279054   0.662   2.671  21.834 -0.1811  0.3220  0.1733
19188TIP3    H179055   0.721   2.605  21.871 -1.2772 -1.0036 -0.3699
19188TIP3    H279056   0.718   2.748  21.822  1.3498 -0.7455  0.0773
19189TIP3   OH279057   0.908   2.480   7.200  0.3132 -0.0364  0.4972
19189TIP3    H179058   0.822   2.493   7.242  0.3909  0.9418  0.3880
19189TIP3    H279059   0.971   2.490   7.272  0.4776  2.1867  0.1116
19190TIP3   OH279060   0.854   2.345  13.158  0.1389 -0.7169 -0.0102
19190TIP3    H179061   0.902   2.309  13.232  0.5296 -0.3904 -0.0993
19190TIP3    H279062   0.846   2.272  13.097  0.9976 -0.6416 -0.2249
19191TIP3   OH279063   1.999   1.643   0.615 -0.4998  0.1130  0.1325
19191TIP3    H179064   1.985   1.686   0.530 -0.4411  2.1254  1.0897
19191TIP3    H279065   1.941   1.690   0.675  0.6232 -0.2110  1.5126
19192TIP3   OH279066   1.101   0.419  65.776  0.8206 -0.7050  0.4724
19192TIP3    H179067   1.103   0.441  65.869 -2.1516 -0.0234  0.4762
19192TIP3    H279068   1.040   0.345  65.771  0.5806 -0.4286 -0.9612
19193TIP3   OH279069   3.328   3.307  62.524 -0.0019 -0.4069  0.3153
19193TIP3    H179070   3.237   3.334  62.516  0.1321 -0.4123 -2.0360
19193TIP3    H279071   3.377   3.389  62.519  0.2110 -0.6168 -1.9385
19194TIP3   OH279072   2.762   1.757  46.684  0.2981  0.1927  0.1713
19194TIP3    H179073   2.778   1.826  46.749 -1.2995  0.8479 -0.0938
19194TIP3    H279074   2.744   1.679  46.736  2.0986 -0.0857  0.4717
19195TIP3   OH279075   1.572   0.983  64.955  0.1259 -0.1505 -0.4935
19195TIP3    H179076   1.553   0.999  65.048  1.0913 -2.2052  0.1292
19195TIP3    H279077   1.608   1.066  64.923 -0.6870  0.7514  0.8163
19196TIP3   OH279078   1.337   1.120  46.419 -0.1651  0.4693  0.0489
19196TIP3    H179079   1.326   1.167  46.336  0.1402  1.2929  0.4590
19196TIP3    H279080   1.298   1.178  46.484 -0.7018 -0.3309  0.4389
19197TIP3   OH279081   0.853   1.210   1.458  0.6307  0.0550  0.2602
19197TIP3    H179082   0.761   1.229   1.476  0.4546 -0.7364  0.2119
19197TIP3    H279083   0.865   1.119   1.484  1.2010 -0.0954 -0.4976
19198TIP3   OH279084   2.682   2.939   8.083  0.2123  0.0124 -0.2120
19198TIP3    H179085   2.719   2.900   8.004 -2.2631 -0.3729 -1.2766
19198TIP3    H279086   2.625   2.871   8.119 -1.0844  1.2466  0.1558
19199TIP3   OH279087   0.145   1.385  18.459  0.2672  0.4168 -0.3770
19199TIP3    H179088   0.107   1.463  18.420 -0.4367 -0.5734 -1.7409
19199TIP3    H279089   0.180   1.335  18.385 -0.0122 -0.9368  0.3723
19200TIP3   OH279090   2.838   1.717  57.843  0.4595  0.0581 -0.0360
19200TIP3    H179091   2.882   1.663  57.777 -2.3307 -1.4451 -0.8055
19200TIP3    H279092   2.776   1.770  57.793  0.0533  0.7684  1.1750
19201TIP3   OH279093   2.266   2.742  21.470  0.0225 -0.0062 -0.5557
19201TIP3    H179094   2.227   2.819  21.512  0.8967  1.4082 -2.2183
19201TIP3    H279095   2.357   2.743  21.498 -0.0731 -0.7052 -0.2213
19202TIP3   OH279096   1.177   0.855  15.789  0.4463 -0.0671  0.2387
19202TIP3    H179097   1.093   0.819  15.817 -0.1048  0.8683 -0.1520
19202TIP3    H279098   1.230   0.779  15.766 -0.0636 -0.7013  1.1063
19203TIP3   OH279099   3.353   0.723  53.031 -0.0922  0.0176 -0.2317
19203TIP3    H179100   3.354   0.811  53.069 -0.1750  0.4813 -1.2748
19203TIP3    H279101   3.280   0.679  53.075  0.4610  0.1769  0.8977
19204TIP3   OH279102   0.879   0.462  20.385 -0.1501 -0.2482 -0.4769
19204TIP3    H179103   0.923   0.530  20.436  0.9609 -1.1132 -0.2442
19204TIP3    H279104   0.792   0.455  20.424 -1.0597  2.4087 -1.7715
19205TIP3   OH279105   2.653   1.971  42.243 -0.5699 -0.4895 -0.5728
19205TIP3    H179106   2.624   1.883  42.219  0.2136 -0.9293  0.0311
19205TIP3    H279107   2.684   1.962  42.333  1.7413 -0.1656 -1.2784
19206TIP3   OH279108   2.673   2.575  48.413 -0.6725 -0.2423 -0.1266
19206TIP3    H179109   2.595   2.579  48.358 -0.7235 -1.0614 -0.1320
19206TIP3    H279110   2.643   2.536  48.495 -0.0944 -1.5910 -0.5129
19207TIP3   OH279111   1.490   3.315  59.906  0.3889 -0.9106 -0.3749
19207TIP3    H179112   1.514   3.352  59.821  0.7285 -1.4310 -0.5131
19207TIP3    H279113   1.399   3.343  59.920  0.8987  0.6858 -0.0747
19208TIP3   OH279114   3.148   2.324  64.338  0.0813  1.0589  0.3539
19208TIP3    H179115   3.120   2.416  64.337 -1.1303  0.7045  0.6618
19208TIP3    H279116   3.072   2.275  64.309  0.6193  0.1074  0.4995
19209TIP3   OH279117   0.318   1.778  59.307  0.3875  0.1477  0.1190
19209TIP3    H179118   0.294   1.860  59.350 -1.0417 -0.8830  1.3889
19209TIP3    H279119   0.369   1.731  59.373 -0.2595 -0.6805  0.0444
19210TIP3   OH279120   1.432   2.273  60.853  0.0479  0.1168 -0.5909
19210TIP3    H179121   1.528   2.270  60.853  0.0832  0.9234 -1.5697
19210TIP3    H279122   1.405   2.190  60.814  0.3329 -0.1712 -0.1901
19211TIP3   OH279123   0.680   2.815  17.782  0.2534  0.4715  0.0603
19211TIP3    H179124   0.642   2.894  17.743 -1.3209 -0.7320 -0.9653
19211TIP3    H279125   0.607   2.774  17.829  1.3472  0.2179  1.6214
19212TIP3   OH279126   0.696   1.197  60.718  0.0370 -0.1780 -0.0253
19212TIP3    H179127   0.675   1.104  60.727 -0.0357 -0.0830  0.9865
19212TIP3    H279128   0.619   1.235  60.677 -0.4455 -0.3747  0.6657
19213TIP3   OH279129   3.382   3.155  12.368 -0.6232  0.2965 -0.0006
19213TIP3    H179130   3.404   3.134  12.459  3.3953  0.3194 -0.8102
19213TIP3    H279131   3.429   3.236  12.349  0.1057 -0.6194 -2.5418
19214TIP3   OH279132   3.186   1.124   6.563  0.1100 -0.4437 -0.5976
19214TIP3    H179133   3.124   1.052   6.574  0.6244 -0.8117 -0.0937
19214TIP3    H279134   3.272   1.083   6.564  0.5133  0.3297  1.4076
19215TIP3   OH279135   2.926   2.045   5.587  0.5259 -0.8559  0.0904
19215TIP3    H179136   2.939   2.062   5.680 -1.2520  0.5386  0.1379
19215TIP3    H279137   2.989   2.102   5.543 -1.0980  1.3163  0.4156
19216TIP3   OH279138   3.177   2.486   0.119 -0.4300 -0.4849  0.1100
19216TIP3    H179139   3.229   2.417   0.159  0.8801  1.0260  1.1705
19216TIP3    H279140   3.201   2.484   0.026 -0.0060 -1.1035  0.2290
19217TIP3   OH279141   1.644   1.267   0.706 -0.3659 -0.4649  0.3017
19217TIP3    H179142   1.561   1.309   0.730 -0.3728 -0.2984 -0.0071
19217TIP3    H279143   1.699   1.338   0.674 -0.0473 -0.5503  0.6413
19218TIP3   OH279144   2.920   2.731  57.846 -0.0568  0.0150  0.3356
19218TIP3    H179145   2.972   2.809  57.861  0.8948 -0.4937 -0.1708
19218TIP3    H279146   2.980   2.658  57.863 -0.5060 -0.5884 -0.5380
19219TIP3   OH279147   1.448   2.956  35.648  0.2569 -0.0403  0.7401
19219TIP3    H179148   1.540   2.980  35.633 -0.0760  1.6182  1.1326
19219TIP3    H279149   1.450   2.904  35.729  1.0077 -1.4037 -0.1100
19220TIP3   OH279150   0.302   2.184  55.416  0.2797  0.5842 -0.2445
19220TIP3    H179151   0.359   2.106  55.418  1.1423  1.1692 -1.0594
19220TIP3    H279152   0.258   2.179  55.331 -0.3268  0.5311  0.0726
19221TIP3   OH279153   0.869   1.725  62.214  0.0463  0.4429  0.1431
19221TIP3    H179154   0.907   1.808  62.184 -2.9865  1.8906 -0.0853
19221TIP3    H279155   0.818   1.694  62.140 -2.9399  1.0923  1.7892
19222TIP3   OH279156   0.599   2.633  59.645  0.3172  0.2329 -0.2021
19222TIP3    H179157   0.579   2.668  59.558 -0.6653 -2.0681 -0.9805
19222TIP3    H279158   0.640   2.706  59.692  0.4512  1.6668 -2.4290
19223TIP3   OH279159   3.023   2.274  51.552 -0.6638 -0.5548  0.4520
19223TIP3    H179160   3.087   2.273  51.623 -0.7797 -1.0898  0.5515
19223TIP3    H279161   2.969   2.196  51.566 -0.0608 -1.2259 -0.7871
19224TIP3   OH279162   0.467   3.026  62.507  0.2907  0.0926 -0.4776
19224TIP3    H179163   0.446   2.934  62.487 -1.5554  0.9157 -2.8233
19224TIP3    H279164   0.551   3.041  62.464  0.8823 -0.6287  0.4013
19225TIP3   OH279165   0.369   1.367   5.700  0.8803 -0.2599  0.3622
19225TIP3    H179166   0.307   1.439   5.691 -0.7385 -1.8288 -1.6846
19225TIP3    H279167   0.442   1.391   5.643  0.3221 -0.2652 -0.3592
19226TIP3   OH279168   2.229   0.289  15.128  0.5276  0.1659 -0.6505
19226TIP3    H179169   2.223   0.295  15.032  2.8749  2.0149 -0.7658
19226TIP3    H279170   2.169   0.357  15.160  0.7599  0.4821 -0.8761
19227TIP3   OH279171   2.175   2.515   8.440  0.0407  0.3459  0.6432
19227TIP3    H179172   2.087   2.484   8.421 -0.7651  2.6742  0.2751
19227TIP3    H279173   2.187   2.497   8.533 -0.7749 -0.0838  0.6770
19228TIP3   OH279174   3.285   1.431  46.744  0.4037 -0.4424 -0.4657
19228TIP3    H179175   3.223   1.494  46.709  0.3465  0.6378  1.4042
19228TIP3    H279176   3.277   1.354  46.688 -0.1219  0.9118 -2.3204
19229TIP3   OH279177   1.810   1.049  26.178 -0.1773 -0.5150  0.1932
19229TIP3    H179178   1.734   1.104  26.161  0.6866  0.4042 -0.8427
19229TIP3    H279179   1.885   1.108  26.170  0.7358 -1.7127 -0.3893
19230TIP3   OH279180   2.696   0.869  54.199 -0.1976 -0.3056 -0.5965
19230TIP3    H179181   2.729   0.842  54.284 -1.7336  0.0295  0.1301
19230TIP3    H279182   2.607   0.834  54.195 -0.4610  0.4401 -1.6958
19231TIP3   OH279183   0.312   2.761  22.809  0.1601 -0.6192 -0.7410
19231TIP3    H179184   0.377   2.733  22.745  0.6998  0.8763 -0.8997
19231TIP3    H279185   0.312   2.857  22.802  0.5606 -0.3690  1.8090
19232TIP3   OH279186   2.052   0.193   0.316  0.1258 -0.1138 -0.4856
19232TIP3    H179187   2.131   0.230   0.356  0.2490 -0.7865 -0.0956
19232TIP3    H279188   2.072   0.101   0.304 -0.9293 -0.4822  0.4346
19233TIP3   OH279189   0.642   0.431  67.333 -0.4403  0.3770  0.1090
19233TIP3    H179190   0.608   0.368  67.396 -0.4486 -0.3312 -0.6015
19233TIP3    H279191   0.565   0.481  67.304 -0.7671 -0.6501 -0.8546
19234TIP3   OH279192   0.930   2.332  45.160 -0.3507 -0.5958 -0.4771
19234TIP3    H179193   0.867   2.363  45.225 -1.8016 -0.6236 -1.8329
19234TIP3    H279194   1.000   2.293  45.212  0.0383  2.0533  1.2174
19235TIP3   OH279195   2.415   3.117   3.614  1.2472 -0.1959 -0.2750
19235TIP3    H179196   2.453   3.133   3.528  0.0670 -0.7872 -0.9266
19235TIP3    H279197   2.436   3.026   3.634  0.7312 -0.3423 -0.3687
19236TIP3   OH279198   2.221   1.776  61.562 -0.2934 -0.1011  0.4418
19236TIP3    H179199   2.209   1.871  61.556 -0.2364 -0.1177 -0.0239
19236TIP3    H279200   2.184   1.752  61.646  0.8720  0.5271  1.1651
19237TIP3   OH279201   1.751   1.557  13.173  0.1399  0.6584  0.3668
19237TIP3    H179202   1.807   1.625  13.135 -0.2331  1.2418  0.8474
19237TIP3    H279203   1.662   1.586  13.151 -0.0024  0.0929  0.1974
19238TIP3   OH279204   0.661   1.331  59.158  1.0420 -0.1746  0.3689
19238TIP3    H179205   0.705   1.292  59.234 -0.7764  0.3556  1.7676
19238TIP3    H279206   0.697   1.419  59.152  1.7748 -0.4832  0.0933
19239TIP3   OH279207   1.047   1.123   8.298  0.5334  0.4629 -0.7921
19239TIP3    H179208   0.967   1.075   8.318  0.2500  0.6991 -1.3337
19239TIP3    H279209   1.116   1.057   8.302  0.4434  0.4204  0.5311
19240TIP3   OH279210   0.630   2.206  44.515 -0.3912 -0.1967 -0.6205
19240TIP3    H179211   0.631   2.112  44.495  0.5382 -0.0107 -1.5415
19240TIP3    H279212   0.545   2.221  44.558 -0.6845 -1.3899 -0.7555
19241TIP3   OH279213   0.246   0.573  13.176  0.0130 -0.1056  0.1390
19241TIP3    H179214   0.278   0.656  13.212 -1.8206  0.7720 -0.1819
19241TIP3    H279215   0.175   0.598  13.117  0.1421 -1.8426 -0.8150
19242TIP3   OH279216   1.073   1.913  66.532  0.4052 -0.2753 -0.5944
19242TIP3    H179217   1.032   1.950  66.611 -1.0123 -0.7471 -1.0643
19242TIP3    H279218   1.123   1.985  66.494  0.6357  0.1200  0.4272
19243TIP3   OH279219   0.369   1.496   6.653 -0.3705  0.2461  0.1563
19243TIP3    H179220   0.356   1.468   6.743  0.0998  0.2434  0.2248
19243TIP3    H279221   0.410   1.582   6.659  1.0520 -0.3811 -0.0321
19244TIP3   OH279222   1.002   0.896  20.291 -0.0526  0.1840  0.0467
19244TIP3    H179223   1.061   0.963  20.326  0.0540  0.8318 -1.3113
19244TIP3    H279224   0.944   0.943  20.232 -1.0947 -0.6683  0.3499
19245TIP3   OH279225   1.984   3.040  12.312  0.0933  0.5211  0.0635
19245TIP3    H179226   2.074   3.070  12.325 -0.2080  1.1884  0.6204
19245TIP3    H279227   1.930   3.118  12.322 -0.4779  0.3412 -1.3595
19246TIP3   OH279228   0.187   0.918  44.715  0.3977  0.2655  0.1258
19246TIP3    H179229   0.138   0.869  44.781  0.8559  1.1968  1.1747
19246TIP3    H279230   0.154   1.008  44.721  2.1982  0.9109  0.8417
19247TIP3   OH279231   0.492   0.592  21.551 -0.0169  0.8448  0.0969
19247TIP3    H179232   0.406   0.594  21.508 -0.2623 -2.0501  0.2531
19247TIP3    H279233   0.472   0.585  21.645  0.3346 -0.1556  0.1143
19248TIP3   OH279234   1.270   0.417  19.183  0.2192  0.3998  0.4861
19248TIP3    H179235   1.338   0.474  19.219  0.4746  0.7787 -0.5558
19248TIP3    H279236   1.302   0.328  19.199 -0.8281  0.4169  3.4005
19249TIP3   OH279237   2.173   1.761   9.103 -0.4020  0.5351 -0.6788
19249TIP3    H179238   2.143   1.795   9.188  1.4728  0.6127  0.0254
19249TIP3    H279239   2.124   1.811   9.038 -1.2797  1.0811  0.3670
19250TIP3   OH279240   2.407   1.331  43.437 -0.1007 -0.2657 -0.2180
19250TIP3    H179241   2.422   1.244  43.475  2.1102 -0.1679 -0.7243
19250TIP3    H279242   2.464   1.389  43.487 -1.4468  0.8964  0.0137
19251TIP3   OH279243   0.263   3.442   4.837  0.0664 -0.1804  0.4470
19251TIP3    H179244   0.324   3.503   4.795 -0.8015 -0.0904 -0.7364
19251TIP3    H279245   0.180   3.489   4.840 -0.1865 -0.6537  1.1623
19252TIP3   OH279246   0.459   2.099  17.286 -0.4102  1.1548 -0.2408
19252TIP3    H179247   0.415   2.160  17.346 -0.0899  1.8845 -0.7363
19252TIP3    H279248   0.543   2.140  17.268  1.5820 -1.3006  2.5363
19253TIP3   OH279249   2.314   1.491  26.804 -0.1041  0.0471  0.4524
19253TIP3    H179250   2.379   1.560  26.791  1.0199 -0.9949  0.4393
19253TIP3    H279251   2.256   1.525  26.872 -1.1167  2.0765 -1.2948
19254TIP3   OH279252   2.532   0.199  13.153 -0.1853 -0.0314  0.1962
19254TIP3    H179253   2.452   0.147  13.158 -0.5445  0.6157  1.5620
19254TIP3    H279254   2.559   0.211  13.244  2.7941 -2.2034 -0.2497
19255TIP3   OH279255   2.112   2.717  10.473  0.3721  0.2117 -0.0487
19255TIP3    H179256   2.176   2.786  10.457 -0.1003  0.8330  0.6710
19255TIP3    H279257   2.033   2.747  10.429 -0.3107  0.9312  1.5836
19256TIP3   OH279258   3.179   2.466   5.150  0.1591  0.2666  0.1577
19256TIP3    H179259   3.166   2.505   5.236 -0.9103  2.6579 -0.9942
19256TIP3    H279260   3.272   2.475   5.132  0.4516 -0.5845  1.1727
19257TIP3   OH279261   1.894   0.827  15.793 -0.0413  0.2504 -0.2185
19257TIP3    H179262   1.987   0.844  15.778  0.1058 -0.2264  0.1559
19257TIP3    H279263   1.854   0.914  15.796  0.2388  0.4322 -1.3386
19258TIP3   OH279264   0.702   1.518  63.721 -0.4659 -0.3424 -0.3395
19258TIP3    H179265   0.722   1.603  63.759 -2.7860  0.6672 -1.1954
19258TIP3    H279266   0.663   1.468  63.792 -1.6957  0.3422 -0.5136
19259TIP3   OH279267   0.704   2.083  19.697  0.2165 -0.7916  0.2901
19259TIP3    H179268   0.708   2.007  19.638 -0.2252  0.1544 -1.0085
19259TIP3    H279269   0.707   2.158  19.638  1.3160  0.2167  1.5930
19260TIP3   OH279270   1.825   2.137  61.926  0.1269 -0.0634 -1.0735
19260TIP3    H179271   1.829   2.180  62.012  0.7919 -1.0158 -0.6127
19260TIP3    H279272   1.844   2.045  61.944 -1.5970 -0.6542 -1.9979
19261TIP3   OH279273   3.361   0.680   8.678  0.1861  0.3684  0.0525
19261TIP3    H179274   3.269   0.706   8.677 -0.3570 -1.4301 -1.2942
19261TIP3    H279275   3.367   0.612   8.745  0.0329 -1.0297 -1.2964
19262TIP3   OH279276   3.250   0.480   8.851 -0.3351  0.0245 -0.4242
19262TIP3    H179277   3.220   0.513   8.936  0.1739  1.2673 -0.7196
19262TIP3    H279278   3.260   0.385   8.865 -0.9411  0.1097  0.6934
19263TIP3   OH279279   1.615   1.923  64.858  0.1704  0.0979 -0.1944
19263TIP3    H179280   1.550   1.913  64.928  0.8203  0.2630  0.4458
19263TIP3    H279281   1.659   2.005  64.878  1.1822 -0.4526 -0.1039
19264TIP3   OH279282   0.508   0.420  66.684 -0.2461  0.0667 -0.2854
19264TIP3    H179283   0.447   0.485  66.650  0.6491  1.3841  0.5356
19264TIP3    H279284   0.461   0.336  66.676 -2.2303  1.0490  0.5184
19265TIP3   OH279285   1.078   1.602  59.510  0.6058  0.3731  0.2981
19265TIP3    H179286   0.987   1.612  59.539  1.0589  2.6027  1.1204
19265TIP3    H279287   1.087   1.665  59.438  1.6755  0.6464  0.6588
19266TIP3   OH279288   0.850   2.933  51.534 -0.0807 -0.2287 -0.4141
19266TIP3    H179289   0.893   3.004  51.487 -2.6420  1.8584  0.1932
19266TIP3    H279290   0.864   2.951  51.626  0.3684 -1.2892 -0.2545
19267TIP3   OH279291   0.891   2.261  47.213 -0.5000  0.1902 -0.1052
19267TIP3    H179292   0.903   2.344  47.167  0.9724 -0.1310 -0.3545
19267TIP3    H279293   0.887   2.195  47.144  0.6790 -0.1822  0.1653
19268TIP3   OH279294   3.346   1.394   3.197 -0.1421  0.2663 -0.3381
19268TIP3    H179295   3.410   1.439   3.253  0.8700  0.4182 -1.5809
19268TIP3    H279296   3.326   1.313   3.244  1.4035 -0.0556 -0.1644
19269TIP3   OH279297   1.779   2.391  44.249 -0.1523 -0.2696 -0.3381
19269TIP3    H179298   1.833   2.458  44.207 -3.3061  2.5518 -0.2783
19269TIP3    H279299   1.801   2.398  44.342 -0.0085  0.2848 -0.4048
19270TIP3   OH279300   0.395   1.517   0.375  0.2236 -0.1804  0.7345
19270TIP3    H179301   0.388   1.451   0.444  0.3556  0.2845  1.2032
19270TIP3    H279302   0.442   1.589   0.416 -0.4431  0.4486  0.4134
19271TIP3   OH279303   0.677   1.435  43.411 -0.2020 -0.2103  0.6035
19271TIP3    H179304   0.678   1.480  43.496 -1.8174 -1.9512  1.6309
19271TIP3    H279305   0.717   1.350  43.429 -0.3129 -0.5004 -0.4606
19272TIP3   OH279306   1.251   2.591  11.304 -0.3427 -0.0652 -0.5232
19272TIP3    H179307   1.179   2.577  11.242 -0.4927 -0.8924 -0.1831
19272TIP3    H279308   1.316   2.641  11.256 -0.7113 -0.1922 -1.1602
19273TIP3   OH279309   2.280   3.019  45.109  0.0048  0.4807  0.3965
19273TIP3    H179310   2.269   2.989  45.199  0.5734  1.8236  0.9513
19273TIP3    H279311   2.373   3.040  45.102  0.7072 -2.5760 -1.5200
19274TIP3   OH279312   3.331   0.503  29.137 -0.1823  0.4587 -0.2741
19274TIP3    H179313   3.278   0.576  29.167 -1.2163  0.4602 -1.9966
19274TIP3    H279314   3.268   0.434  29.115  0.6471 -0.2725 -0.4415
19275TIP3   OH279315   2.605   1.906   8.695  0.0348  0.3166  0.4769
19275TIP3    H179316   2.669   1.914   8.625 -0.2143  1.4646  0.3645
19275TIP3    H279317   2.641   1.959   8.767  0.1837 -0.6656  1.1456
19276TIP3   OH279318   0.367   1.783  51.370  0.1313 -0.0918 -0.1177
19276TIP3    H179319   0.272   1.775  51.365  0.1111  0.5197 -0.9058
19276TIP3    H279320   0.391   1.833  51.292  0.9383  1.1617  0.8998
19277TIP3   OH279321   1.875   0.949  47.669 -0.1215 -0.2515 -0.0414
19277TIP3    H179322   1.830   0.866  47.650 -1.2797 -0.1997  2.1072
19277TIP3    H279323   1.806   1.005  47.705  0.8486  1.3173 -0.5641
19278TIP3   OH279324   1.663   3.080  14.013 -0.0570  0.4862 -0.3206
19278TIP3    H179325   1.675   3.056  14.105  1.7257  0.7580 -0.4503
19278TIP3    H279326   1.625   3.001  13.973  2.6188 -1.0241 -0.0728
19279TIP3   OH279327   0.961   1.442  50.642 -0.6279  0.7810 -0.4453
19279TIP3    H179328   0.991   1.513  50.700 -0.3873 -0.1188  0.5714
19279TIP3    H279329   0.946   1.485  50.558 -1.4695  2.2407  0.3954
19280TIP3   OH279330   0.486   3.149  44.653  0.1913 -0.2539 -0.1300
19280TIP3    H179331   0.438   3.108  44.581  0.2981  0.6130 -0.6979
19280TIP3    H279332   0.423   3.208  44.694  0.1781 -0.6218  0.4065
19281TIP3   OH279333   0.999   3.269  11.267 -0.0056  0.1010 -0.3175
19281TIP3    H179334   0.984   3.362  11.284 -0.3416  0.4061 -2.0353
19281TIP3    H279335   1.084   3.251  11.308 -0.1615  1.0276  0.4595
19282TIP3   OH279336   0.646   2.734  14.095 -0.1465  0.1035  0.1157
19282TIP3    H179337   0.611   2.818  14.126  1.8205  0.8082  0.5907
19282TIP3    H279338   0.583   2.669  14.127 -1.7872  1.3696 -0.3660
19283TIP3   OH279339   0.913   2.573  16.781  0.1989 -0.3924  0.3418
19283TIP3    H179340   0.848   2.639  16.755  0.9166  0.6995  1.2657
19283TIP3    H279341   0.996   2.607  16.748  0.7280 -0.3045  1.7409
19284TIP3   OH279342   2.915   2.618  62.388  0.8304 -0.1038 -0.2234
19284TIP3    H179343   2.912   2.626  62.484  0.4501  1.1124 -0.3205
19284TIP3    H279344   2.826   2.635  62.359  0.8960 -0.6814 -0.7954
19285TIP3   OH279345   3.341   1.385  63.454 -0.1292  0.1223  0.2977
19285TIP3    H179346   3.396   1.420  63.385 -1.1827 -0.2190 -0.7624
19285TIP3    H279347   3.281   1.456  63.476 -1.6234 -0.6149 -1.1616
19286TIP3   OH279348   2.047   1.540  64.503 -0.1714 -0.2721 -0.1371
19286TIP3    H179349   2.026   1.592  64.581 -1.1055 -0.5065 -0.2142
19286TIP3    H279350   2.094   1.464  64.538  0.2816  0.1047  0.0889
19287TIP3   OH279351   0.483   2.218  13.732  0.6160  0.0342 -0.0126
19287TIP3    H179352   0.527   2.303  13.722  1.8360 -0.6119 -0.3806
19287TIP3    H279353   0.466   2.211  13.826 -0.6311  1.2168 -0.1310
19288TIP3   OH279354   1.377   1.239  11.584  0.2505 -0.3068 -0.1136
19288TIP3    H179355   1.286   1.263  11.566 -0.8540 -2.1144  2.4542
19288TIP3    H279356   1.382   1.145  11.565  1.7717 -0.1325 -0.7544
19289TIP3   OH279357   3.098   1.484  62.731 -0.4201 -0.0248 -0.2388
19289TIP3    H179358   3.180   1.508  62.688 -0.3887 -2.3588 -1.6706
19289TIP3    H279359   3.122   1.416  62.794 -1.1030  0.1544  0.2365
19290TIP3   OH279360   1.434   3.032   5.133  0.2274  1.0780  0.2660
19290TIP3    H179361   1.502   3.099   5.143  1.0997  0.3597 -0.6402
19290TIP3    H279362   1.463   2.980   5.059 -0.9416  0.2834  0.3460
19291TIP3   OH279363   0.626   1.872  22.612  0.1464 -0.5600  0.8463
19291TIP3    H179364   0.716   1.872  22.646 -0.9141 -1.1657  3.9027
19291TIP3    H279365   0.571   1.855  22.688 -2.7455  1.4632 -0.6050
19292TIP3   OH279366   3.137   1.127  12.253 -0.2854  0.0943  0.0966
19292TIP3    H179367   3.167   1.115  12.343 -0.1339  0.1861  0.0588
19292TIP3    H279368   3.168   1.215  12.230  0.7501 -0.4016 -0.4666
19293TIP3   OH279369   2.543   0.893   2.234  0.2301  0.1581  0.2508
19293TIP3    H179370   2.625   0.844   2.241 -0.0651 -0.1981  1.3574
19293TIP3    H279371   2.571   0.984   2.221  0.8248  0.1626  1.4410
19294TIP3   OH279372   0.072   2.665  44.632 -0.1906  0.2020 -0.0989
19294TIP3    H179373   0.087   2.706  44.718 -0.1480 -0.0871  0.0334
19294TIP3    H279374  -0.011   2.619  44.642  0.1333 -0.3664 -0.0136
19295TIP3   OH279375   1.987   0.853  19.807  0.2216  0.4211  0.6613
19295TIP3    H179376   2.082   0.870  19.811  0.3435 -0.1253  0.1215
19295TIP3    H279377   1.968   0.841  19.714 -0.0621 -1.1987  0.9019
19296TIP3   OH279378   3.237   1.306  45.664  0.4962  0.4121  0.0834
19296TIP3    H179379   3.206   1.216  45.655 -0.8568  0.7595  0.9561
19296TIP3    H279380   3.165   1.360  45.632  1.0322  1.2174  0.1856
19297TIP3   OH279381   0.440   0.047   5.750 -0.1564  0.5378 -0.0199
19297TIP3    H179382   0.451   0.064   5.844  1.5202  0.9560 -0.2598
19297TIP3    H279383   0.352   0.080   5.730 -0.0946  1.5034  1.1870
19298TIP3   OH279384   2.418   2.989   9.324 -0.5264 -0.3315 -0.5383
19298TIP3    H179385   2.499   3.040   9.332  0.3892 -1.9134  1.1850
19298TIP3    H279386   2.445   2.899   9.341 -2.6504 -0.9045  0.0996
19299TIP3   OH279387   1.120   0.349  20.725  0.2113 -0.1748 -0.0395
19299TIP3    H179388   1.184   0.382  20.661 -0.9600  2.0360 -0.1738
19299TIP3    H279389   1.172   0.332  20.804  1.5552 -2.2371 -1.2736
19300TIP3   OH279390   1.929   2.095  18.611 -0.6321  0.1587 -0.0272
19300TIP3    H179391   1.947   2.060  18.523  1.1104 -1.6159  0.9475
19300TIP3    H279392   1.949   2.188  18.603  0.0461 -0.0661 -1.4005
19301TIP3   OH279393   2.922   1.756   0.544 -0.5810 -0.2134  0.6130
19301TIP3    H179394   2.905   1.668   0.578  0.4732 -0.5328  0.3385
19301TIP3    H279395   2.838   1.801   0.552 -0.8012 -0.8161  2.0168
19302TIP3   OH279396   0.696   2.834  48.650 -0.4399  0.0393  0.3573
19302TIP3    H179397   0.639   2.858  48.723  0.1951  2.2517  0.2096
19302TIP3    H279398   0.784   2.858  48.679 -0.1419  0.6749 -0.9823
19303TIP3   OH279399   2.867   2.563  66.279 -1.0743 -0.5873 -0.6157
19303TIP3    H179400   2.911   2.492  66.327 -0.0622 -0.0821 -0.7553
19303TIP3    H279401   2.778   2.563  66.312 -0.2505  0.1959  1.8490
19304TIP3   OH279402   1.891   0.972   3.035 -0.6706  0.0607  0.5496
19304TIP3    H179403   1.910   1.063   3.012 -0.9051 -0.1611 -0.5821
19304TIP3    H279404   1.895   0.970   3.130  1.2935  0.8252  0.5248
19305TIP3   OH279405   0.652   1.583   0.732  0.1114  0.5225  0.4820
19305TIP3    H179406   0.587   1.534   0.782 -0.5430 -0.7054 -1.4699
19305TIP3    H279407   0.735   1.539   0.751 -0.5390 -1.8661 -1.6781
19306TIP3   OH279408   2.442   3.107  52.965 -0.4443  0.1640 -0.5432
19306TIP3    H179409   2.497   3.081  52.891  0.9280 -0.5526  0.7036
19306TIP3    H279410   2.471   3.195  52.987 -0.0281 -0.0819 -0.1034
19307TIP3   OH279411   2.875   1.667  44.431 -0.1650 -0.2607 -0.4255
19307TIP3    H179412   2.893   1.574  44.419 -1.4697 -0.5510 -0.2396
19307TIP3    H279413   2.786   1.680  44.399 -0.5138  0.6469  0.7903
19308TIP3   OH279414   0.442   3.186  66.083  0.7209  0.3274 -0.0101
19308TIP3    H179415   0.470   3.152  66.168  0.8084  2.4264  0.8758
19308TIP3    H279416   0.354   3.151  66.070  1.6721 -2.1138 -0.3389
19309TIP3   OH279417   1.538   2.778   2.682  0.0033  0.3954 -0.8629
19309TIP3    H179418   1.632   2.773   2.670 -0.0139  0.5675 -1.0729
19309TIP3    H279419   1.526   2.824   2.765  0.1598 -2.4495  0.8866
19310TIP3   OH279420   0.417   3.411  43.531  0.9693  0.2650  0.2091
19310TIP3    H179421   0.464   3.439  43.610 -1.9323  1.9304  1.5610
19310TIP3    H279422   0.369   3.490  43.503 -0.5190 -1.1041 -1.3481
19311TIP3   OH279423   1.549   1.995  18.473  0.3653  0.1608  0.1805
19311TIP3    H179424   1.616   1.956  18.418  0.3361  1.2253 -0.6561
19311TIP3    H279425   1.466   1.966  18.434  0.3423  1.2439 -0.6099
19312TIP3   OH279426   0.503   0.430  20.299 -0.1525 -0.1910 -0.1891
19312TIP3    H179427   0.566   0.361  20.277 -1.1411 -0.9694 -0.6495
19312TIP3    H279428   0.440   0.428  20.227 -1.2533 -0.0955  0.7459
19313TIP3   OH279429   2.765   3.418  43.275  0.0459 -0.5425 -0.1282
19313TIP3    H179430   2.708   3.429  43.351 -1.3184 -0.2780 -1.1722
19313TIP3    H279431   2.716   3.361  43.216  0.2481  0.8066 -1.6501
19314TIP3   OH279432   3.382   3.064   7.802 -0.3008  0.1413  0.0400
19314TIP3    H179433   3.296   3.082   7.838 -0.6754  0.1556 -0.8265
19314TIP3    H279434   3.436   3.041   7.878 -0.3600  2.6986  0.9343
19315TIP3   OH279435   1.419   2.953  11.371  0.4367  0.4201  0.6849
19315TIP3    H179436   1.336   2.907  11.380 -0.2466  1.6124  0.6820
19315TIP3    H279437   1.450   2.932  11.283  0.0476  0.1288  0.6187
19316TIP3   OH279438   1.435   0.094   7.927  0.7492  0.1348  0.3466
19316TIP3    H179439   1.393   0.177   7.950 -0.6817 -0.8391  1.3311
19316TIP3    H279440   1.431   0.092   7.831 -0.8861  0.3634  0.3880
19317TIP3   OH279441   1.197   3.258  56.295 -0.2761  0.0204 -0.0931
19317TIP3    H179442   1.143   3.307  56.358 -0.6250  0.8393 -1.0046
19317TIP3    H279443   1.287   3.273  56.325 -0.3740  1.2600 -0.3461
19318TIP3   OH279444   1.216   1.514   4.673 -0.5426 -0.4345  0.6112
19318TIP3    H179445   1.240   1.598   4.634  0.0132 -0.2230  1.3828
19318TIP3    H279446   1.226   1.528   4.767  2.2557 -2.1426  0.6768
19319TIP3   OH279447   0.776   0.686   4.469 -0.4793  0.0580 -0.1825
19319TIP3    H179448   0.716   0.674   4.543  0.3299  0.0446  0.4880
19319TIP3    H279449   0.786   0.598   4.432 -2.0510  0.2916 -1.2678
19320TIP3   OH279450   3.209   0.463  27.542  0.1908  0.2807  0.5850
19320TIP3    H179451   3.149   0.431  27.474  1.4044 -1.2012  0.1705
19320TIP3    H279452   3.201   0.401  27.613  1.0278  0.2248  0.6369
19321TIP3   OH279453   1.071   2.471  44.537  0.4109 -0.0318 -0.5981
19321TIP3    H179454   1.080   2.491  44.630  0.5915 -1.7841 -0.2030
19321TIP3    H279455   1.016   2.542  44.502 -3.5529 -1.6311  1.7508
19322TIP3   OH279456   1.716   1.925  15.403  0.2669 -0.0883  0.0634
19322TIP3    H179457   1.620   1.926  15.404  0.2159  0.0595 -1.7247
19322TIP3    H279458   1.740   1.993  15.341  1.6266  1.1897  1.9043
19323TIP3   OH279459   3.143   3.265  48.030  0.2783 -0.0970 -0.0434
19323TIP3    H179460   3.053   3.234  48.018  0.7572 -2.0279  0.8507
19323TIP3    H279461   3.151   3.280  48.125  0.8282  0.2828 -0.1403
19324TIP3   OH279462   1.724   2.479   1.525 -0.5588 -0.7574  0.0204
19324TIP3    H179463   1.784   2.409   1.500  0.1102 -0.1012 -0.2455
19324TIP3    H279464   1.721   2.537   1.449  0.6903  0.7128  1.0394
19325TIP3   OH279465   3.374   1.416  52.049  0.5678 -0.3439  0.3354
19325TIP3    H179466   3.433   1.405  52.124  0.1799 -1.2264  0.5262
19325TIP3    H279467   3.417   1.482  51.994  1.3033 -0.3451  0.8894
19326TIP3   OH279468   3.395   3.126  21.514  0.2354 -0.4869  0.1875
19326TIP3    H179469   3.455   3.053  21.496 -1.3652 -1.4706 -1.5311
19326TIP3    H279470   3.415   3.190  21.446 -1.3800 -1.3388 -1.1600
19327TIP3   OH279471   0.834   0.720   3.235 -0.0179  0.5873 -0.1713
19327TIP3    H179472   0.915   0.693   3.278 -0.1771  2.0498  1.1375
19327TIP3    H279473   0.847   0.812   3.213 -1.4596  0.9856  0.4772
19328TIP3   OH279474   3.418   1.249   1.975  0.2419  0.3431 -0.6815
19328TIP3    H179475   3.373   1.200   2.044  2.1674  0.9555  1.1234
19328TIP3    H279476   3.466   1.182   1.926 -0.5039 -0.0004 -0.9720
19329TIP3   OH279477   1.982   0.998  10.267  0.4963  0.3891 -0.2169
19329TIP3    H179478   1.955   1.083  10.231 -0.4892 -0.4437 -1.5221
19329TIP3    H279479   2.051   1.020  10.329 -0.1613  2.2062 -0.0652
19330TIP3   OH279480   0.953   3.416  17.685 -0.2797 -0.2213  0.0215
19330TIP3    H179481   0.960   3.322  17.668  0.2632 -0.1756 -0.0344
19330TIP3    H279482   1.039   3.440  17.720  0.2919  0.6313 -1.8341
19331TIP3   OH279483   0.274   3.049  54.211 -0.3051  0.2335  0.4995
19331TIP3    H179484   0.255   3.122  54.152  0.4773 -0.0601 -0.1330
19331TIP3    H279485   0.188   3.011  54.230 -0.7581  1.4945  1.0976
19332TIP3   OH279486   2.846   2.342  56.037  0.5011 -0.1792  0.0324
19332TIP3    H179487   2.821   2.250  56.030  0.9204 -0.4593  1.8188
19332TIP3    H279488   2.921   2.351  55.979  0.7116 -1.0667  0.1587
19333TIP3   OH279489   2.326   2.157  67.421 -0.0559 -0.3225  0.2698
19333TIP3    H179490   2.247   2.107  67.401 -0.6568  0.3525  0.8959
19333TIP3    H279491   2.388   2.132  67.353 -1.0856 -0.2441 -0.7332
19334TIP3   OH279492   1.370   2.241  20.951  0.0943  0.4016  0.4417
19334TIP3    H179493   1.392   2.180  20.880  0.1969  0.7877  0.1386
19334TIP3    H279494   1.454   2.261  20.992  0.1109  0.6461  0.2904
19335TIP3   OH279495   1.285   1.369  67.445  0.4080 -0.2080  0.3048
19335TIP3    H179496   1.197   1.339  67.468  0.4326 -0.8791 -0.4166
19335TIP3    H279497   1.324   1.294  67.398  1.0461  0.3920 -0.1459
19336TIP3   OH279498   3.328   2.041  66.704  0.0899 -0.1482  0.3476
19336TIP3    H179499   3.350   1.956  66.742 -0.2865 -0.1387  0.5938
19336TIP3    H279500   3.393   2.101  66.742  1.2057 -0.5459 -0.8578
19337TIP3   OH279501   2.429   1.400   4.267  0.1605  0.7462  0.5245
19337TIP3    H179502   2.404   1.432   4.180 -1.5776 -2.2692 -0.2353
19337TIP3    H279503   2.501   1.338   4.250  0.8825  1.3115  1.4447
19338TIP3   OH279504   1.857   1.769   9.875 -0.3268  0.3742  0.0176
19338TIP3    H179505   1.830   1.842   9.931 -2.6237 -0.8473  0.6287
19338TIP3    H279506   1.906   1.712   9.934 -3.0702 -1.1027  1.0711
19339TIP3   OH279507   1.799   0.188  27.925  0.1121 -0.6038  0.3461
19339TIP3    H179508   1.778   0.149  28.010 -0.0125 -1.2775  0.0108
19339TIP3    H279509   1.764   0.126  27.861 -1.9250  1.0222 -0.2193
19340TIP3   OH279510   2.262   1.755  63.274  0.0219  0.4156 -0.1377
19340TIP3    H179511   2.287   1.720  63.189 -0.9684 -0.8551  0.0566
19340TIP3    H279512   2.282   1.684  63.335 -2.3350 -0.0058  0.2388
19341TIP3   OH279513   3.022   2.913  49.472  0.6615  0.2372  0.6453
19341TIP3    H179514   3.112   2.944  49.480  0.4201  1.8869 -1.7796
19341TIP3    H279515   2.993   2.898  49.562  2.7219  1.5728  1.6025
19342TIP3   OH279516   0.666   1.948  33.998 -0.1044  0.2959  0.2460
19342TIP3    H179517   0.597   2.013  33.984 -0.2001  0.2424  0.4652
19342TIP3    H279518   0.641   1.874  33.943  0.1679  0.5618 -0.2496
19343TIP3   OH279519   1.525   2.562  46.747  0.2292 -0.6931  0.3572
19343TIP3    H179520   1.599   2.586  46.690  0.5912 -0.0004  1.1068
19343TIP3    H279521   1.522   2.632  46.812 -0.1844 -1.4801  1.1876
19344TIP3   OH279522   1.966   3.133   2.111 -0.6203 -0.3384 -0.0142
19344TIP3    H179523   1.997   3.223   2.120 -0.0591 -0.6795  1.7021
19344TIP3    H279524   2.044   3.079   2.122 -1.4173 -1.1281  2.3861
19345TIP3   OH279525   3.298   1.635  49.349  0.2083 -0.2480 -0.2616
19345TIP3    H179526   3.364   1.648  49.280  1.4657 -0.4476  0.8679
19345TIP3    H279527   3.260   1.722  49.363  0.3559 -0.0933 -0.7946
19346TIP3   OH279528   0.888   1.779   6.552 -0.3744 -0.1473 -0.3481
19346TIP3    H179529   0.837   1.845   6.598 -1.9524  0.0243 -2.1831
19346TIP3    H279530   0.979   1.798   6.573 -0.9217  1.3214  0.7947
19347TIP3   OH279531   2.686   3.212  21.312 -0.1063 -0.2984 -0.7909
19347TIP3    H179532   2.593   3.190  21.316  0.0330 -0.8069 -0.1162
19347TIP3    H279533   2.721   3.185  21.397  0.5339  0.4903 -0.7881
19348TIP3   OH279534   0.301   2.647  59.051  0.4756  0.1886 -0.1182
19348TIP3    H179535   0.265   2.728  59.015 -1.7904 -0.5936  0.2078
19348TIP3    H279536   0.396   2.658  59.047  0.2383  1.9952 -1.9812
19349TIP3   OH279537   2.195   0.464  43.306  0.1612  0.2631  0.5321
19349TIP3    H179538   2.191   0.384  43.253 -5.3100  2.9083 -4.3171
19349TIP3    H279539   2.270   0.512  43.270  1.9015 -1.4227  1.6875
19350TIP3   OH279540   1.599   1.258  21.390  0.2453 -0.1885 -0.0198
19350TIP3    H179541   1.551   1.176  21.402  0.8751 -0.7884 -1.3516
19350TIP3    H279542   1.540   1.312  21.337  0.6036 -0.5584 -0.8267
19351TIP3   OH279543   2.900   0.635  26.856  0.3098 -0.1858  0.6559
19351TIP3    H179544   2.921   0.728  26.856  2.4545 -0.6075 -0.2478
19351TIP3    H279545   2.853   0.621  26.774  0.8972 -0.0655  0.2929
19352TIP3   OH279546   0.620   1.419  48.677  0.0679 -0.0822 -0.5711
19352TIP3    H179547   0.624   1.389  48.586 -1.8989 -1.2560 -0.3301
19352TIP3    H279548   0.531   1.455  48.686  0.8369  1.6965  0.4189
19353TIP3   OH279549   2.144   1.628   8.602  1.1252 -0.2547 -0.2352
19353TIP3    H179550   2.205   1.564   8.638  3.0403  0.5647 -1.8284
19353TIP3    H279551   2.183   1.713   8.623 -0.8849  0.4318  1.0320
19354TIP3   OH279552   0.784   2.750  62.867  0.2200  0.0144 -0.0428
19354TIP3    H179553   0.718   2.793  62.813  0.2505 -0.3256 -0.3598
19354TIP3    H279554   0.854   2.727  62.806  0.2245 -0.4377  0.1280
19355TIP3   OH279555   1.144   1.928  42.505  0.4184  1.1510 -0.0157
19355TIP3    H179556   1.103   1.895  42.424  0.9410 -1.1613  0.5813
19355TIP3    H279557   1.076   1.918  42.571  0.2826  2.2131  0.0151
19356TIP3   OH279558   3.143   2.414  28.210 -0.3835  0.4882  0.2645
19356TIP3    H179559   3.122   2.496  28.165 -0.2114  1.3731  1.7203
19356TIP3    H279560   3.173   2.355  28.141 -1.0391  1.4604 -0.8889
19357TIP3   OH279561   2.349   0.520  49.499 -0.1535  0.5049 -0.4692
19357TIP3    H179562   2.434   0.564  49.502 -0.1104  0.5014 -1.3683
19357TIP3    H279563   2.363   0.444  49.443 -0.4739 -0.1217  0.2902
19358TIP3   OH279564   0.072   0.978  53.600  0.2618 -0.2933  0.1937
19358TIP3    H179565   0.013   0.997  53.527  0.3133 -2.1644 -0.3980
19358TIP3    H279566   0.152   0.947  53.558  1.1261  0.7131  1.0314
19359TIP3   OH279567   1.246   3.363  48.415 -0.3835  0.4167 -0.2469
19359TIP3    H179568   1.252   3.440  48.473 -1.5729  0.0965  0.3416
19359TIP3    H279569   1.162   3.373  48.371 -2.0425 -2.0163  2.0596
19360TIP3   OH279570   2.058   1.405  51.725 -0.0240 -0.2495 -0.0112
19360TIP3    H179571   2.119   1.469  51.762 -0.4328  0.1195  0.0232
19360TIP3    H279572   2.010   1.371  51.801 -1.6907  1.3550 -0.2659
19361TIP3   OH279573   1.861   0.711  52.357 -0.1711  0.2109 -0.0704
19361TIP3    H179574   1.949   0.748  52.356  0.5235 -1.3459  0.3842
19361TIP3    H279575   1.875   0.616  52.352 -1.8167 -0.0653  0.1119
19362TIP3   OH279576   0.410   2.803  54.421 -0.0882 -0.4544 -0.0453
19362TIP3    H179577   0.381   2.762  54.339 -0.0586 -0.1012 -0.2328
19362TIP3    H279578   0.495   2.763  54.439  0.2878  0.0637 -0.6225
19363TIP3   OH279579   0.252   2.282  10.497  0.2296 -0.2119  0.3308
19363TIP3    H179580   0.315   2.314  10.562 -0.3787  1.3504  0.2159
19363TIP3    H279581   0.305   2.244  10.427  0.9423 -0.7676  1.1512
19364TIP3   OH279582   2.636   2.033  19.732  0.5176 -0.4332  0.2019
19364TIP3    H179583   2.628   2.065  19.641  1.2781 -2.8197 -0.7792
19364TIP3    H279584   2.728   2.051  19.754  0.8265 -1.4296 -0.1944
19365TIP3   OH279585   0.826   3.150  39.315  0.1928 -0.3210  0.6238
19365TIP3    H179586   0.827   3.055  39.305 -0.2915 -0.3684  0.9736
19365TIP3    H279587   0.896   3.168  39.378  0.7050 -0.3818  0.0761
19366TIP3   OH279588   3.086   0.616  58.695 -0.6183 -0.0325 -0.2991
19366TIP3    H179589   3.066   0.671  58.620 -0.2796 -0.9037 -1.0358
19366TIP3    H279590   3.180   0.601  58.690 -0.6198 -0.2368  0.2055
19367TIP3   OH279591   2.073   0.748  44.284  0.4565  0.6133 -0.5538
19367TIP3    H179592   2.004   0.727  44.221  1.7181 -0.4750 -1.6390
19367TIP3    H279593   2.042   0.711  44.366  0.1117 -0.6745 -1.2308
19368TIP3   OH279594   0.295   1.799  62.659  0.0037 -0.1503  0.0046
19368TIP3    H179595   0.326   1.887  62.639 -0.5650  0.2272  0.7568
19368TIP3    H279596   0.363   1.763  62.717  0.8077 -0.6408 -1.1880
19369TIP3   OH279597   0.612   0.676  66.331  0.3872  0.1729  0.0010
19369TIP3    H179598   0.671   0.713  66.397 -0.2915  0.2808  0.5561
19369TIP3    H279599   0.585   0.752  66.279 -0.3068  0.3279  0.5842
19370TIP3   OH279600   1.756   0.088  14.637  0.1205  0.3080 -0.0891
19370TIP3    H179601   1.717   0.151  14.698 -1.1936 -1.3391  0.8468
19370TIP3    H279602   1.795   0.142  14.569 -3.9545  2.1863 -1.2341
19371TIP3   OH279603   0.733   1.025  55.417  0.0095  0.7381 -0.0395
19371TIP3    H179604   0.711   1.044  55.508 -0.9984  0.5236 -0.2337
19371TIP3    H279605   0.662   0.970  55.386  0.6730  0.2719 -0.7762
19372TIP3   OH279606   1.973   0.011  58.853  0.2495 -0.0189  0.4256
19372TIP3    H179607   2.064  -0.012  58.870  0.7327  1.8435  0.6609
19372TIP3    H279608   1.939  -0.060  58.798  2.0173 -0.4373 -0.1801
19373TIP3   OH279609   2.126   1.517  10.674  0.4157 -0.3713  0.4221
19373TIP3    H179610   2.191   1.586  10.661 -1.3934  1.2006 -0.6333
19373TIP3    H279611   2.164   1.441  10.630  1.1862  0.7346 -0.8933
19374TIP3   OH279612   0.785   0.508   8.093 -0.2970  0.0457 -0.1012
19374TIP3    H179613   0.777   0.442   8.025  1.2992  0.2178 -0.4829
19374TIP3    H279614   0.810   0.588   8.047  0.7669  0.1740  0.6633
19375TIP3   OH279615   2.113   0.003   5.257  0.4746  0.0107  0.3712
19375TIP3    H179616   2.038   0.049   5.294  0.7220  1.3792 -0.7263
19375TIP3    H279617   2.107  -0.086   5.292 -0.7654  0.5221  1.5297
19376TIP3   OH279618   1.475   0.383  51.051  0.2832 -0.6699 -0.2728
19376TIP3    H179619   1.450   0.375  50.959 -1.3714 -0.0154  0.0795
19376TIP3    H279620   1.435   0.307  51.094 -1.3188  0.4592  0.3255
19377TIP3   OH279621   1.319   2.424  14.355 -0.3429 -0.1580 -0.0898
19377TIP3    H179622   1.292   2.362  14.423  0.6797 -1.0093 -0.4376
19377TIP3    H279623   1.369   2.491  14.402 -0.0029 -0.5136  0.0566
19378TIP3   OH279624   3.330   2.368  19.297  0.0620 -0.0070 -0.0569
19378TIP3    H179625   3.325   2.280  19.334 -1.6654 -0.1353 -0.4901
19378TIP3    H279626   3.402   2.409  19.344  0.3685 -1.3787  0.7492
19379TIP3   OH279627   0.878   0.261  34.328 -0.3775 -0.2032 -0.4380
19379TIP3    H179628   0.813   0.285  34.262  0.0746  1.9224 -0.1941
19379TIP3    H279629   0.958   0.306  34.300  0.4626 -1.1542  0.3361
19380TIP3   OH279630   2.887   0.681  47.620 -0.0090  0.4907  0.3597
19380TIP3    H179631   2.911   0.761  47.665 -0.7838  0.6572  0.4891
19380TIP3    H279632   2.953   0.671  47.551  0.6900  0.6734  0.9991
19381TIP3   OH279633   3.189   2.980   5.246 -0.2704 -0.3256  0.1139
19381TIP3    H179634   3.254   2.922   5.285  0.0475  0.3463  0.6211
19381TIP3    H279635   3.232   3.016   5.168 -0.5591 -0.9482 -0.3415
19382TIP3   OH279636   3.034   3.439  15.522  0.5388 -0.0660 -0.1050
19382TIP3    H179637   3.018   3.470  15.611  1.9783  0.0992  0.1205
19382TIP3    H279638   3.073   3.352  15.533 -1.0440 -0.8783 -0.6542
19383TIP3   OH279639   1.389   1.199  51.685  0.1465 -0.1976 -0.1346
19383TIP3    H179640   1.425   1.120  51.725 -0.0579 -0.0103  0.4252
19383TIP3    H279641   1.386   1.263  51.756 -1.0748 -0.1434 -0.2179
19384TIP3   OH279642   1.517   0.407  10.628 -0.5132 -0.5441  0.1622
19384TIP3    H179643   1.535   0.340  10.561  0.8756  0.7117 -0.7855
19384TIP3    H279644   1.589   0.398  10.691 -0.6357 -0.3203  0.3334
19385TIP3   OH279645   3.067   1.603   5.237 -0.3166  0.2656  0.2862
19385TIP3    H179646   3.119   1.530   5.204  0.6591  1.0668 -0.0260
19385TIP3    H279647   3.079   1.600   5.332 -0.8182 -0.3588  0.3347
19386TIP3   OH279648   2.530   0.464  52.587  0.3698  0.0880  0.3629
19386TIP3    H179649   2.591   0.393  52.607  0.0542 -0.7038 -1.3706
19386TIP3    H279650   2.445   0.433  52.621  0.0796 -0.7227 -1.0426
19387TIP3   OH279651   2.645   1.218  56.386  0.3607  0.0693 -0.9620
19387TIP3    H179652   2.556   1.225  56.419  1.0494  0.5737  0.8632
19387TIP3    H279653   2.678   1.136  56.423  1.3715  0.9881  0.2483
19388TIP3   OH279654   0.454   1.447  54.701  0.1277  0.6206  0.5600
19388TIP3    H179655   0.429   1.483  54.787 -1.9741  2.4157 -0.6965
19388TIP3    H279656   0.374   1.409  54.667  0.9185 -0.0218 -0.6452
19389TIP3   OH279657   2.364   0.318  16.489 -0.6066 -0.5162  0.1711
19389TIP3    H179658   2.374   0.407  16.523 -1.0305 -0.6164  0.5640
19389TIP3    H279659   2.346   0.264  16.566 -0.5155 -0.9203 -0.0840
19390TIP3   OH279660   1.331   1.567  55.238  0.2215 -0.0272 -0.0957
19390TIP3    H179661   1.402   1.606  55.189 -0.3190  0.7397 -0.2803
19390TIP3    H279662   1.255   1.572  55.180 -0.1219 -0.2955  0.3208
19391TIP3   OH279663   0.326   2.310  52.730  0.2426 -0.5643  0.1294
19391TIP3    H179664   0.411   2.301  52.773 -0.3117 -1.7599  1.0464
19391TIP3    H279665   0.326   2.241  52.663  0.0476 -0.4816  0.0448
19392TIP3   OH279666   2.790   1.255  57.845 -0.0454 -0.1317 -0.1095
19392TIP3    H179667   2.814   1.172  57.804  1.2973  0.2439 -0.1246
19392TIP3    H279668   2.855   1.267  57.915 -1.0654  0.2295  0.8145
19393TIP3   OH279669   0.986   1.054  18.094  0.2508  0.0499  0.3886
19393TIP3    H179670   1.063   1.030  18.146  1.2648  2.1149 -0.0726
19393TIP3    H279671   1.014   1.043  18.003 -0.1724  0.2972  0.2243
19394TIP3   OH279672   2.761   0.251  62.509  0.3515  0.3611  0.2158
19394TIP3    H179673   2.850   0.246  62.473  1.3532  0.6653  2.4966
19394TIP3    H279674   2.739   0.344  62.505 -0.9826  0.0556 -2.6520
19395TIP3   OH279675   1.774   2.045  12.490  0.1009 -0.7405 -0.6751
19395TIP3    H179676   1.780   2.051  12.395  0.6474  0.8970 -0.5604
19395TIP3    H279677   1.693   2.091  12.512 -0.2498 -1.4829 -0.3513
19396TIP3   OH279678   1.109   1.783  54.750  0.2116  0.0677  0.2707
19396TIP3    H179679   1.081   1.838  54.823 -1.5652 -0.6146  0.1571
19396TIP3    H279680   1.110   1.694  54.786 -1.2766 -0.3610 -0.6264
19397TIP3   OH279681   1.654   3.214  57.267  0.4376 -0.2778 -0.3794
19397TIP3    H179682   1.698   3.178  57.190 -0.4311 -0.0815 -0.9889
19397TIP3    H279683   1.679   3.156  57.339 -0.8065 -2.0367 -1.3069
19398TIP3   OH279684   0.293   1.029  59.439  0.1694  0.6809 -0.2921
19398TIP3    H179685   0.300   1.048  59.532  1.4400  2.1030 -0.6364
19398TIP3    H279686   0.208   1.063  59.413  0.1519  1.0097  0.1930
19399TIP3   OH279687   2.729   0.378   7.610  0.4587 -0.5667 -0.2692
19399TIP3    H179688   2.789   0.418   7.548  1.5098 -1.8776 -0.1609
19399TIP3    H279689   2.743   0.426   7.691  1.0904 -0.5882 -0.3551
19400TIP3   OH279690   0.060   0.525   8.271 -0.5748 -0.3033  0.4948
19400TIP3    H179691   0.098   0.458   8.214 -0.1507  1.1626 -1.0224
19400TIP3    H279692   0.127   0.540   8.337  1.0179  1.2327 -1.3363
19401TIP3   OH279693   2.281   2.564   1.496  0.9629 -0.0915 -0.2919
19401TIP3    H179694   2.356   2.514   1.527 -0.4137 -0.5620  2.7086
19401TIP3    H279695   2.208   2.502   1.500 -0.4665  1.5759  1.8019
19402TIP3   OH279696   1.941   1.277  62.362 -0.8898 -0.5734  0.6361
19402TIP3    H179697   1.985   1.302  62.443 -1.1029 -0.4354  0.7080
19402TIP3    H279698   1.997   1.314  62.292 -1.8050  1.1325  0.7561
19403TIP3   OH279699   0.566   1.664  55.289  0.7407  0.2217 -0.0101
19403TIP3    H179700   0.497   1.706  55.341  0.1491 -0.2481 -0.3968
19403TIP3    H279701   0.641   1.659  55.349  0.2566  0.2188  0.6157
19404TIP3   OH279702   1.078   0.523   0.831 -0.5414 -0.1810 -0.4549
19404TIP3    H179703   1.136   0.481   0.767 -1.3599 -0.2808 -1.1447
19404TIP3    H279704   0.990   0.494   0.806 -0.8666 -0.3428  0.8058
19405TIP3   OH279705   3.410   2.394  65.416  0.6946  0.1239  0.4978
19405TIP3    H179706   3.410   2.325  65.350  1.1275 -0.3363  0.9681
19405TIP3    H279707   3.503   2.413  65.431  0.5944  0.3965  0.7973
19406TIP3   OH279708   1.592   3.173  55.393 -0.0168 -0.0066 -0.7376
19406TIP3    H179709   1.520   3.113  55.415 -0.1198  0.4333  0.1564
19406TIP3    H279710   1.670   3.117  55.392  0.1311  0.0481  1.6226
19407TIP3   OH279711   2.336   0.724  51.263  0.6211 -0.2370 -0.2507
19407TIP3    H179712   2.427   0.752  51.259  0.6130 -0.2160 -0.2976
19407TIP3    H279713   2.296   0.764  51.185  0.1354  1.3700  0.7826
19408TIP3   OH279714   1.095   2.596  17.139 -0.0993 -0.0586 -0.3945
19408TIP3    H179715   1.120   2.523  17.195  0.0624  1.0695  1.0828
19408TIP3    H279716   1.179   2.631  17.106  0.0555  1.1221  1.1418
19409TIP3   OH279717   1.640   2.829  64.157 -1.0076  0.4454  0.7890
19409TIP3    H179718   1.712   2.843  64.096  1.3043 -2.4293  2.5692
19409TIP3    H279719   1.643   2.904  64.217  1.9668 -0.5548  2.0427
19410TIP3   OH279720   1.242   3.295  54.675 -0.3537 -0.8958 -0.2535
19410TIP3    H179721   1.312   3.355  54.649  0.9386 -1.7387  1.1350
19410TIP3    H279722   1.212   3.327  54.760 -0.3462 -1.6311  0.0363
19411TIP3   OH279723   0.181   1.688  64.552  0.0436 -0.5555  0.2281
19411TIP3    H179724   0.101   1.634  64.549 -1.2974  1.2497  1.4699
19411TIP3    H279725   0.199   1.708  64.460 -1.3538 -0.4248 -0.0497
19412TIP3   OH279726   0.871   0.456  15.930 -0.2537 -0.1337  0.0511
19412TIP3    H179727   0.951   0.408  15.950  0.2732  1.0309  0.8531
19412TIP3    H279728   0.800   0.397  15.957  0.3786 -0.3966  1.2087
19413TIP3   OH279729   0.916   1.691  11.061  0.5649  0.3256 -0.4906
19413TIP3    H179730   0.922   1.636  10.983 -0.1207  1.5277 -1.4216
19413TIP3    H279731   0.951   1.776  11.033  1.1341  0.5375  0.7736
19414TIP3   OH279732   1.685   3.396  10.211  0.2259  0.0500  0.0087
19414TIP3    H179733   1.688   3.368  10.302 -1.4689  0.5467  0.2610
19414TIP3    H279734   1.609   3.455  10.207 -0.1416 -0.4771 -1.8432
19415TIP3   OH279735   1.861   0.178  14.096 -0.2853 -0.2886 -0.3666
19415TIP3    H179736   1.876   0.258  14.147  0.0925 -0.2173 -0.5880
19415TIP3    H279737   1.861   0.108  14.161 -0.0938 -0.1658 -0.2337
19416TIP3   OH279738   2.000   1.746   2.590 -0.0034  0.5039 -0.3291
19416TIP3    H179739   2.026   1.817   2.530 -0.0599  0.1526 -0.7739
19416TIP3    H279740   1.909   1.729   2.567 -0.0255  0.3691 -0.1372
19417TIP3   OH279741   3.280   1.937   7.649  0.3339  0.8193 -0.8970
19417TIP3    H179742   3.331   1.925   7.569  0.0767 -3.6650 -0.6526
19417TIP3    H279743   3.197   1.974   7.619  0.8088  0.6859 -2.4988
19418TIP3   OH279744   3.355   1.308  57.602 -0.9722 -0.2988  0.1236
19418TIP3    H179745   3.445   1.304  57.633 -0.6249  3.3802 -0.0282
19418TIP3    H279746   3.336   1.218  57.574  1.7007 -1.8067  2.5293
19419TIP3   OH279747   0.063   2.675  47.349  0.7147  0.3299 -0.0195
19419TIP3    H179748   0.132   2.738  47.326  0.8884  0.0547 -0.2724
19419TIP3    H279749   0.105   2.589  47.337  0.3450  0.1631 -0.1217
19420TIP3   OH279750   0.510   3.430  17.685  0.8256  0.0957 -0.5637
19420TIP3    H179751   0.590   3.425  17.737 -0.2950 -0.8981  1.1793
19420TIP3    H279752   0.512   3.517  17.646  0.9880  1.6230  2.5059
19421TIP3   OH279753   1.390   2.679  49.821 -0.2228 -0.0329  1.0383
19421TIP3    H179754   1.464   2.722  49.780  0.2733 -1.8778 -0.1507
19421TIP3    H279755   1.357   2.619  49.754 -2.9396  0.8668  1.4544
19422TIP3   OH279756   1.140   1.080  19.917 -0.3478  0.3520 -0.2265
19422TIP3    H179757   1.170   1.147  19.855 -0.0385  0.4596  0.0341
19422TIP3    H279758   1.179   0.998  19.885  2.6187  0.8621  1.6101
19423TIP3   OH279759   2.100   2.414  44.393  0.2595 -0.4198 -0.3703
19423TIP3    H179760   2.063   2.466  44.321  1.6367  2.2230  0.7166
19423TIP3    H279761   2.027   2.405  44.455  0.7184  3.2734  0.9667
19424TIP3   OH279762   0.451   1.110  44.492  0.1649  0.0502  0.4917
19424TIP3    H179763   0.467   1.028  44.539  2.6211  1.3634  2.1862
19424TIP3    H279764   0.369   1.096  44.446  0.9889 -3.7418 -0.1698
19425TIP3   OH279765   0.266   1.452   6.401 -0.0633  0.3476  0.0033
19425TIP3    H179766   0.268   1.474   6.494 -1.8059 -2.8116  0.9229
19425TIP3    H279767   0.326   1.377   6.393 -0.5060  0.1022 -1.2570
19426TIP3   OH279768   1.985   2.021  57.201 -0.0145 -0.4155 -0.2752
19426TIP3    H179769   1.988   2.066  57.286 -2.3364 -0.5330 -0.0628
19426TIP3    H279770   2.008   2.088  57.137  0.9762 -0.1200  0.3641
19427TIP3   OH279771   2.134   0.430  53.541  0.0482 -0.0712  0.0649
19427TIP3    H179772   2.181   0.347  53.553 -0.6777 -0.8959 -2.2465
19427TIP3    H279773   2.191   0.482  53.485 -0.6560 -0.0932 -0.6887
19428TIP3   OH279774   0.959   1.507  54.001 -0.0570 -0.1148 -0.0815
19428TIP3    H179775   0.941   1.418  53.970 -2.4610  0.3136 -0.0912
19428TIP3    H279776   0.996   1.495  54.088 -1.0152 -1.1198  0.2039
19429TIP3   OH279777   2.876   1.816  43.601 -0.0481  0.2918 -0.5203
19429TIP3    H179778   2.936   1.788  43.671  0.8108  2.6217 -0.2479
19429TIP3    H279779   2.899   1.760  43.527  0.4324 -0.8434  0.4346
19430TIP3   OH279780   1.293   0.944  44.769  0.0168  0.0714 -0.1387
19430TIP3    H179781   1.361   0.997  44.729  0.5377 -0.0257  0.5997
19430TIP3    H279782   1.249   1.003  44.830 -0.6708  0.1792 -0.7301
19431TIP3   OH279783   3.223   2.036  45.517  0.0844 -0.1431 -0.0284
19431TIP3    H179784   3.148   2.053  45.574  0.2186 -0.2739  0.1895
19431TIP3    H279785   3.256   1.951  45.545 -1.3084 -1.3801 -1.8716
19432TIP3   OH279786   1.178   2.303  56.445  0.0318  0.0670 -0.3100
19432TIP3    H179787   1.177   2.273  56.354 -0.3808  0.9898 -0.6200
19432TIP3    H279788   1.263   2.272  56.478  0.7001  0.6943 -1.3529
19433TIP3   OH279789   0.704   2.142   7.865  0.1472 -0.0220  0.2305
19433TIP3    H179790   0.724   2.049   7.880  1.4139  0.4904  2.1025
19433TIP3    H279791   0.707   2.152   7.770 -1.4832 -2.1762 -0.1260
19434TIP3   OH279792   2.818   3.031  17.762 -0.2793 -0.5027 -0.0388
19434TIP3    H179793   2.857   2.957  17.807  0.3087  0.3708  0.9406
19434TIP3    H279794   2.753   3.065  17.824 -1.0222 -0.5797 -0.7455
19435TIP3   OH279795   3.086   0.460  42.910 -0.5292 -0.1238 -0.1456
19435TIP3    H179796   3.013   0.513  42.942 -0.3392  0.3823 -0.5253
19435TIP3    H279797   3.048   0.402  42.845 -0.2656  1.6074 -1.9217
19436TIP3   OH279798   2.111   0.199  43.248  0.2304 -0.5770  0.0083
19436TIP3    H179799   2.020   0.169  43.254  0.4508 -1.3040 -0.2247
19436TIP3    H279800   2.153   0.137  43.189  1.4700 -1.7257  1.9981
19437TIP3   OH279801   3.013   2.680  44.865  0.6077 -0.5113 -0.0536
19437TIP3    H179802   3.048   2.599  44.901  1.8137 -1.1026 -2.3259
19437TIP3    H279803   2.950   2.651  44.799  0.3290  0.4396 -0.2219
19438TIP3   OH279804   3.084   0.550  53.963  0.4973 -0.3086 -0.3629
19438TIP3    H179805   3.012   0.595  54.008  0.1264 -1.1515 -0.0768
19438TIP3    H279806   3.115   0.613  53.899 -0.5904  0.0318 -0.5908
19439TIP3   OH279807   2.099   0.464  11.556 -1.1409  0.2421 -0.0336
19439TIP3    H179808   2.166   0.531  11.543 -2.0028  0.8868 -1.3942
19439TIP3    H279809   2.075   0.437  11.468 -1.6970 -0.9681  0.4727
19440TIP3   OH279810   0.052   2.866  15.073  0.0108 -0.2797  0.3944
19440TIP3    H179811  -0.003   2.799  15.113 -1.1676  0.5881  0.2838
19440TIP3    H279812   0.078   2.922  15.146 -0.0098 -0.1673  0.3154
19441TIP3   OH279813   2.115   2.921  50.672 -0.1218 -0.0920 -0.2027
19441TIP3    H179814   2.023   2.898  50.686 -0.4697 -0.3963 -2.5815
19441TIP3    H279815   2.125   3.007  50.713 -0.8835 -0.9539  1.9111
19442TIP3   OH279816   2.188   0.380   5.847 -0.0237 -0.8529  0.2049
19442TIP3    H179817   2.204   0.319   5.774 -0.2740  1.8511 -2.3060
19442TIP3    H279818   2.116   0.435   5.817  2.0674  2.5705  0.9653
19443TIP3   OH279819   2.916   2.404  44.857  0.5398  0.1298 -0.2036
19443TIP3    H179820   2.850   2.462  44.896 -0.3023 -0.0761 -1.2654
19443TIP3    H279821   2.949   2.352  44.930 -0.5660  0.1512  0.3236
19444TIP3   OH279822   0.527   0.324  53.531 -0.3806  0.0374  0.2476
19444TIP3    H179823   0.602   0.383  53.527 -0.8980  0.6509 -2.2019
19444TIP3    H279824   0.543   0.269  53.608  0.8057  2.4097  1.7908
19445TIP3   OH279825   2.863   3.001  13.453  0.5312  0.1931  0.2247
19445TIP3    H179826   2.904   2.928  13.499 -2.1546 -0.4857  1.8014
19445TIP3    H279827   2.854   2.972  13.363  1.5805 -0.4605  0.3216
19446TIP3   OH279828   0.795   0.941  60.557  0.0946  0.2969  0.0027
19446TIP3    H179829   0.709   0.909  60.583 -1.1543  3.1455 -0.2320
19446TIP3    H279830   0.788   0.953  60.462  0.4197  1.4004  0.1068
19447TIP3   OH279831   1.153   2.157  49.489 -0.4199 -0.2174  0.6367
19447TIP3    H179832   1.140   2.239  49.440 -1.1790  0.1039  1.3565
19447TIP3    H279833   1.243   2.162  49.521  0.5563 -0.9919 -1.7061
19448TIP3   OH279834   1.362   3.116  49.050  0.2965  0.5312  0.9349
19448TIP3    H179835   1.449   3.103  49.012 -0.2909  0.1063 -0.3047
19448TIP3    H279836   1.346   3.210  49.042 -0.1739  0.3439 -0.7374
19449TIP3   OH279837   3.078   0.723  63.178 -0.3475  0.2638  0.1970
19449TIP3    H179838   3.058   0.634  63.148 -1.5207 -0.3116  2.4329
19449TIP3    H279839   3.164   0.742  63.141 -0.3276 -1.5744 -0.8241
19450TIP3   OH279840   0.835   0.107  57.426  0.3772 -0.0367 -0.0990
19450TIP3    H179841   0.798   0.128  57.512 -1.8515 -1.7239 -0.5573
19450TIP3    H279842   0.830   0.189  57.377 -3.8204 -0.2390 -0.4087
19451TIP3   OH279843   3.132   2.592  29.695  0.3595  0.5814  0.0754
19451TIP3    H179844   3.157   2.668  29.642  0.2700  1.4548  1.2283
19451TIP3    H279845   3.050   2.620  29.737 -0.9201 -1.0155 -1.1907
19452TIP3   OH279846   2.562   2.089  45.012  0.1094  0.5027 -0.7816
19452TIP3    H179847   2.651   2.069  45.040  0.6679  1.4728 -1.7827
19452TIP3    H279848   2.551   2.182  45.032 -1.2729  0.0417  0.8248
19453TIP3   OH279849   3.234   1.492  54.635 -0.3646  0.0413 -0.2514
19453TIP3    H179850   3.263   1.419  54.690 -0.1344 -0.7953 -1.4282
19453TIP3    H279851   3.314   1.529  54.599 -0.5497  0.0459 -0.6666
19454TIP3   OH279852   1.798   1.884  65.911 -0.0647  0.9797 -0.4060
19454TIP3    H179853   1.863   1.951  65.891  1.4561  0.0234  1.0804
19454TIP3    H279854   1.764   1.907  65.997  1.7749 -0.9843  0.9697
19455TIP3   OH279855   3.344   0.302  51.836 -0.2423  0.7540  0.2520
19455TIP3    H179856   3.387   0.385  51.857 -0.3589  0.5720  1.2761
19455TIP3    H279857   3.327   0.306  51.742 -0.5207  2.0225  0.3451
19456TIP3   OH279858   0.209   1.989  44.468 -0.2975  0.3580  0.0786
19456TIP3    H179859   0.227   2.019  44.557 -0.2616  1.7771 -0.3799
19456TIP3    H279860   0.127   1.940  44.476  0.1833 -0.3344  1.0318
19457TIP3   OH279861   0.140   1.644  13.880 -0.1422 -0.6685  0.2496
19457TIP3    H179862   0.110   1.689  13.959 -2.6613 -0.8691 -0.4929
19457TIP3    H279863   0.184   1.712  13.829 -1.7178  0.4129  0.2410
19458TIP3   OH279864   0.860   0.339   0.736 -0.4410 -0.6862 -0.3906
19458TIP3    H179865   0.793   0.352   0.804  1.3707  1.5492  1.1259
19458TIP3    H279866   0.919   0.273   0.772  1.3516  1.5522  1.0424
19459TIP3   OH279867   1.809   3.372   8.065  0.0589  0.4221  0.1369
19459TIP3    H179868   1.897   3.394   8.095 -0.8472  1.8647  1.9643
19459TIP3    H279869   1.799   3.279   8.086  0.8455  0.4603  0.7412
19460TIP3   OH279870   0.941   3.036  60.381 -0.1593  0.2582  0.1174
19460TIP3    H179871   0.899   3.018  60.465  0.8455  0.8841  0.7739
19460TIP3    H279872   0.876   3.011  60.316 -0.2843 -2.0208  1.0282
19461TIP3   OH279873   0.021   2.981  49.599  0.3909 -0.1466  0.2041
19461TIP3    H179874   0.039   2.903  49.546 -0.6492 -1.2441  1.3664
19461TIP3    H279875  -0.071   3.000  49.583  1.3203  2.7981 -2.4300
19462TIP3   OH279876   2.167   1.779  43.813 -0.5804 -0.0785  0.1579
19462TIP3    H179877   2.130   1.691  43.823 -1.3817  0.0903 -1.1078
19462TIP3    H279878   2.133   1.828  43.887 -2.1813 -0.1712 -0.4876
19463TIP3   OH279879   2.546   0.924  52.326  0.4112 -0.0044 -0.7095
19463TIP3    H179880   2.488   0.997  52.304 -0.4555 -0.2157  0.7829
19463TIP3    H279881   2.562   0.880  52.242 -2.4211 -0.5492 -1.0527
19464TIP3   OH279882   0.440   3.153  52.331  0.2568  0.2203 -0.1653
19464TIP3    H179883   0.467   3.231  52.282 -1.3908  0.5906 -0.5624
19464TIP3    H279884   0.414   3.187  52.417 -0.0276  0.0436 -0.1816
19465TIP3   OH279885   2.687   1.984  48.075  0.4083  0.2824 -0.0962
19465TIP3    H179886   2.748   1.976  48.002  1.4509  0.6448  0.7015
19465TIP3    H279887   2.648   1.897  48.083  0.3500  0.2173 -1.0224
19466TIP3   OH279888   2.015   1.800  11.916  0.3220  0.5857  0.5116
19466TIP3    H179889   2.108   1.794  11.938  0.7418  0.2653 -1.2182
19466TIP3    H279890   1.986   1.881  11.957  1.1814  0.3426  1.6594
19467TIP3   OH279891   0.572   0.616  62.371  0.1180 -0.0846 -0.2403
19467TIP3    H179892   0.607   0.535  62.406 -0.5041  0.1126  0.8875
19467TIP3    H279893   0.645   0.656  62.323  0.9692 -0.4142  0.7593
19468TIP3   OH279894   2.231   2.044   6.090  0.8735 -0.2828  0.3111
19468TIP3    H179895   2.185   2.101   6.028 -0.2581  0.4890  1.7913
19468TIP3    H279896   2.302   2.005   6.039 -0.0867  0.2169 -1.4868
19469TIP3   OH279897   2.102   2.079  15.085  0.2413  0.4539 -0.4331
19469TIP3    H179898   2.052   2.161  15.091  0.4433  0.6164 -0.9692
19469TIP3    H279899   2.089   2.049  14.996 -1.0753 -0.9042  0.1645
19470TIP3   OH279900   2.722   0.652  44.320  0.3245  0.8207 -0.2493
19470TIP3    H179901   2.684   0.614  44.240  0.7197  0.3331 -0.2067
19470TIP3    H279902   2.678   0.607  44.391  1.2461 -0.0409 -0.2014
19471TIP3   OH279903   0.991   1.898  50.417  0.0732 -0.2716  0.0005
19471TIP3    H179904   0.944   1.970  50.374 -1.4187 -0.3439  1.4001
19471TIP3    H279905   1.003   1.833  50.348 -0.5027  0.4188 -0.7706
19472TIP3   OH279906   1.561   0.929  55.461 -0.1549 -0.0611  0.3927
19472TIP3    H179907   1.618   1.006  55.458  0.2380 -0.2566  2.0917
19472TIP3    H279908   1.480   0.958  55.418  0.0001  1.3018  0.9513
19473TIP3   OH279909   1.210   0.293  10.199 -0.1331  0.4207  0.4525
19473TIP3    H179910   1.252   0.242  10.268  0.7954 -1.1379 -1.1879
19473TIP3    H279911   1.278   0.356  10.173 -1.0383  2.1272  1.9980
19474TIP3   OH279912   2.732   1.746   8.995  0.2143  0.2209 -0.3556
19474TIP3    H179913   2.652   1.779   9.036  0.9654  0.4543  0.9779
19474TIP3    H279914   2.704   1.667   8.949 -1.0107  0.9672 -0.9482
19475TIP3   OH279915   2.154   1.896   2.392 -1.0399  0.1896 -0.4531
19475TIP3    H179916   2.237   1.849   2.383 -0.4937  0.8785  0.8332
19475TIP3    H279917   2.175   1.987   2.372 -1.4288  0.4070  0.1003
19476TIP3   OH279918   1.412   2.232  58.971  0.2151  0.2291  0.3987
19476TIP3    H179919   1.351   2.159  58.963  1.3077 -0.6980  0.2737
19476TIP3    H279920   1.470   2.224  58.895  1.5763  0.0332  1.4095
19477TIP3   OH279921   1.220   1.580  10.499  0.1628 -0.7805 -0.2969
19477TIP3    H179922   1.183   1.525  10.430  1.6281 -2.8841  0.4864
19477TIP3    H279923   1.208   1.669  10.468  0.6784 -1.6277 -3.2423
19478TIP3   OH279924   1.151   2.331  67.342 -0.1427  0.6048 -0.1617
19478TIP3    H179925   1.247   2.326  67.346 -0.2187 -1.4704  0.0092
19478TIP3    H279926   1.125   2.356  67.430  0.1933 -0.5250  0.2801
19479TIP3   OH279927   0.657   1.204   5.674  0.3631  0.2114  0.3943
19479TIP3    H179928   0.665   1.265   5.601 -0.1678 -0.3079 -0.1031
19479TIP3    H279929   0.673   1.258   5.752 -0.0528  0.9767 -0.0392
19480TIP3   OH279930   0.202   1.484   3.884  0.0703 -0.0256 -0.2746
19480TIP3    H179931   0.286   1.499   3.840  0.4811 -0.4561  0.3514
19480TIP3    H279932   0.194   1.388   3.887 -0.3510  0.0122 -0.1557
19481TIP3   OH279933   1.303   2.936  50.409  0.4609  0.0072 -0.1376
19481TIP3    H179934   1.264   2.983  50.483 -0.9163 -1.3787  0.0713
19481TIP3    H279935   1.257   2.969  50.332  1.0299  0.5494 -0.2590
19482TIP3   OH279936   1.108   2.236   1.780  0.8074  0.0629 -0.2139
19482TIP3    H179937   1.082   2.266   1.867  0.3561 -0.0187 -0.3206
19482TIP3    H279938   1.125   2.317   1.731  1.5309  0.0994  0.0910
19483TIP3   OH279939   0.706   0.909  19.890 -0.1130  0.3787 -0.1104
19483TIP3    H179940   0.645   0.918  19.817 -0.7328 -0.2309  0.3093
19483TIP3    H279941   0.656   0.938  19.966 -0.3623 -1.3556  0.4491
19484TIP3   OH279942   3.393   2.453   9.218 -0.2113 -0.1879  0.1696
19484TIP3    H179943   3.374   2.386   9.284  1.9139  0.4230  1.5174
19484TIP3    H279944   3.381   2.409   9.134  0.8533 -2.2008  1.0060
19485TIP3   OH279945   0.813   0.844  35.120 -0.2258  0.0654  0.0842
19485TIP3    H179946   0.806   0.785  35.195 -0.6601 -0.3037 -0.2406
19485TIP3    H279947   0.782   0.928  35.153 -2.4227 -0.5655 -0.2035
19486TIP3   OH279948   2.908   1.211  66.126 -0.5621 -0.1697 -0.1624
19486TIP3    H179949   2.969   1.277  66.160 -0.6850  0.6087 -1.4078
19486TIP3    H279950   2.963   1.135  66.110  0.3027  0.7742 -2.0266
19487TIP3   OH279951   0.038   0.974   9.116 -0.0799  0.0547 -0.0555
19487TIP3    H179952   0.078   0.889   9.133 -0.0128  0.2472  0.7582
19487TIP3    H279953  -0.009   0.962   9.033 -1.0946 -1.1227  0.6544
19488TIP3   OH279954   3.299   3.346  45.164 -0.0946  0.2833  0.1023
19488TIP3    H179955   3.235   3.315  45.101  0.8796 -0.6116 -0.4837
19488TIP3    H279956   3.354   3.406  45.115 -0.7405  1.4084  0.7199
19489TIP3   OH279957   1.122   2.860  44.445  0.2101  0.5820 -0.0790
19489TIP3    H179958   1.061   2.848  44.518  0.6344  0.7443  0.3015
19489TIP3    H279959   1.186   2.790  44.456  0.3865  0.7273 -0.1826
19490TIP3   OH279960   1.101   2.786  59.520  0.2784 -0.2747  0.1708
19490TIP3    H179961   1.164   2.714  59.521  1.9137  1.0879  1.5516
19490TIP3    H279962   1.027   2.754  59.571  2.6163  0.2358  4.3331
19491TIP3   OH279963   1.191   3.032  44.224  0.7632 -0.3796 -0.9435
19491TIP3    H179964   1.234   2.958  44.182  1.0053 -0.4423 -0.5884
19491TIP3    H279965   1.154   2.996  44.304  2.0968  0.1540 -0.0404
19492TIP3   OH279966   0.251   2.954   2.095  0.3208  0.3386  0.5610
19492TIP3    H179967   0.246   2.880   2.034  0.1898 -0.3276  1.3680
19492TIP3    H279968   0.245   2.915   2.182  0.3302  1.2939  1.0100
19493TIP3   OH279969   1.688   3.278  26.918 -0.3450 -0.0724 -0.7412
19493TIP3    H179970   1.632   3.233  26.981 -0.8724  0.2961 -0.9415
19493TIP3    H279971   1.651   3.254  26.832 -1.2167  1.4896 -0.8233
19494TIP3   OH279972   2.525   2.921  21.944 -0.1060  0.6055  0.4130
19494TIP3    H179973   2.592   2.989  21.951  0.5621 -0.1411  1.5847
19494TIP3    H279974   2.442   2.967  21.959  0.0364  1.6496 -1.6771
19495TIP3   OH279975   3.183   1.463  16.333  0.0850 -0.1446  0.3169
19495TIP3    H179976   3.192   1.487  16.240  1.1405  1.1762  0.7362
19495TIP3    H279977   3.222   1.375  16.339 -0.7178 -0.5873 -0.6186
19496TIP3   OH279978   1.980   1.236  56.980  0.1255  0.0495 -0.0388
19496TIP3    H179979   2.019   1.200  57.060  0.6606 -0.0373 -0.3329
19496TIP3    H279980   1.988   1.331  56.991 -0.5096  0.0600  0.3542
19497TIP3   OH279981   3.415   2.751  22.315 -0.0039  0.3402  0.2587
19497TIP3    H179982   3.443   2.735  22.405 -0.6309  0.5069  0.4904
19497TIP3    H279983   3.320   2.738  22.317 -0.0119  0.2668 -0.3965
19498TIP3   OH279984   2.393   1.138  52.771 -0.2267 -0.3664 -0.9403
19498TIP3    H179985   2.436   1.214  52.730  0.4722 -0.0514  0.3184
19498TIP3    H279986   2.413   1.065  52.712  1.6437 -0.1255 -0.6687
19499TIP3   OH279987   2.185   1.764   0.313  0.2413  0.8452 -0.4077
19499TIP3    H179988   2.104   1.786   0.359  0.7466 -0.0487  0.9612
19499TIP3    H279989   2.163   1.775   0.220 -1.6268  0.0860 -0.1090
19500TIP3   OH279990   2.819   1.576  22.663 -0.1954 -0.0517 -0.1811
19500TIP3    H179991   2.725   1.590  22.675 -0.2756 -1.8458  1.7134
19500TIP3    H279992   2.861   1.630  22.730  0.0464 -0.3214 -0.1112
19501TIP3   OH279993   2.360   2.103   0.453  0.3298 -0.7135 -0.0071
19501TIP3    H179994   2.305   2.179   0.471  1.6215  0.6132 -1.4807
19501TIP3    H279995   2.309   2.050   0.392 -0.3621 -0.7897  0.6284
19502TIP3   OH279996   3.354   2.428  59.011 -1.2604  0.0886 -0.1999
19502TIP3    H179997   3.430   2.385  58.972 -1.9179 -0.2176 -1.1635
19502TIP3    H279998   3.354   2.516  58.972  0.2506  1.1621  1.9725
19503TIP3   OH279999   3.373   2.493   8.393 -0.2279  0.1852  0.1054
19503TIP3    H180000   3.387   2.440   8.315 -1.2065 -0.6672  0.4818
19503TIP3    H280001   3.418   2.445   8.463 -0.2814  0.3611  0.2613
19504TIP3   OH280002   0.765   2.506  59.881  0.0729  0.0480  0.1110
19504TIP3    H180003   0.692   2.544  59.930 -0.5776 -0.5839 -0.3576
19504TIP3    H280004   0.833   2.492  59.947 -0.5441 -0.1632  0.7097
19505TIP3   OH280005   0.642   2.029  66.628 -0.0180  0.4429 -0.1109
19505TIP3    H180006   0.643   2.082  66.549  0.4315  1.3088  0.4647
19505TIP3    H280007   0.665   2.089  66.698  1.1763 -0.6411  0.4669
19506TIP3   OH280008   2.645   3.327  62.065 -0.1702  0.2048  1.1620
19506TIP3    H180009   2.570   3.317  62.125 -0.5603  0.9617  0.8280
19506TIP3    H280010   2.639   3.418  62.036  1.4374  0.5632  1.8448
19507TIP3   OH280011   1.378   1.339  14.321  0.6933  0.1236  0.0594
19507TIP3    H180012   1.360   1.257  14.276  0.0646  0.2995 -0.0252
19507TIP3    H280013   1.459   1.323  14.370  1.4093 -0.0411 -1.1646
19508TIP3   OH280014   1.414   1.550   6.074 -0.2174  0.2697  0.0944
19508TIP3    H180015   1.471   1.600   6.016 -4.6446  1.3625 -3.9638
19508TIP3    H280016   1.363   1.617   6.120 -0.9021 -0.6125  0.6483
19509TIP3   OH280017   3.238   1.287  61.671 -0.0098 -0.5591  0.7472
19509TIP3    H180018   3.234   1.205  61.720  1.1172 -0.3862  1.1635
19509TIP3    H280019   3.171   1.278  61.604 -0.7779 -1.2890  1.5787
19510TIP3   OH280020   1.079   3.313   6.399  0.0553  0.1675 -0.5018
19510TIP3    H180021   1.140   3.294   6.327 -0.7012 -0.1394 -1.0721
19510TIP3    H280022   1.026   3.386   6.367 -1.5405 -1.1687 -1.0388
19511TIP3   OH280023   2.535   0.589   9.778 -0.0326 -0.3152 -0.1539
19511TIP3    H180024   2.481   0.521   9.817  1.7619 -1.0906  1.1592
19511TIP3    H280025   2.526   0.664   9.837  1.3199 -0.9106  0.8820
19512TIP3   OH280026   0.560   1.554  15.548 -0.4484 -0.3757  0.2073
19512TIP3    H180027   0.595   1.629  15.598  0.7719 -2.0776  2.0588
19512TIP3    H280028   0.474   1.540  15.586 -0.4235 -0.2881  0.3007
19513TIP3   OH280029   2.737   3.218  54.275  0.5219  0.6230  0.0798
19513TIP3    H180030   2.685   3.153  54.227 -0.5955  0.9371  0.8149
19513TIP3    H280031   2.676   3.290  54.291  1.3246  1.2031  0.5889
19514TIP3   OH280032   1.634   2.018  50.073  0.5426  0.0291  0.3042
19514TIP3    H180033   1.696   2.088  50.053  1.6990 -1.3313 -1.0872
19514TIP3    H280034   1.653   1.995  50.164 -0.6554  2.2262  1.2116
19515TIP3   OH280035   1.973   0.986  65.458  0.2813 -0.2316 -0.3782
19515TIP3    H180036   1.972   1.080  65.443 -0.1124 -0.4579 -2.0315
19515TIP3    H280037   2.037   0.973  65.528 -0.9568  1.4033  1.1593
19516TIP3   OH280038   1.884   1.994  49.388 -0.0653 -0.1210  0.5121
19516TIP3    H180039   1.824   1.920  49.397 -1.7005  1.2847  1.9184
19516TIP3    H280040   1.937   1.992  49.468 -0.5204  0.5335  0.8396
19517TIP3   OH280041   3.127   2.066  13.165  0.0682  0.2861 -0.4232
19517TIP3    H180042   3.125   1.988  13.109  0.4575 -0.0460  0.0058
19517TIP3    H280043   3.220   2.084  13.178 -0.0055  0.1300  0.4064
19518TIP3   OH280044   2.070   0.029  54.080 -0.2178  0.1489 -0.2610
19518TIP3    H180045   2.160   0.002  54.097  0.2431  1.5185 -0.3772
19518TIP3    H280046   2.050  -0.007  53.993 -0.5794 -2.0012  0.6626
19519TIP3   OH280047   2.580   0.778  58.281 -0.7705 -0.1876 -0.8260
19519TIP3    H180048   2.523   0.782  58.204  1.3439 -2.2742 -2.6408
19519TIP3    H280049   2.607   0.869  58.295 -1.7751  0.3390 -2.0975
19520TIP3   OH280050   2.864   0.885  66.105 -0.2146 -0.2351  0.5936
19520TIP3    H180051   2.814   0.803  66.113  0.6944 -0.6700  2.2248
19520TIP3    H280052   2.955   0.857  66.098  0.0278  0.6282  0.1964
19521TIP3   OH280053   2.286   2.482  66.617 -0.5293  0.3483 -0.2362
19521TIP3    H180054   2.365   2.469  66.565 -0.1873  0.3510  0.2746
19521TIP3    H280055   2.316   2.527  66.696 -0.6990 -1.4502  0.9054
19522TIP3   OH280056   3.193   1.575  53.141  0.5152  0.0673  0.2027
19522TIP3    H180057   3.105   1.555  53.173 -0.0236  3.3236  1.1476
19522TIP3    H280058   3.217   1.499  53.088 -3.3482 -0.4346 -1.1206
19523TIP3   OH280059   0.298   0.737  46.020  0.2359 -0.4313  0.6474
19523TIP3    H180060   0.374   0.748  45.964 -0.6635  0.5961 -0.4124
19523TIP3    H280061   0.292   0.819  46.069  0.6671 -1.0873  1.8571
19524TIP3   OH280062   0.216   2.477  54.818 -0.3340  0.0625 -0.3616
19524TIP3    H180063   0.176   2.429  54.745  1.0711  0.0641 -1.1910
19524TIP3    H280064   0.223   2.567  54.786  0.6234 -0.0104 -0.4165
19525TIP3   OH280065   2.153   0.552   2.111  0.0964 -0.2619  0.4339
19525TIP3    H180066   2.146   0.593   2.197 -0.8259  1.7500 -0.5291
19525TIP3    H280067   2.157   0.625   2.049 -3.4097 -1.4777 -1.5440
19526TIP3   OH280068   0.884   3.205   8.872 -0.1808  0.1313  0.2455
19526TIP3    H180069   0.924   3.259   8.940  1.3320  0.6964 -1.0440
19526TIP3    H280070   0.957   3.163   8.828 -1.1960 -1.0796 -0.3531
19527TIP3   OH280071   0.872   2.784   7.677 -0.4750  0.3607  0.2736
19527TIP3    H180072   0.961   2.807   7.705 -0.5018  1.3502 -0.3867
19527TIP3    H280073   0.840   2.863   7.634 -1.0882 -0.4900 -0.9052
19528TIP3   OH280074   2.657   0.969  47.719  0.1763 -0.3997 -0.0183
19528TIP3    H180075   2.610   1.018  47.787  1.6330 -0.5259  1.1422
19528TIP3    H280076   2.685   1.036  47.656  0.5846  0.0367  0.6088
19529TIP3   OH280077   1.957   2.620  12.862  0.0651  0.5894 -0.1885
19529TIP3    H180078   1.864   2.639  12.853 -0.5075 -1.2643  1.0121
19529TIP3    H280079   1.999   2.705  12.872 -1.5957  1.4252 -0.0642
19530TIP3   OH280080   1.720   0.006  18.746 -0.4307  0.1938 -0.3313
19530TIP3    H180081   1.642   0.043  18.704  0.9574  2.4268 -1.1092
19530TIP3    H280082   1.791   0.027  18.686  0.9705 -0.7233  0.9460
19531TIP3   OH280083   3.325   2.846  62.156 -0.0429 -0.1479 -0.3549
19531TIP3    H180084   3.264   2.801  62.214  0.6791 -1.3093 -0.4579
19531TIP3    H280085   3.412   2.824  62.192  0.3430  0.7380 -0.7266
19532TIP3   OH280086   3.039   1.382  57.965 -0.2256 -0.0036  0.2274
19532TIP3    H180087   3.091   1.451  58.006 -1.0275  0.2200  0.9109
19532TIP3    H280088   3.057   1.389  57.872 -0.1501  1.0111  0.3092
19533TIP3   OH280089   1.441   2.144  21.818  0.0385 -0.1917 -0.0575
19533TIP3    H180090   1.495   2.132  21.896  1.2635 -0.2465 -0.8864
19533TIP3    H280091   1.366   2.196  21.849  1.0246  0.7051  0.9500
19534TIP3   OH280092   1.070   0.705  52.003  0.0535 -0.4459  0.0818
19534TIP3    H180093   1.164   0.688  51.997 -0.1212 -0.8393 -2.4288
19534TIP3    H280094   1.064   0.798  52.025  1.0046 -0.6316  1.2263
19535TIP3   OH280095   2.333   3.129  13.836 -0.2782  0.2061  0.0924
19535TIP3    H180096   2.398   3.194  13.862 -1.7114  1.7447 -0.0709
19535TIP3    H280097   2.318   3.078  13.916 -1.7189  2.3760  1.3117
19536TIP3   OH280098   2.688   2.561  13.235  0.0315  0.7971  1.0074
19536TIP3    H180099   2.627   2.611  13.288 -0.5765  2.0012 -0.7206
19536TIP3    H280100   2.666   2.585  13.145  1.8687 -0.1400  0.2602
19537TIP3   OH280101   1.216   0.290   0.930 -0.3890  0.0548 -0.4066
19537TIP3    H180102   1.142   0.305   0.989  0.7684 -1.4492  1.5722
19537TIP3    H280103   1.192   0.211   0.880 -0.4239 -0.0182 -0.2747
19538TIP3   OH280104   1.887   0.310  57.208  0.2379 -0.1183 -0.3670
19538TIP3    H180105   1.878   0.404  57.224  2.9530 -0.2874  3.3634
19538TIP3    H280106   1.798   0.276  57.216 -0.5154  1.8803  0.4017
19539TIP3   OH280107   1.870   0.640  61.585 -0.6166  0.0493 -0.0522
19539TIP3    H180108   1.906   0.699  61.652 -0.4340  0.5762 -0.5967
19539TIP3    H280109   1.817   0.578  61.633 -1.6103  1.2533  0.4569
19540TIP3   OH280110   3.058   0.353  59.168  0.1010 -0.4059  0.2413
19540TIP3    H180111   3.001   0.421  59.132  2.2601  1.5115  0.1735
19540TIP3    H280112   3.115   0.329  59.094 -0.3745 -2.0804  0.3715
19541TIP3   OH280113   2.526   1.697  26.766  0.2865 -0.3721 -0.0974
19541TIP3    H180114   2.601   1.672  26.711  1.3038  0.0367  1.0564
19541TIP3    H280115   2.489   1.773  26.722  0.1050 -0.9817 -1.0458
19542TIP3   OH280116   1.740   2.806  51.511 -0.5720  0.1626  1.0477
19542TIP3    H180117   1.645   2.801  51.521 -0.5162 -1.0309  1.2083
19542TIP3    H280118   1.771   2.848  51.592 -1.0798  2.4522  0.1293
19543TIP3   OH280119   0.822   1.368  51.513  0.0168 -0.0165 -0.4604
19543TIP3    H180120   0.896   1.417  51.476  0.6510  0.1477  0.9539
19543TIP3    H280121   0.751   1.381  51.451  0.5201  1.7117 -0.7193
19544TIP3   OH280122   0.344   1.482  45.608 -0.2130  0.1685  0.1749
19544TIP3    H180123   0.355   1.398  45.564 -0.9809 -0.0582  0.4155
19544TIP3    H280124   0.417   1.535  45.576 -0.9030  0.1072 -1.6280
19545TIP3   OH280125   1.444   1.149  63.855 -0.1198  0.4168 -0.7284
19545TIP3    H180126   1.500   1.224  63.832  0.1914  0.2135 -0.6449
19545TIP3    H280127   1.499   1.073  63.838 -1.0439  0.1134 -2.5059
19546TIP3   OH280128   3.166   2.358  17.078 -0.0873 -0.1237  0.0097
19546TIP3    H180129   3.147   2.452  17.076 -1.5745 -0.3895 -0.0051
19546TIP3    H280130   3.128   2.325  16.996  2.0742 -0.4812 -0.9004
19547TIP3   OH280131   2.914   3.335  13.320 -0.0165 -0.6948  0.0288
19547TIP3    H180132   2.864   3.280  13.260 -0.0575 -0.7603  0.1227
19547TIP3    H280133   2.904   3.293  13.405  0.7031 -1.0508 -0.0562
19548TIP3   OH280134   3.166   1.729  26.617 -0.1231  0.0223 -0.2207
19548TIP3    H180135   3.147   1.635  26.625  0.6494  0.0004  3.0773
19548TIP3    H280136   3.085   1.768  26.586 -0.1643 -1.7786 -2.6350
19549TIP3   OH280137   0.443   0.081   6.036  0.5093 -0.5693 -0.0922
19549TIP3    H180138   0.363   0.126   6.061 -0.9511 -2.5187 -1.0503
19549TIP3    H280139   0.511   0.149   6.041 -0.5767  0.4545  3.5842
19550TIP3   OH280140   1.452   1.709  38.888 -0.2929  0.1562 -0.7549
19550TIP3    H180141   1.499   1.778  38.933 -2.0932  0.4041  0.9001
19550TIP3    H280142   1.505   1.631  38.901  0.8619  0.8746 -1.0830
19551TIP3   OH280143   2.675   2.556  10.884  0.4399 -0.3197  0.4427
19551TIP3    H180144   2.707   2.616  10.816  0.1419  0.0745  0.6421
19551TIP3    H280145   2.673   2.471  10.842  0.4978 -0.1209  0.0320
19552TIP3   OH280146   2.966   2.511  48.709  0.2936 -0.3095  1.0325
19552TIP3    H180147   3.028   2.505  48.782 -0.2071 -2.1433  1.3574
19552TIP3    H280148   2.905   2.439  48.724 -1.3406  0.8425  0.1660
19553TIP3   OH280149   1.998   0.947  50.325 -0.7995 -0.6387 -0.1142
19553TIP3    H180150   1.934   0.981  50.263 -1.8718  1.6469  2.0721
19553TIP3    H280151   1.967   0.859  50.348 -3.9771  0.8142  1.7626
19554TIP3   OH280152   2.766   1.189  16.416  0.1874  0.3231  0.3049
19554TIP3    H180153   2.838   1.126  16.404  0.4142  0.5715  0.3473
19554TIP3    H280154   2.692   1.151  16.368  0.2880 -0.0364  0.4343
19555TIP3   OH280155   1.812   2.386  67.404  0.3279 -0.1407  0.1673
19555TIP3    H180156   1.731   2.336  67.414  0.7354 -1.1139 -1.1771
19555TIP3    H280157   1.783   2.470  67.367 -0.1513 -0.1253  0.5626
19556TIP3   OH280158   3.169   2.052  15.683  0.7019  1.0883 -1.0367
19556TIP3    H180159   3.226   2.129  15.681  1.9139  0.4044  1.8877
19556TIP3    H280160   3.209   1.995  15.748 -1.6148 -0.8761 -1.2179
19557TIP3   OH280161   0.944   1.127  55.952  0.1287  0.4109 -0.1145
19557TIP3    H180162   0.954   1.053  55.891  1.5578 -1.7551  2.5274
19557TIP3    H280163   0.849   1.142  55.955 -0.2888 -1.8571 -0.2003
19558TIP3   OH280164   2.093   3.398  19.882 -0.0408 -0.9444 -0.5578
19558TIP3    H180165   2.126   3.382  19.794  0.6535 -1.3879 -0.2293
19558TIP3    H280166   2.123   3.487  19.903  0.1865 -1.0113 -0.5996
19559TIP3   OH280167   1.442   1.026  12.272 -0.2428 -0.2294 -0.0818
19559TIP3    H180168   1.518   1.080  12.253  1.3653 -2.3389 -0.1071
19559TIP3    H280169   1.367   1.078  12.244  0.9338  2.8897  1.9853
19560TIP3   OH280170   3.020   2.340  12.403  0.8229 -0.7197 -0.3107
19560TIP3    H180171   3.075   2.391  12.343  0.4414 -1.2783 -1.1561
19560TIP3    H280172   3.077   2.269  12.433  1.9576  1.0960  2.2869
19561TIP3   OH280173   2.259   3.239  65.148  0.0035 -0.6202  0.4256
19561TIP3    H180174   2.335   3.250  65.206  1.1667  0.7626 -1.2686
19561TIP3    H280175   2.265   3.148  65.119  2.2869 -0.0280 -1.2635
19562TIP3   OH280176   0.034   3.083  66.354 -0.1120 -0.0265  0.1649
19562TIP3    H180177   0.041   2.988  66.357 -0.6257 -0.1715 -1.8841
19562TIP3    H280178  -0.060   3.100  66.362  0.1604  0.5321  3.4356
19563TIP3   OH280179   3.171   0.481   6.209 -0.5788 -0.1122 -0.0701
19563TIP3    H180180   3.218   0.548   6.160 -0.5907 -0.1021 -0.0675
19563TIP3    H280181   3.086   0.473   6.166 -0.1819 -0.8932 -0.7389
19564TIP3   OH280182   2.358   2.327  13.442 -0.9276  0.2946 -0.8401
19564TIP3    H180183   2.384   2.414  13.473 -0.7777 -0.3450  0.9329
19564TIP3    H280184   2.299   2.344  13.369  0.2261  1.8617 -1.4709
19565TIP3   OH280185   2.688   2.209   8.239  0.2318 -0.5793 -0.2785
19565TIP3    H180186   2.745   2.144   8.281  0.6298  0.0994  0.2674
19565TIP3    H280187   2.748   2.268   8.193  0.2407  1.3533  1.9691
19566TIP3   OH280188   2.900   1.710  28.271 -0.7496 -0.6564  0.1935
19566TIP3    H180189   2.941   1.790  28.239  2.2546 -1.7778  0.8842
19566TIP3    H280190   2.812   1.737  28.298 -0.7720  1.8027 -2.0098
19567TIP3   OH280191   2.580   2.629  55.247  0.0014  0.2952 -0.4560
19567TIP3    H180192   2.543   2.579  55.174  0.5187  0.8558 -1.1127
19567TIP3    H280193   2.596   2.564  55.315 -4.2797  0.2680  0.8036
19568TIP3   OH280194   0.313   0.262  48.915  0.3693  0.1054  0.3524
19568TIP3    H180195   0.308   0.357  48.900  0.4441 -0.2527 -2.6494
19568TIP3    H280196   0.228   0.239  48.952  0.0382  1.2409  0.3312
19569TIP3   OH280197   0.983   2.618  42.802  0.7754  0.8471 -0.0194
19569TIP3    H180198   0.969   2.523  42.805  0.3102  0.9165 -0.0129
19569TIP3    H280199   0.934   2.647  42.725  0.5086  1.1529  0.2616
19570TIP3   OH280200   0.587   2.758  50.640  0.2684 -0.4267 -0.2715
19570TIP3    H180201   0.515   2.812  50.607  1.0655  0.2923 -0.8981
19570TIP3    H280202   0.594   2.687  50.576  0.1114 -0.4933 -0.2144
19571TIP3   OH280203   0.210   0.930   5.897 -0.0593 -0.1990 -0.6561
19571TIP3    H180204   0.305   0.935   5.891 -0.1755  1.1062 -2.0875
19571TIP3    H280205   0.183   0.889   5.814 -0.6926 -1.5982  0.2166
19572TIP3   OH280206   1.297   0.649  66.065  0.1379 -0.0809  0.4694
19572TIP3    H180207   1.319   0.678  66.153 -0.2352  1.5576  0.0537
19572TIP3    H280208   1.250   0.722  66.026 -0.0593 -0.9218 -0.9621
19573TIP3   OH280209   0.684   1.726  57.469  0.7050 -0.4034  0.3985
19573TIP3    H180210   0.775   1.700  57.455  0.0842 -1.4413 -2.2413
19573TIP3    H280211   0.647   1.732  57.381 -1.2883  2.0001  1.2720
19574TIP3   OH280212   2.961   1.596  67.156 -0.2680  0.4338  0.5555
19574TIP3    H180213   2.963   1.692  67.157  1.4261  0.4395 -0.4552
19574TIP3    H280214   2.913   1.574  67.076  0.3639  0.4556  0.1621
19575TIP3   OH280215   0.081   1.352   2.344  0.0489 -0.2705  0.1005
19575TIP3    H180216   0.104   1.442   2.369 -1.5612  0.3437 -0.5345
19575TIP3    H280217   0.160   1.301   2.364  0.7195  1.1367  1.2209
19576TIP3   OH280218   3.215   2.424  50.303 -0.0926  0.3712  0.3859
19576TIP3    H180219   3.297   2.387  50.336 -0.9806 -1.0306  1.1114
19576TIP3    H280220   3.210   2.393  50.212  0.1414  0.3989  0.3643
19577TIP3   OH280221   3.345   2.905  63.587  0.0245  0.1530  0.5042
19577TIP3    H180222   3.307   2.971  63.529 -0.1738  0.1355  0.6139
19577TIP3    H280223   3.404   2.953  63.643  0.4531  0.1243  0.0845
19578TIP3   OH280224   1.953   0.202  47.786  0.1552  0.4034 -0.2473
19578TIP3    H180225   2.019   0.133  47.786  1.0110  1.2015 -0.3773
19578TIP3    H280226   2.002   0.282  47.808 -0.9333  0.8605  0.6261
19579TIP3   OH280227   3.019   2.127   9.155 -0.2383 -0.3069  0.1219
19579TIP3    H180228   2.991   2.040   9.126 -2.5994 -0.1393  1.6316
19579TIP3    H280229   2.990   2.186   9.086 -1.2536 -0.4371  0.4230
19580TIP3   OH280230   2.145   2.190  20.122 -0.7763 -0.1757  0.0298
19580TIP3    H180231   2.172   2.117  20.178 -0.9712 -1.3045 -1.3093
19580TIP3    H280232   2.172   2.268  20.170  0.3654 -1.1462  1.0175
19581TIP3   OH280233   2.525   3.296  44.106  0.3414  0.0224  0.3951
19581TIP3    H180234   2.525   3.205  44.134  2.1200 -0.8288 -2.0731
19581TIP3    H280235   2.434   3.314  44.082  0.0497 -1.2137  0.5151
19582TIP3   OH280236   2.584   1.868  59.624  0.2289 -0.2839 -0.1790
19582TIP3    H180237   2.575   1.908  59.711 -0.4315  1.4267 -0.9863
19582TIP3    H280238   2.675   1.886  59.599  0.3911 -0.6909  0.1125
19583TIP3   OH280239   0.591   0.015  64.459  0.6577 -0.2079 -0.1168
19583TIP3    H180240   0.501   0.044  64.472  0.9786 -0.0093  1.9298
19583TIP3    H280241   0.643   0.095  64.459  0.9365 -0.3848 -0.4126
19584TIP3   OH280242   1.272   2.313   7.800 -0.7865  0.2125 -0.3764
19584TIP3    H180243   1.246   2.278   7.886  0.6272 -1.3109 -0.5174
19584TIP3    H280244   1.225   2.258   7.737 -3.8774  2.9306 -0.7056
19585TIP3   OH280245   2.283   3.403  55.482 -0.0675  0.0776 -0.0922
19585TIP3    H180246   2.277   3.308  55.491 -0.0699 -0.1022 -1.7044
19585TIP3    H280247   2.329   3.416  55.399 -2.4975  1.4565 -1.3364
19586TIP3   OH280248   2.736   2.894  45.371  0.2383 -0.3743  0.1281
19586TIP3    H180249   2.793   2.961  45.335 -1.5205  0.6859 -0.8037
19586TIP3    H280250   2.731   2.827  45.303  0.4201 -0.5214  0.2544
19587TIP3   OH280251   2.876   0.727  54.922  0.1276 -0.6128  0.3240
19587TIP3    H180252   2.943   0.713  54.855 -1.1800 -0.2011 -1.1271
19587TIP3    H280253   2.795   0.696  54.882 -0.6217 -0.7934  1.9162
19588TIP3   OH280254   0.186   2.185   3.018 -0.0828  0.8262 -0.6057
19588TIP3    H180255   0.141   2.204   3.100  0.7107  0.6961 -0.1258
19588TIP3    H280256   0.130   2.122   2.973  0.5146 -0.7916  0.8368
19589TIP3   OH280257   0.329   2.166  51.113 -0.2561  0.3186  0.6761
19589TIP3    H180258   0.381   2.093  51.148 -0.6524 -0.0733  0.4611
19589TIP3    H280259   0.391   2.218  51.063  0.0629  0.2137  0.9560
19590TIP3   OH280260   1.999   1.705  13.005 -0.2961  0.0330  0.3157
19590TIP3    H180261   2.029   1.767  13.072  0.7473  1.3873 -1.3365
19590TIP3    H280262   2.079   1.677  12.960 -0.8364 -1.9269  0.4628
19591TIP3   OH280263   3.300   1.330   5.593 -0.3317 -0.3455  0.0315
19591TIP3    H180264   3.317   1.423   5.577  1.0646 -0.6296 -0.2015
19591TIP3    H280265   3.222   1.330   5.649 -0.3186  0.9689  0.0824
19592TIP3   OH280266   2.697   2.526  49.475  0.0216  0.4333  0.2424
19592TIP3    H180267   2.728   2.517  49.385  0.6476  0.1168  0.4819
19592TIP3    H280268   2.614   2.573  49.467  0.8069  1.7845 -0.3856
19593TIP3   OH280269   0.581   3.074  59.224 -0.1836  0.1048  0.2199
19593TIP3    H180270   0.593   3.081  59.129 -2.1998  0.0479 -0.0728
19593TIP3    H280271   0.533   3.153  59.248  1.3032  0.6913  1.4064
19594TIP3   OH280272   2.620   1.909  53.867 -0.7363 -0.8903  0.0056
19594TIP3    H180273   2.614   1.857  53.787  1.2344 -0.9432 -0.1586
19594TIP3    H280274   2.667   1.988  53.841 -0.3045 -0.7831  1.0447
19595TIP3   OH280275   3.216   1.412  10.635  0.5884 -0.0357 -0.6017
19595TIP3    H180276   3.233   1.357  10.712  1.4708  0.2738 -0.5645
19595TIP3    H280277   3.243   1.358  10.561 -1.1676 -0.7103 -0.7981
19596TIP3   OH280278   2.833   2.084  55.725  0.2762  0.4053  0.5201
19596TIP3    H180279   2.906   2.024  55.711 -0.9530 -1.4004  1.4389
19596TIP3    H280280   2.764   2.053  55.665  0.4701  2.6086 -0.9785
19597TIP3   OH280281   1.372   2.546  19.416  0.0066  0.4678 -0.1733
19597TIP3    H180282   1.300   2.595  19.456 -0.1666 -0.0894  0.2129
19597TIP3    H280283   1.448   2.602  19.427 -0.2892  0.8880 -0.2260
19598TIP3   OH280284   1.443   1.619  61.225  0.3305  0.0991  0.0809
19598TIP3    H180285   1.440   1.525  61.242 -0.5585  0.5308  2.6691
19598TIP3    H280286   1.353   1.641  61.200 -0.0130  0.5686  1.6323
19599TIP3   OH280287   1.682   2.721  12.879 -0.6311 -0.1376 -0.8362
19599TIP3    H180288   1.616   2.710  12.947 -0.4522  1.0608 -0.4528
19599TIP3    H280289   1.633   2.722  12.797 -0.8490 -1.5581 -0.7500
19600TIP3   OH280290   2.563   1.302  55.154  0.0073  0.3390 -0.5370
19600TIP3    H180291   2.518   1.233  55.105  0.5464 -0.5951  0.2434
19600TIP3    H280292   2.574   1.265  55.242  0.8840  1.1740 -0.2832
19601TIP3   OH280293   2.916   1.621  44.722  0.1602 -0.1787  0.4818
19601TIP3    H180294   2.920   1.716  44.705 -2.0682  0.0732  1.0705
19601TIP3    H280295   2.896   1.583  44.637  2.0726 -0.2830  0.0233
19602TIP3   OH280296   2.342   3.265  67.311 -0.1370 -0.2653  0.0503
19602TIP3    H180297   2.272   3.291  67.370  0.3132 -0.8182  0.8478
19602TIP3    H280298   2.309   3.185  67.269 -0.1927 -0.2390  0.0427
19603TIP3   OH280299   0.165   3.324  55.203  0.0071 -0.2412  0.4774
19603TIP3    H180300   0.203   3.319  55.291  1.4710 -1.9004 -0.1987
19603TIP3    H280301   0.097   3.257  55.203  1.7259 -2.0494 -0.4017
19604TIP3   OH280302   2.943   1.949   8.814 -0.3895  0.7572 -0.3303
19604TIP3    H180303   2.879   2.020   8.813 -0.7553  0.4315 -0.0532
19604TIP3    H280304   2.944   1.918   8.905 -0.6337  0.0489 -0.5627
19605TIP3   OH280305   2.273   3.436  66.518  0.0445  0.1686  0.4142
19605TIP3    H180306   2.219   3.480  66.584 -1.3756  0.3427 -0.8104
19605TIP3    H280307   2.249   3.343  66.525 -1.4079  0.4070 -0.9760
19606TIP3   OH280308   0.564   0.880  33.896  0.3762  0.0233  0.3712
19606TIP3    H180309   0.551   0.850  33.806  1.9377 -0.6693  0.3495
19606TIP3    H280310   0.554   0.975  33.890  1.8310  0.1555 -0.8446
19607TIP3   OH280311   1.605   3.375  51.903  0.4898 -0.3269  0.1300
19607TIP3    H180312   1.669   3.415  51.844  1.4322 -0.9687  0.6868
19607TIP3    H280313   1.584   3.444  51.966  0.8483 -0.1907  0.1037
19608TIP3   OH280314   1.309   2.045  47.409  0.4639 -0.1138 -0.0423
19608TIP3    H180315   1.214   2.033  47.405  0.3892  0.7843 -1.9148
19608TIP3    H280316   1.320   2.121  47.467 -0.0406  0.4583 -0.6772
19609TIP3   OH280317   2.228   0.197  19.164  0.2578 -0.2055  0.0795
19609TIP3    H180318   2.314   0.203  19.122  0.2547  0.8883  0.2177
19609TIP3    H280319   2.165   0.213  19.094  0.2030  0.0124  0.1756
19610TIP3   OH280320   2.564   1.483  16.801  0.0467 -0.3906 -0.1357
19610TIP3    H180321   2.543   1.420  16.870 -0.2983 -2.0656 -1.6930
19610TIP3    H280322   2.637   1.444  16.754  0.1906  0.6475 -0.8112
19611TIP3   OH280323   1.099   0.146  65.519 -0.3652 -0.0586 -0.2740
19611TIP3    H180324   1.135   0.082  65.580  1.5880 -0.5642 -1.8288
19611TIP3    H280325   1.005   0.146  65.536  0.0279 -0.6830  2.1846
19612TIP3   OH280326   0.038   2.646  11.946 -0.2423  0.1482  0.1727
19612TIP3    H180327   0.033   2.660  11.851  0.9326  0.2244  0.1148
19612TIP3    H280328   0.130   2.656  11.967 -0.5061  0.2006  1.3475
19613TIP3   OH280329   1.303   1.436  12.626 -0.1925 -0.4565 -0.5451
19613TIP3    H180330   1.254   1.353  12.634 -1.0676  0.1001  0.1206
19613TIP3    H280331   1.350   1.444  12.709  0.0762 -0.4001 -0.7023
19614TIP3   OH280332   2.653   0.871  52.744  0.3080 -0.0223 -0.3307
19614TIP3    H180333   2.712   0.804  52.709  1.5176 -0.5051  2.3464
19614TIP3    H280334   2.566   0.832  52.739  0.8072 -1.1857 -0.2148
19615TIP3   OH280335   1.746   2.679  55.912 -0.1368 -0.0329 -0.1386
19615TIP3    H180336   1.806   2.668  55.986 -0.1774  1.1910  0.0978
19615TIP3    H280337   1.753   2.772  55.889 -1.3167 -0.0513 -0.6438
19616TIP3   OH280338   2.409   0.410  26.292 -1.0486 -0.0473 -0.4084
19616TIP3    H180339   2.461   0.353  26.236  1.4732  1.6551  0.0116
19616TIP3    H280340   2.453   0.405  26.378 -2.8765 -0.1320  0.5707
19617TIP3   OH280341   0.470   2.263  14.475 -0.8483  0.2073 -0.5494
19617TIP3    H180342   0.514   2.343  14.503  0.9400 -0.8312 -0.1698
19617TIP3    H280343   0.437   2.224  14.556 -1.2078  0.2778 -0.6614
19618TIP3   OH280344   2.146   1.790  19.993  0.3469 -0.1477 -0.0713
19618TIP3    H180345   2.197   1.841  19.930 -1.0917  0.6444 -0.6555
19618TIP3    H280346   2.162   1.833  20.077 -0.1335  0.7326 -0.4135
19619TIP3   OH280347   3.379   1.586  16.516 -0.0289  0.1133  0.9244
19619TIP3    H180348   3.454   1.538  16.479  0.1439  0.0870  1.3039
19619TIP3    H280349   3.304   1.556  16.464  0.0093 -0.8875  1.4272
19620TIP3   OH280350   2.046   0.085  51.127 -0.0666 -0.1912 -0.5705
19620TIP3    H180351   2.123   0.102  51.179  0.5126  0.5292 -1.6248
19620TIP3    H280352   1.983   0.045  51.188  1.2024 -1.0108  0.2439
19621TIP3   OH280353   1.691   0.794  45.201 -0.4811  0.4505  0.0890
19621TIP3    H180354   1.664   0.707  45.229  0.5570  0.7615  2.2809
19621TIP3    H280355   1.611   0.847  45.210 -0.9423 -0.1045 -0.5966
19622TIP3   OH280356   1.212   3.382  59.970  0.4287  0.0998 -0.2413
19622TIP3    H180357   1.189   3.356  59.881  1.1468 -0.1394 -0.3627
19622TIP3    H280358   1.145   3.341  60.025 -0.2002  0.5035 -0.6849
19623TIP3   OH280359   0.558   0.111  18.331  0.3843 -0.5937 -0.5314
19623TIP3    H180360   0.587   0.197  18.360 -1.3944  0.0818 -0.6510
19623TIP3    H280361   0.585   0.106  18.239  0.5396 -0.1977 -0.5060
19624TIP3   OH280362   3.028   3.150  13.078  0.4146  0.2265  0.7590
19624TIP3    H180363   3.052   3.061  13.105  1.8977  0.7941  1.4265
19624TIP3    H280364   2.933   3.153  13.086  0.0048 -2.0608 -1.6225
19625TIP3   OH280365   1.439   3.212  66.419  0.6671  0.5457 -0.4200
19625TIP3    H180366   1.529   3.230  66.446  1.6570 -0.7341 -2.6059
19625TIP3    H280367   1.436   3.236  66.326 -0.9536 -0.3624 -0.6382
19626TIP3   OH280368   0.525   1.056  56.902 -0.1226  0.2904 -0.1249
19626TIP3    H180369   0.544   1.109  56.825  3.9182 -0.4738  0.1236
19626TIP3    H280370   0.594   1.079  56.964 -1.5937 -1.1640  2.2051
19627TIP3   OH280371   0.982   2.796  66.527 -0.4204 -0.2874 -0.2222
19627TIP3    H180372   0.997   2.829  66.616 -0.3936  1.5192 -0.8619
19627TIP3    H280373   1.036   2.717  66.522  1.9679  1.2108  0.4172
19628TIP3   OH280374   2.300   0.705   0.780 -0.7163 -0.0299 -0.8150
19628TIP3    H180375   2.345   0.624   0.806  0.7105  1.1298  0.4832
19628TIP3    H280376   2.316   0.711   0.685  2.5243  0.6433 -0.3344
19629TIP3   OH280377   2.615   1.993  47.687 -0.3777  0.3992 -0.0235
19629TIP3    H180378   2.674   1.923  47.657 -0.1467  0.6907 -0.2474
19629TIP3    H280379   2.562   1.951  47.756  1.5111  0.6729  1.6929
19630TIP3   OH280380   1.588   3.222   0.904  0.2503 -0.4462 -0.2892
19630TIP3    H180381   1.539   3.183   0.831  2.1693  0.0151 -1.9078
19630TIP3    H280382   1.595   3.151   0.968 -2.6997 -0.4501  0.1819
19631TIP3   OH280383   0.262   0.131  44.845  0.4075  0.5659  0.5758
19631TIP3    H180384   0.167   0.119  44.836  0.6482 -0.4176 -1.1421
19631TIP3    H280385   0.272   0.222  44.872 -0.9888  0.9404 -0.0664
19632TIP3   OH280386   0.782   1.559  58.104 -0.0444 -0.5918  0.0755
19632TIP3    H180387   0.863   1.528  58.064  0.5119  0.3342  0.4742
19632TIP3    H280388   0.736   1.478  58.129  0.1966 -1.1600 -1.2097
19633TIP3   OH280389   2.701   2.623   9.071 -0.5086  0.2363  0.2047
19633TIP3    H180390   2.719   2.716   9.063  0.2331 -0.0186 -1.6515
19633TIP3    H280391   2.751   2.595   9.147  0.6723  1.0582 -0.2399
19634TIP3   OH280392   1.240   2.203  19.189 -0.2744 -0.0720 -0.0403
19634TIP3    H180393   1.162   2.232  19.143 -0.6354 -1.9297 -0.6886
19634TIP3    H280394   1.300   2.177  19.119  0.4643  0.1917  0.4866
19635TIP3   OH280395   0.431   0.280  49.815 -0.4111 -0.1794  0.1903
19635TIP3    H180396   0.466   0.208  49.763  1.5310  1.4132 -0.8147
19635TIP3    H280397   0.416   0.350  49.752  0.0762  1.1109  1.4602
19636TIP3   OH280398   2.464   2.899  67.421  0.3401  0.4784 -0.6639
19636TIP3    H180399   2.453   2.804  67.409 -2.4742  0.8487 -1.8282
19636TIP3    H280400   2.489   2.932  67.335 -0.8362  0.9958 -0.8290
19637TIP3   OH280401   3.172   1.461  46.371 -0.0363  0.0736  0.5430
19637TIP3    H180402   3.181   1.525  46.443 -1.0512  0.1565  0.6136
19637TIP3    H280403   3.162   1.377  46.416  0.1354  0.0180  0.4766
19638TIP3   OH280404   1.573   3.228  66.145  0.4527  0.1440  0.0598
19638TIP3    H180405   1.542   3.255  66.059 -0.3438  0.1125  0.3257
19638TIP3    H280406   1.664   3.259  66.149  0.4039  0.3992 -0.6749
19639TIP3   OH280407   0.143   2.564  63.071 -0.3314 -0.5687  0.8191
19639TIP3    H180408   0.208   2.618  63.026 -0.0063 -1.3211  0.3562
19639TIP3    H280409   0.102   2.623  63.134  0.0742  0.1886  0.3952
19640TIP3   OH280410   0.987   1.221  21.362  0.8569 -0.2609 -0.0647
19640TIP3    H180411   0.952   1.244  21.276  1.7154 -0.8536 -0.5925
19640TIP3    H280412   1.048   1.292  21.382  1.5396 -0.7013 -0.5036
19641TIP3   OH280413   2.146   0.111  22.329 -0.0096 -0.0889  0.0332
19641TIP3    H180414   2.092   0.078  22.401 -1.0697 -1.2106 -1.2243
19641TIP3    H280415   2.198   0.181  22.368 -1.4945  0.2012  1.5886
19642TIP3   OH280416   0.386   1.602  61.329  0.5510  0.3739  0.4020
19642TIP3    H180417   0.337   1.521  61.314 -0.1579  0.8025  0.3332
19642TIP3    H280418   0.478   1.578  61.316  0.2692 -0.1834 -0.6676
19643TIP3   OH280419   0.264   0.357   7.887 -0.3144 -0.3304  0.3835
19643TIP3    H180420   0.357   0.354   7.866 -0.3349  0.4577  0.1437
19643TIP3    H280421   0.227   0.280   7.844 -0.2059  0.7721 -1.7839
19644TIP3   OH280422   1.428   0.684   4.852 -0.2208  0.8965 -0.0392
19644TIP3    H180423   1.460   0.675   4.942 -0.0758  0.7576 -0.1046
19644TIP3    H280424   1.395   0.598   4.830  0.2147  0.7917 -0.2996
19645TIP3   OH280425   0.452   0.643  52.636 -0.2709  0.8081 -0.6402
19645TIP3    H180426   0.460   0.577  52.567 -1.0951  1.1262 -1.0646
19645TIP3    H280427   0.434   0.592  52.715 -3.5842  0.5436 -1.4095
19646TIP3   OH280428   3.437   1.253   7.066 -0.1131  0.1764  0.3556
19646TIP3    H180429   3.424   1.207   6.983 -0.1877  0.9528 -0.0785
19646TIP3    H280430   3.348   1.268   7.098 -0.1248  0.8364  0.0260
19647TIP3   OH280431   2.626   0.144  62.030 -0.2575 -0.3728  0.4405
19647TIP3    H180432   2.685   0.124  62.102  0.3337 -0.4175 -0.0427
19647TIP3    H280433   2.615   0.239  62.032  1.5806 -0.0846 -0.7695
19648TIP3   OH280434   1.780   3.246  35.148  0.3095  0.1744  0.3109
19648TIP3    H180435   1.808   3.238  35.239  1.3222 -0.4308 -0.0385
19648TIP3    H280436   1.743   3.334  35.142  2.4495  1.1677  0.7443
19649TIP3   OH280437   2.269   0.309  15.654  0.2431  0.2593 -0.0424
19649TIP3    H180438   2.199   0.249  15.629  0.2890 -0.1346  0.7149
19649TIP3    H280439   2.228   0.396  15.655 -0.6245 -0.1255  1.7215
19650TIP3   OH280440   0.589   0.187   3.473 -0.1679  0.1497 -0.1811
19650TIP3    H180441   0.561   0.146   3.555 -0.5668  0.2285 -0.2738
19650TIP3    H280442   0.648   0.123   3.433 -1.8990 -1.0222 -1.0226
19651TIP3   OH280443   1.542   2.365  53.180 -0.5700  0.1880 -0.1753
19651TIP3    H180444   1.506   2.452  53.195  0.4361  0.5963 -0.0168
19651TIP3    H280445   1.637   2.378  53.184 -0.4079 -1.0234  0.5249
19652TIP3   OH280446   2.185   3.162  28.717 -0.7335  0.1200  0.5298
19652TIP3    H180447   2.259   3.123  28.669 -0.1080  4.0884 -2.3077
19652TIP3    H280448   2.127   3.088  28.736  1.6509 -2.5295 -1.5188
19653TIP3   OH280449   2.109   0.132  45.707  0.8509 -0.0313 -0.0732
19653TIP3    H180450   2.071   0.079  45.637 -1.2968  1.0503  0.2040
19653TIP3    H280451   2.199   0.150  45.678  0.8019 -1.6661 -1.3361
19654TIP3   OH280452   3.244   1.525  30.101 -0.1524 -0.3540 -0.1854
19654TIP3    H180453   3.277   1.451  30.152  2.3140  0.4161 -0.5160
19654TIP3    H280454   3.225   1.489  30.015  1.4683 -0.5784 -0.4813
19655TIP3   OH280455   2.242   0.105  25.508  0.1240 -0.0345  0.3584
19655TIP3    H180456   2.204   0.088  25.594  1.1011  0.2744  0.8601
19655TIP3    H280457   2.178   0.160  25.464  0.0692  0.6415  1.2628
19656TIP3   OH280458   1.204   2.123  48.201 -0.1127 -0.5060 -0.0676
19656TIP3    H180459   1.272   2.146  48.265  0.0063  0.6228 -0.5756
19656TIP3    H280460   1.226   2.174  48.124 -1.9675  0.4960  0.0104
19657TIP3   OH280461   2.216   0.998  48.805 -0.9717 -0.2587 -0.4770
19657TIP3    H180462   2.181   0.925  48.754 -1.5551 -0.7893  0.6437
19657TIP3    H280463   2.138   1.044  48.836 -0.6165  1.2621 -1.7159
19658TIP3   OH280464   0.653   3.208  22.221  0.7770  0.2224 -0.1981
19658TIP3    H180465   0.668   3.117  22.195  0.6596 -0.1194  0.9109
19658TIP3    H280466   0.710   3.222  22.296 -1.1023  0.2446  1.3145
19659TIP3   OH280467   2.172   2.214  51.440  0.1130  0.2451  0.3913
19659TIP3    H180468   2.246   2.177  51.392 -0.1756 -0.0136  0.1487
19659TIP3    H280469   2.140   2.142  51.494 -1.3759 -0.3261 -1.1656
19660TIP3   OH280470   2.290   3.050  20.291  0.3895 -0.1773  0.1870
19660TIP3    H180471   2.293   3.078  20.383  2.6210 -1.4990  0.5894
19660TIP3    H280472   2.365   2.993  20.281  0.4896  0.3034 -2.6317
19661TIP3   OH280473   2.602   1.629  11.626 -0.0767 -0.2298 -0.6227
19661TIP3    H180474   2.590   1.692  11.698 -0.5838 -0.7039 -0.2869
19661TIP3    H280475   2.666   1.566  11.661 -1.6043 -1.4471  0.0951
19662TIP3   OH280476   2.279   1.631   5.904 -0.0262 -0.3585 -0.2094
19662TIP3    H180477   2.268   1.536   5.903  1.4246 -0.5419 -0.7982
19662TIP3    H280478   2.190   1.665   5.895 -0.4369 -1.6702 -1.5679
19663TIP3   OH280479   0.558   2.348  12.038  0.1661 -0.8121 -0.0157
19663TIP3    H180480   0.630   2.365  11.977  0.5799  0.6454  0.8213
19663TIP3    H280481   0.594   2.370  12.124 -0.9199 -1.2284  0.5638
19664TIP3   OH280482   1.099   1.377  45.731 -0.3567 -0.0927  0.5795
19664TIP3    H180483   1.194   1.367  45.728 -0.2199  1.0860  0.4934
19664TIP3    H280484   1.070   1.364  45.641 -0.2916 -0.5493  0.6230
19665TIP3   OH280485   1.276   0.317  10.812 -0.4834 -0.1202  0.6989
19665TIP3    H180486   1.360   0.270  10.810 -1.0248 -1.1050 -1.1822
19665TIP3    H280487   1.264   0.341  10.904  1.3099 -0.9694  1.1946
19666TIP3   OH280488   1.889   2.240  62.626  0.2339  0.2646  0.1721
19666TIP3    H180489   1.878   2.329  62.593  2.1684  0.7403  0.6774
19666TIP3    H280490   1.866   2.184  62.553  1.2412  1.2431 -0.9329
19667TIP3   OH280491   0.927   1.404   0.760 -0.2677 -0.1892  0.3592
19667TIP3    H180492   0.962   1.318   0.737  0.5081  0.3644 -0.6171
19667TIP3    H280493   0.997   1.445   0.811  0.1100  0.5262 -0.7058
19668TIP3   OH280494   0.175   2.057  21.976  0.5205  0.3073 -0.1127
19668TIP3    H180495   0.257   2.097  21.945  1.8982 -2.0363  0.3155
19668TIP3    H280496   0.107   2.098  21.921  2.1649  0.9714 -1.7766
19669TIP3   OH280497   3.108   1.716  12.807  0.1443  0.1851 -0.3132
19669TIP3    H180498   3.082   1.774  12.879  2.5313  1.1167 -0.0822
19669TIP3    H280499   3.147   1.775  12.742 -1.0196 -0.7592 -1.9394
19670TIP3   OH280500   0.288   2.155  44.719  0.0080  0.2719  0.4200
19670TIP3    H180501   0.349   2.122  44.785 -1.4031 -0.0977  1.5834
19670TIP3    H280502   0.305   2.249  44.716  1.6632 -0.0184 -0.3951
19671TIP3   OH280503   0.342   2.369  52.091  0.6172  0.1275 -0.5910
19671TIP3    H180504   0.262   2.417  52.114  0.4865 -1.8594  4.3228
19671TIP3    H280505   0.410   2.436  52.089 -0.2692  1.1851  1.4270
19672TIP3   OH280506   0.500   3.392  19.203  0.0353 -0.6037  0.2883
19672TIP3    H180507   0.447   3.315  19.223 -0.1311 -0.3016  1.0726
19672TIP3    H280508   0.590   3.362  19.209  0.0094 -1.5561 -2.7827
19673TIP3   OH280509   2.588   1.367   6.371  0.1442  0.0287  0.4262
19673TIP3    H180510   2.504   1.324   6.355 -0.9694  1.7556  1.1865
19673TIP3    H280511   2.615   1.335   6.457  0.3698 -0.6821  0.0931
19674TIP3   OH280512   0.876   0.369  19.980  0.4370  0.5123 -0.0068
19674TIP3    H180513   0.805   0.427  20.009  0.6797 -0.0363  1.8005
19674TIP3    H280514   0.855   0.351  19.889 -0.8009  1.7459 -0.0098
19675TIP3   OH280515   1.689   0.300  27.294 -0.0309 -0.1005 -0.3107
19675TIP3    H180516   1.602   0.259  27.296  0.0001 -0.1464  0.4910
19675TIP3    H280517   1.701   0.335  27.382  0.3890  0.7129 -0.6844
19676TIP3   OH280518   0.015   2.503  55.673  0.5699 -0.2986 -0.2513
19676TIP3    H180519   0.036   2.506  55.766  1.9015 -0.7627 -0.5113
19676TIP3    H280520   0.049   2.586  55.637 -0.1631 -0.0071 -0.2925
19677TIP3   OH280521   3.031   1.038  44.303 -0.0325  0.5403 -0.0263
19677TIP3    H180522   3.078   0.970  44.254  0.8457  1.0614  0.0616
19677TIP3    H280523   2.939   1.026  44.280 -0.0163 -1.2324  0.6547
19678TIP3   OH280524   0.614   3.302  49.765  0.2549 -0.0833 -0.0569
19678TIP3    H180525   0.576   3.390  49.771  0.3314 -0.0165 -0.5383
19678TIP3    H280526   0.644   3.295  49.675 -0.9799 -1.1064 -0.4209
19679TIP3   OH280527   1.906   3.176  19.337  0.6018  0.0609  0.4601
19679TIP3    H180528   1.919   3.160  19.431 -0.0149  3.2772  1.1925
19679TIP3    H280529   1.974   3.240  19.314 -0.8608  1.2942 -0.6257
19680TIP3   OH280530   0.169   1.235   1.642  0.0287  0.5085  0.1557
19680TIP3    H180531   0.253   1.262   1.676  0.4932  1.5883 -1.7164
19680TIP3    H280532   0.131   1.314   1.604 -1.9218  0.0852  1.0902
19681TIP3   OH280533   0.922   1.910  64.056 -0.3043 -0.0634  0.1342
19681TIP3    H180534   0.892   2.001  64.053  1.0009  0.3625 -0.9892
19681TIP3    H280535   0.945   1.889  63.966  0.8804 -1.0050  0.6222
19682TIP3   OH280536   2.972   0.689  18.383 -0.0479 -0.7082  0.2776
19682TIP3    H180537   2.978   0.668  18.476 -1.2673  0.9348  0.7830
19682TIP3    H280538   2.941   0.780  18.382  0.8949 -0.3716 -1.7309
19683TIP3   OH280539   1.755   0.715   0.999  0.2982  0.4352  0.4026
19683TIP3    H180540   1.685   0.673   1.048 -1.6960 -0.1981 -2.6745
19683TIP3    H280541   1.819   0.742   1.065 -1.0039 -2.3755  3.0380
19684TIP3   OH280542   0.128   1.285   8.856  0.3078 -0.0885 -0.3291
19684TIP3    H180543   0.035   1.268   8.870 -0.1969  1.4276 -1.6212
19684TIP3    H280544   0.149   1.240   8.774  0.2892  0.9375 -0.9094
19685TIP3   OH280545   1.650   2.812   8.172 -0.5293 -0.0111  0.4365
19685TIP3    H180546   1.644   2.726   8.214 -0.4542  0.3936  1.3102
19685TIP3    H280547   1.584   2.810   8.103 -0.0211 -1.0263 -0.0427
19686TIP3   OH280548   3.267   0.060  45.638  0.2486  0.1400 -0.3644
19686TIP3    H180549   3.249  -0.028  45.604 -4.2825  0.0829  1.4624
19686TIP3    H280550   3.293   0.046  45.729  1.4272  0.6857 -0.5941
19687TIP3   OH280551   2.756   3.407  59.702 -0.4581 -0.0821  0.1102
19687TIP3    H180552   2.808   3.394  59.622 -0.7197  0.9274 -0.2333
19687TIP3    H280553   2.803   3.356  59.768 -0.4772 -1.2966 -0.7678
19688TIP3   OH280554   0.322   1.092  63.305  0.1946 -0.0271  0.4869
19688TIP3    H180555   0.359   1.004  63.305 -0.0714 -0.1600 -1.1874
19688TIP3    H280556   0.266   1.094  63.383  1.3226 -0.8362  1.3383
19689TIP3   OH280557   1.818   0.174  27.096  0.2061 -0.0244  0.6576
19689TIP3    H180558   1.834   0.096  27.148  0.4111  0.9740  2.1546
19689TIP3    H280559   1.779   0.237  27.158 -2.6569  0.1287 -1.1162
19690TIP3   OH280560   1.922   2.271  61.710 -0.6481  0.5390  0.4786
19690TIP3    H180561   1.885   2.216  61.780  0.9220  0.4384  1.2688
19690TIP3    H280562   1.895   2.227  61.629 -1.8524  0.2244  1.0173
19691TIP3   OH280563   1.591   1.185  67.185 -0.0236 -0.1156 -0.1333
19691TIP3    H180564   1.655   1.202  67.116 -0.7981  0.5981 -0.6907
19691TIP3    H280565   1.524   1.130  67.145 -0.3314  0.0606  0.1247
19692TIP3   OH280566   2.754   1.806   4.856  0.0474  0.1917 -0.4439
19692TIP3    H180567   2.775   1.738   4.791  0.1950 -0.3183  0.1321
19692TIP3    H280568   2.835   1.819   4.904 -0.1012  0.4717 -0.2680
19693TIP3   OH280569   2.041   2.466  21.217  0.1328 -0.0026 -0.3902
19693TIP3    H180570   2.133   2.447  21.237  0.3305  0.6661 -0.6337
19693TIP3    H280571   2.045   2.535  21.151 -0.5472  0.3359 -0.0874
19694TIP3   OH280572   0.073   1.691  10.063  0.0772  0.2035 -0.1200
19694TIP3    H180573   0.032   1.614  10.024 -1.3406  1.6413 -1.6515
19694TIP3    H280574   0.058   1.761   9.999  1.0088  1.8364  1.3514
19695TIP3   OH280575   1.798   2.819   6.436  0.3232  0.1290  0.2051
19695TIP3    H180576   1.711   2.782   6.452  0.7599 -0.8257  0.4432
19695TIP3    H280577   1.849   2.794   6.513  0.6292  1.2615  0.3772
19696TIP3   OH280578   0.964   0.859   2.296  0.2745 -0.0948 -0.0762
19696TIP3    H180579   0.970   0.764   2.308 -0.1103 -0.0928  0.1670
19696TIP3    H280580   1.035   0.894   2.349 -0.6100 -0.1631  1.2119
19697TIP3   OH280581   2.330   1.017   6.843 -0.6495 -0.0144  0.4486
19697TIP3    H180582   2.256   0.957   6.842 -1.0762  0.4918  0.8956
19697TIP3    H280583   2.332   1.053   6.754 -1.0109  0.0422  0.4593
19698TIP3   OH280584   0.198   1.024   4.433 -0.0956 -0.1277  0.8477
19698TIP3    H180585   0.158   0.949   4.388  0.3853 -1.0079  1.8279
19698TIP3    H280586   0.192   1.096   4.371 -0.6987 -0.9525 -0.0726
19699TIP3   OH280587   2.675   2.120  12.991  0.0440  0.4468 -0.2230
19699TIP3    H180588   2.639   2.172  13.063  0.8394 -1.3514  1.5768
19699TIP3    H280589   2.769   2.141  12.991  0.2332 -0.3611  0.0071
19700TIP3   OH280590   2.510   1.118  12.174 -0.0886 -0.0154  0.1564
19700TIP3    H180591   2.511   1.101  12.269 -0.3774 -0.8588  0.0187
19700TIP3    H280592   2.431   1.074  12.143 -0.8357  1.5622 -0.2650
19701TIP3   OH280593   1.302   1.677  64.302 -0.5929 -0.1905 -0.0335
19701TIP3    H180594   1.224   1.629  64.273 -1.8507  2.7050 -1.8400
19701TIP3    H280595   1.286   1.692  64.395 -2.0851  0.0836 -0.2970
19702TIP3   OH280596   2.054   1.971   6.353 -0.1912 -0.3354  0.0195
19702TIP3    H180597   2.121   1.969   6.285 -0.4041  1.9777 -0.3454
19702TIP3    H280598   2.085   1.910   6.419  1.9061  0.1131 -0.4895
19703TIP3   OH280599   1.591   3.198   5.265  0.1913 -0.0880  0.3248
19703TIP3    H180600   1.512   3.190   5.319  0.0714  1.8845  0.5283
19703TIP3    H280601   1.660   3.155   5.317 -0.0446  1.2532  1.8218
19704TIP3   OH280602   2.737   2.032  25.537  0.2511 -0.1824  0.0203
19704TIP3    H180603   2.669   2.097  25.554 -0.2465 -1.1734  2.1745
19704TIP3    H280604   2.816   2.083  25.521 -0.3359  0.9562  0.6755
19705TIP3   OH280605   2.312   0.398  62.000  0.0233 -0.1237 -0.3054
19705TIP3    H180606   2.277   0.487  62.010 -0.1889 -0.2973  0.5900
19705TIP3    H280607   2.363   0.384  62.080  0.7547 -0.5044 -0.8284
19706TIP3   OH280608   0.753   1.231  61.997  0.3709  0.2101 -0.2020
19706TIP3    H180609   0.753   1.176  61.919 -1.7571 -1.4666  0.8808
19706TIP3    H280610   0.666   1.219  62.035  1.5329  0.4707  2.7892
19707TIP3   OH280611   2.853   2.487  56.994 -0.2077 -0.1485  0.2926
19707TIP3    H180612   2.907   2.408  56.998  0.0087 -0.0731 -0.7412
19707TIP3    H280613   2.821   2.490  56.904 -0.9239  0.4835  0.5486
19708TIP3   OH280614   2.845   1.774  58.986  0.2045  0.2902 -0.0546
19708TIP3    H180615   2.917   1.836  58.997 -0.3846  1.0702 -0.5265
19708TIP3    H280616   2.797   1.806  58.910 -0.3310 -0.5357 -0.0791
19709TIP3   OH280617   2.255   1.474  52.243  0.0283 -0.0830  0.3518
19709TIP3    H180618   2.220   1.563  52.236 -0.4814 -0.2164  1.0993
19709TIP3    H280619   2.179   1.421  52.269  0.6221 -0.5025  1.2450
19710TIP3   OH280620   1.682   0.557   6.023 -0.0145 -0.2062  0.0237
19710TIP3    H180621   1.664   0.547   6.117 -0.1278 -1.7618 -0.1384
19710TIP3    H280622   1.611   0.613   5.992  0.0336  0.3484  0.8576
19711TIP3   OH280623   3.170   1.024   1.256  0.0955 -0.1777 -0.5285
19711TIP3    H180624   3.229   1.095   1.230  0.2594  0.0748  0.4722
19711TIP3    H280625   3.208   0.946   1.216  0.6879  0.0996 -0.5288
19712TIP3   OH280626   0.462   1.929   0.577 -0.0051 -0.1216  0.1806
19712TIP3    H180627   0.489   1.840   0.554 -0.4226  0.0568 -1.0942
19712TIP3    H280628   0.510   1.949   0.657  0.3745 -1.3572  0.2786
19713TIP3   OH280629   2.369   2.346   9.192  0.2485  0.0925 -0.5196
19713TIP3    H180630   2.309   2.272   9.207 -0.1957  0.7219  0.9612
19713TIP3    H280631   2.445   2.327   9.246  0.9481 -0.1565 -1.5558
19714TIP3   OH280632   3.098   3.442  19.714 -0.4614  0.3627  0.6301
19714TIP3    H180633   3.074   3.359  19.674 -0.4000  0.2351  0.8558
19714TIP3    H280634   3.042   3.449  19.792 -1.0316  0.9063  0.1766
19715TIP3   OH280635   3.012   0.251  47.953 -0.0708 -0.3490 -0.3764
19715TIP3    H180636   2.987   0.343  47.945 -0.7538 -0.4609  0.4131
19715TIP3    H280637   3.087   0.252  48.012 -0.0732 -0.3024 -0.3745
19716TIP3   OH280638   3.255   0.913   6.818  0.3806 -0.5675 -0.0107
19716TIP3    H180639   3.240   0.913   6.913 -1.6594 -1.6649 -0.2650
19716TIP3    H280640   3.339   0.869   6.806 -0.0143 -1.7263  1.2336
19717TIP3   OH280641   1.625   2.315  59.569  0.0546  0.3830  0.4440
19717TIP3    H180642   1.719   2.331  59.578 -0.1693  2.9019 -0.7731
19717TIP3    H280643   1.593   2.304  59.658  1.4649 -0.3562  0.8785
19718TIP3   OH280644   0.208   2.050   0.248 -0.6567  0.4460  0.2294
19718TIP3    H180645   0.269   2.095   0.307 -0.3778 -0.3628  0.5687
19718TIP3    H280646   0.225   1.957   0.262 -1.4636  0.2230 -0.2157
19719TIP3   OH280647   2.418   2.870  63.892  0.4582 -1.3433  0.2226
19719TIP3    H180648   2.447   2.833  63.975  2.4540 -1.7396 -0.6101
19719TIP3    H280649   2.362   2.802  63.854 -0.5022 -1.1428  1.2167
19720TIP3   OH280650   0.486   0.407  13.508 -0.2204  0.3228 -0.7465
19720TIP3    H180651   0.564   0.462  13.517  0.1207 -0.3535  0.9186
19720TIP3    H280652   0.494   0.369  13.421  0.0674  2.0702 -1.5174
19721TIP3   OH280653   0.221   1.584  65.932  0.0855  0.0323  0.0893
19721TIP3    H180654   0.190   1.501  65.968 -0.4617 -0.8385 -2.1716
19721TIP3    H280655   0.314   1.570  65.914 -0.1467 -0.3437 -0.8750
19722TIP3   OH280656   0.985   2.454   0.529  0.1433 -0.5129 -0.1238
19722TIP3    H180657   0.926   2.435   0.456  0.0866  0.3705 -0.3119
19722TIP3    H280658   0.951   2.400   0.601 -0.9626  0.0519 -0.2022
19723TIP3   OH280659   2.401   2.498  47.288 -0.1331 -0.0335 -0.6488
19723TIP3    H180660   2.324   2.449  47.259  0.1321 -1.1517  0.4891
19723TIP3    H280661   2.467   2.431  47.305 -0.4514  0.4076  3.1631
19724TIP3   OH280662   1.497   3.059  42.828  1.0540  0.2204  0.6850
19724TIP3    H180663   1.553   3.075  42.752 -0.7988  1.7329 -0.4533
19724TIP3    H280664   1.438   2.989  42.800  0.1008  1.0609  0.5519
19725TIP3   OH280665   0.507   1.694  58.069 -0.0582  0.0218 -0.4520
19725TIP3    H180666   0.600   1.702  58.047 -0.1055 -0.2480 -0.7480
19725TIP3    H280667   0.504   1.625  58.135  0.0043  0.3703 -0.0737
19726TIP3   OH280668   1.703   1.335  54.818 -0.1001 -0.4253 -0.4434
19726TIP3    H180669   1.716   1.252  54.770 -2.3658 -1.6755  0.9487
19726TIP3    H280670   1.721   1.312  54.909  0.8820  1.1028 -0.2172
19727TIP3   OH280671   3.445   1.482  43.944  0.0685  0.0675  0.0224
19727TIP3    H180672   3.415   1.492  43.854  2.2615  0.7131 -0.7161
19727TIP3    H280673   3.371   1.509  43.998 -1.0043  0.4934 -1.5994
19728TIP3   OH280674   3.092   1.664   2.039  0.0732 -0.2097 -0.3132
19728TIP3    H180675   3.082   1.570   2.049 -0.2998 -0.1534 -0.1433
19728TIP3    H280676   3.119   1.676   1.948 -0.6037 -0.4272 -0.5491
19729TIP3   OH280677   2.355   1.812  13.346  0.4283 -0.2645  0.0123
19729TIP3    H180678   2.395   1.893  13.378  0.8870  0.1125 -1.4106
19729TIP3    H280679   2.419   1.779  13.282 -0.5517 -0.8173 -0.6966
19730TIP3   OH280680   2.251   2.202  56.439 -0.1978  0.7544  0.9117
19730TIP3    H180681   2.327   2.257  56.459  1.8384 -1.2820 -0.6812
19730TIP3    H280682   2.205   2.249  56.369  1.4825  0.5175 -0.4033
19731TIP3   OH280683   0.235   2.982  62.126 -0.8130  0.3654 -0.2552
19731TIP3    H180684   0.279   3.047  62.182 -0.0002 -1.1759  0.9634
19731TIP3    H280685   0.196   3.034  62.056 -2.5926  2.5081  2.1217
19732TIP3   OH280686   2.820   3.220  58.392 -0.8307  0.5228 -0.2927
19732TIP3    H180687   2.909   3.208  58.359 -0.9354  0.0519 -0.4069
19732TIP3    H280688   2.793   3.134  58.423 -0.6777  0.9733  1.1873
19733TIP3   OH280689   1.922   0.860  16.512  0.3460  0.1329  0.2025
19733TIP3    H180690   1.991   0.926  16.512 -0.4966  1.0416  0.0484
19733TIP3    H280691   1.917   0.830  16.421 -0.7751  1.5203 -0.2331
19734TIP3   OH280692   0.986   1.703  64.700  0.1958  0.1249 -0.0214
19734TIP3    H180693   0.923   1.756  64.649 -0.7279 -0.8193  0.1165
19734TIP3    H280694   0.946   1.696  64.787  0.4095 -0.6170  0.0211
19735TIP3   OH280695   3.232   0.591  20.538 -0.1598  0.8236 -0.2016
19735TIP3    H180696   3.176   0.523  20.500  1.1172 -0.9325  0.9103
19735TIP3    H280697   3.295   0.611  20.468  0.3057 -0.1677 -0.0846
19736TIP3   OH280698   3.230   0.224  28.750  1.0862  0.1339  0.1061
19736TIP3    H180699   3.288   0.297  28.727  2.9211 -1.0374  0.7159
19736TIP3    H280700   3.246   0.210  28.844 -1.0782  0.4846  0.5681
19737TIP3   OH280701   3.159   0.723  27.371 -0.0334 -0.8288  0.2917
19737TIP3    H180702   3.069   0.750  27.353 -0.2231 -1.4291  0.3397
19737TIP3    H280703   3.152   0.632  27.400  0.8902 -2.0128 -2.8206
19738TIP3   OH280704   2.324   0.595  10.620 -0.6586  0.0317 -0.0736
19738TIP3    H180705   2.355   0.640  10.698  1.2104 -0.0450 -0.7390
19738TIP3    H280706   2.388   0.525  10.605 -2.6811 -2.0058  0.1128
19739TIP3   OH280707   0.666   0.977  21.946  0.1086  0.2270  0.7396
19739TIP3    H180708   0.751   1.020  21.935  0.3304 -0.4795 -0.5877
19739TIP3    H280709   0.643   0.948  21.858 -0.2238 -1.9732  1.4972
19740TIP3   OH280710   1.972   2.840   9.359  0.7580 -0.0199  0.4905
19740TIP3    H180711   2.015   2.893   9.425  0.3423  0.6249  0.2472
19740TIP3    H280712   1.966   2.896   9.282 -0.3666 -0.1414  0.4676
19741TIP3   OH280713   2.388   0.918  22.312  0.5032 -0.3225 -0.0230
19741TIP3    H180714   2.386   1.007  22.348 -0.5559 -0.0786 -0.6311
19741TIP3    H280715   2.433   0.867  22.379  1.6890  0.7788  0.0588
19742TIP3   OH280716   2.326   0.933  17.146 -0.3430  0.3516 -0.7555
19742TIP3    H180717   2.307   0.946  17.053 -3.6602  0.0125 -0.2243
19742TIP3    H280718   2.253   0.882  17.179  1.5141 -0.8580  1.7869
19743TIP3   OH280719   0.121   0.733   7.453  0.5177 -0.4181  0.2423
19743TIP3    H180720   0.030   0.715   7.428  0.0540  0.1386  1.4547
19743TIP3    H280721   0.141   0.816   7.411 -0.5826  1.0079  2.3812
19744TIP3   OH280722   3.067   2.177  61.102  0.1357 -0.0660  0.0911
19744TIP3    H180723   3.019   2.223  61.033 -0.3604 -1.5439 -0.5941
19744TIP3    H280724   3.032   2.088  61.101  3.6617 -1.6558 -1.3271
19745TIP3   OH280725   1.414   2.205  52.281  0.4215 -0.6408 -1.0117
19745TIP3    H180726   1.468   2.284  52.276  1.0402 -1.0116 -0.4202
19745TIP3    H280727   1.328   2.237  52.307 -0.0699  0.1161 -3.3431
19746TIP3   OH280728   1.760   0.981  17.718 -0.4783 -0.4447  0.3909
19746TIP3    H180729   1.796   1.066  17.741  0.6621 -1.2633  1.8545
19746TIP3    H280730   1.668   0.997  17.700 -0.5132  0.9374  1.6603
19747TIP3   OH280731   0.377   0.621  19.444  0.7304  0.1683  0.3183
19747TIP3    H180732   0.350   0.630  19.535  0.2604 -0.1187  0.2086
19747TIP3    H280733   0.399   0.528  19.435  4.8803  0.8466  1.2672
19748TIP3   OH280734   1.531   2.739  66.817 -0.0619 -0.7531  0.1180
19748TIP3    H180735   1.457   2.680  66.802  1.4949 -2.8749  0.2775
19748TIP3    H280736   1.578   2.741  66.734 -0.6339  1.1239 -0.1890
19749TIP3   OH280737   1.103   2.171   9.872  0.5089 -0.1649  0.1554
19749TIP3    H180738   1.179   2.230   9.874 -0.7099  1.4614  0.8384
19749TIP3    H280739   1.075   2.165   9.963 -2.2039  2.0837 -0.3899
19750TIP3   OH280740   0.317   1.730  17.669  0.3068 -0.6914 -0.5124
19750TIP3    H180741   0.329   1.670  17.595 -0.6559 -1.5185 -0.0308
19750TIP3    H280742   0.323   1.673  17.746  0.2219 -0.0259 -0.0090
19751TIP3   OH280743   3.144   2.066  61.369  0.2995 -0.1362  0.1964
19751TIP3    H180744   3.076   2.131  61.386  1.6678  1.5100 -0.3707
19751TIP3    H280745   3.185   2.096  61.287  2.5337 -0.3402  1.1806
19752TIP3   OH280746   2.356   2.495  27.390 -0.3025 -0.2025 -0.2394
19752TIP3    H180747   2.424   2.508  27.324 -0.0453 -2.8517 -0.5960
19752TIP3    H280748   2.363   2.572  27.447  2.8609 -0.2661 -0.3562
19753TIP3   OH280749   1.976   1.428  26.838  0.1905  0.1622  0.1452
19753TIP3    H180750   2.002   1.402  26.750  0.7805  0.9310  0.0840
19753TIP3    H280751   2.047   1.398  26.894  0.7754  1.3885  0.1014
19754TIP3   OH280752   0.658   1.175  48.145  0.4384 -0.0841  0.1965
19754TIP3    H180753   0.585   1.203  48.090 -0.2518 -1.0263  0.6168
19754TIP3    H280754   0.637   1.085  48.170  0.8501  0.2367  1.8087
19755TIP3   OH280755   3.438   0.416  48.941  0.1586  0.2209  0.2544
19755TIP3    H180756   3.366   0.356  48.922  0.0998  0.4757 -0.3441
19755TIP3    H280757   3.466   0.448  48.856 -0.5520  1.8960  0.6065
19756TIP3   OH280758   3.134   0.713  45.948  0.5248 -0.7485  0.2703
19756TIP3    H180759   3.098   0.625  45.940  0.9124 -1.0364  1.5257
19756TIP3    H280760   3.166   0.718  46.038 -0.2808  0.9804  0.4993
19757TIP3   OH280761   2.320   2.106  11.772 -0.1391  0.4992  0.3613
19757TIP3    H180762   2.334   2.169  11.843 -2.5746  0.0816  1.3333
19757TIP3    H280763   2.263   2.152  11.711  1.3260  0.5794 -1.0141
19758TIP3   OH280764   1.089   2.260  36.881  0.7606 -0.1495 -0.2029
19758TIP3    H180765   1.164   2.259  36.822 -0.4546 -1.1336 -1.8084
19758TIP3    H280766   1.102   2.183  36.937  0.7603 -0.5715 -0.7656
19759TIP3   OH280767   3.091   2.946  47.348 -0.4041 -0.0908 -0.2571
19759TIP3    H180768   3.160   2.883  47.369 -1.6060 -0.8441  1.6917
19759TIP3    H280769   3.123   3.029  47.383 -0.7740 -0.6081  1.4364
19760TIP3   OH280770   3.430   0.867   7.070  0.3358 -0.3222  0.6688
19760TIP3    H180771   3.461   0.780   7.095  1.4816  0.6027  2.7689
19760TIP3    H280772   3.338   0.869   7.095  0.3470 -0.8660  0.7510
19761TIP3   OH280773   1.888   2.768   6.686  0.4525 -0.3669  0.2691
19761TIP3    H180774   1.928   2.855   6.694 -0.8339  0.5805 -2.4034
19761TIP3    H280775   1.826   2.763   6.758  1.4772  0.3511  1.2421
19762TIP3   OH280776   1.129   1.974  43.595  0.3531 -0.1112 -0.1949
19762TIP3    H180777   1.096   1.978  43.506 -0.0104 -0.9873 -0.1051
19762TIP3    H280778   1.052   1.985  43.651  0.6975  1.3638  0.0319
19763TIP3   OH280779   1.759   2.601   9.060  0.0677 -0.4392 -0.1910
19763TIP3    H180780   1.672   2.624   9.092  0.3577  0.0253  0.2729
19763TIP3    H280781   1.791   2.681   9.018  0.4007 -0.5152 -0.0835
19764TIP3   OH280782   1.949   1.508  56.937  0.3287  0.5119 -0.3086
19764TIP3    H180783   1.953   1.558  56.855  0.0444 -2.1849 -2.1014
19764TIP3    H280784   1.856   1.497  56.953  0.3388 -1.1495 -1.1454
19765TIP3   OH280785   2.740   2.475  13.483  0.1134  0.0670 -0.1401
19765TIP3    H180786   2.807   2.542  13.483  1.2676 -1.0451 -0.0154
19765TIP3    H280787   2.718   2.463  13.390  0.3833  0.1410 -0.2121
19766TIP3   OH280788   2.625   2.917   6.963 -0.3611  0.3494  0.5255
19766TIP3    H180789   2.714   2.928   6.995  0.0645 -0.9344 -0.1557
19766TIP3    H280790   2.589   3.006   6.962  2.2662  1.6329 -3.0643
19767TIP3   OH280791   2.919   1.020  16.167  0.2862 -0.2028 -0.2964
19767TIP3    H180792   2.947   1.053  16.252 -0.4644  0.6717 -0.3811
19767TIP3    H280793   2.829   1.048  16.158 -0.3421 -2.1170 -0.4793
19768TIP3   OH280794   2.862   3.350  63.474  0.2544  0.2802  0.3149
19768TIP3    H180795   2.950   3.364  63.440 -0.2654  2.4528 -0.2899
19768TIP3    H280796   2.867   3.380  63.565 -0.1162  1.4713 -0.0510
19769TIP3   OH280797   2.567   2.277  56.445  0.2503  0.3703  0.4319
19769TIP3    H180798   2.661   2.285  56.462  0.2492 -1.0645  1.2821
19769TIP3    H280799   2.561   2.217  56.371 -0.0218 -0.3198  1.0125
19770TIP3   OH280800   2.933   1.041   6.387 -0.5231  0.1177 -0.0453
19770TIP3    H180801   2.989   0.979   6.434 -1.8292 -2.1386 -1.2725
19770TIP3    H280802   2.982   1.124   6.389  1.8463 -1.1961  0.7227
19771TIP3   OH280803   2.660   1.404  11.811 -0.3094 -0.2088  0.0799
19771TIP3    H180804   2.749   1.374  11.792 -0.2068 -0.2528  0.6072
19771TIP3    H280805   2.605   1.327  11.801 -0.2302 -0.2744  0.1467
19772TIP3   OH280806   1.901   2.768  40.006 -0.0993  0.1476 -0.4767
19772TIP3    H180807   1.839   2.700  39.980  1.3556 -0.7752 -1.7061
19772TIP3    H280808   1.887   2.839  39.943  0.9619 -0.6075 -1.5978
19773TIP3   OH280809   0.618   0.413  19.498  0.1869  0.2013  0.2000
19773TIP3    H180810   0.654   0.408  19.409 -0.0213  1.8458 -0.0227
19773TIP3    H280811   0.577   0.328  19.513  0.4229 -0.1846 -1.1877
19774TIP3   OH280812   3.382   1.859  61.024  0.9165 -0.6432 -0.0337
19774TIP3    H180813   3.414   1.917  61.093  0.9074  0.2613 -0.7725
19774TIP3    H280814   3.294   1.833  61.053  1.3140 -1.0966  0.7815
19775TIP3   OH280815   1.271   0.952   4.146 -0.4499  0.4877  0.0968
19775TIP3    H180816   1.215   1.021   4.181 -1.8117 -0.5583  0.0792
19775TIP3    H280817   1.210   0.883   4.118  0.7523 -0.0219 -1.4604
19776TIP3   OH280818   2.680   2.442  53.752  0.5161 -0.0552  0.0016
19776TIP3    H180819   2.609   2.419  53.811 -0.7542  0.1383 -1.3940
19776TIP3    H280820   2.728   2.511  53.798  0.3415 -0.7971  1.3389
19777TIP3   OH280821   1.295   1.062  50.974  0.2701 -0.1176 -0.7379
19777TIP3    H180822   1.380   1.106  50.977  0.1816  0.0195 -0.1484
19777TIP3    H280823   1.283   1.028  51.062 -0.4981  0.2512 -0.6982
19778TIP3   OH280824   2.614   2.872  12.088 -0.1509 -0.1886 -0.0808
19778TIP3    H180825   2.694   2.918  12.064  0.8947 -1.9700 -0.1610
19778TIP3    H280826   2.616   2.869  12.184 -0.3412  0.1323 -0.0657
19779TIP3   OH280827   2.205   0.166  20.276 -0.4549  0.8189 -0.1343
19779TIP3    H180828   2.154   0.247  20.275  0.1023  1.4818  4.4944
19779TIP3    H280829   2.179   0.122  20.357  3.1933 -0.9062  0.3130
19780TIP3   OH280830   1.358   0.553  66.657  0.6541  0.1240 -0.4291
19780TIP3    H180831   1.290   0.486  66.663  0.4341  0.2430 -1.4191
19780TIP3    H280832   1.405   0.547  66.740 -0.9228  0.4304  0.5224
19781TIP3   OH280833   1.561   1.349  66.016 -0.1515  0.2859  0.1013
19781TIP3    H180834   1.616   1.285  65.970  0.2082 -0.5349  1.6159
19781TIP3    H280835   1.482   1.355  65.961  0.5654 -0.0774 -1.0118
19782TIP3   OH280836   0.887   2.906  60.645  0.3960  0.1476  0.9254
19782TIP3    H180837   0.909   2.960  60.722 -0.7378  1.6057  0.2710
19782TIP3    H280838   0.960   2.844  60.638  2.3452  2.3017  1.0782
19783TIP3   OH280839   1.880   0.640  65.676  0.5229 -0.2831  0.7967
19783TIP3    H180840   1.902   0.681  65.759 -0.2772  0.4271  0.6729
19783TIP3    H280841   1.789   0.665  65.660  0.6684 -0.3989 -0.3025
19784TIP3   OH280842   1.405   0.478  64.448 -0.4193 -0.0329  0.5420
19784TIP3    H180843   1.396   0.517  64.535 -2.3362  2.4725 -0.6662
19784TIP3    H280844   1.487   0.514  64.414 -0.3283  0.0252  0.8232
19785TIP3   OH280845   2.952   1.371  15.054 -0.1841  0.2003 -0.3519
19785TIP3    H180846   2.871   1.388  15.006  0.6325  1.6261 -1.3283
19785TIP3    H280847   2.953   1.438  15.123 -0.0963 -0.1736  0.0146
19786TIP3   OH280848   1.339   1.503  51.039 -0.3361 -0.1532  0.8609
19786TIP3    H180849   1.281   1.443  50.992 -1.9368  0.2133  2.2380
19786TIP3    H280850   1.400   1.445  51.085  0.7891 -0.5327 -1.0007
19787TIP3   OH280851   1.853   3.448  51.291 -0.6309  0.0164  0.1960
19787TIP3    H180852   1.915   3.429  51.363  0.0798 -0.0977 -0.4351
19787TIP3    H280853   1.770   3.465  51.335 -0.3563 -0.6781  1.0215
19788TIP3   OH280854   0.489   2.539  46.029  0.3647 -0.0642 -0.0742
19788TIP3    H180855   0.423   2.470  46.042  0.9392 -0.4314  0.9788
19788TIP3    H280856   0.560   2.516  46.089  0.7947  1.1694 -0.0881
19789TIP3   OH280857   3.319   2.696   0.824  0.3463  0.0325 -0.4140
19789TIP3    H180858   3.365   2.619   0.790 -0.8255 -0.8109 -0.1279
19789TIP3    H280859   3.305   2.677   0.916  0.2411  0.6923 -0.2914
19790TIP3   OH280860   2.810   0.546  27.410 -0.3636 -0.4297  0.4751
19790TIP3    H180861   2.751   0.479  27.375  0.3242 -0.0324 -1.5296
19790TIP3    H280862   2.897   0.506  27.406 -0.1144  0.1000  0.5527
19791TIP3   OH280863   2.444   0.812  59.598 -0.4175 -0.1982  0.2900
19791TIP3    H180864   2.469   0.721  59.611  0.4945  0.1147  0.8227
19791TIP3    H280865   2.466   0.830  59.507 -0.9297 -0.6102  0.0852
19792TIP3   OH280866   2.465   0.998  14.124  0.4549 -0.6251  0.4908
19792TIP3    H180867   2.545   0.987  14.072  0.9113  2.2843  0.3951
19792TIP3    H280868   2.480   0.947  14.203  1.2086 -2.3421 -0.7009
19793TIP3   OH280869   1.234   0.942  18.202  0.0360 -0.6881 -1.0926
19793TIP3    H180870   1.303   0.925  18.138  0.4723 -1.5578 -0.4185
19793TIP3    H280871   1.248   0.876  18.271 -0.3616  0.2777 -0.0522
19794TIP3   OH280872   1.478   1.876   6.474  0.0274  0.1912  0.5948
19794TIP3    H180873   1.568   1.843   6.471 -0.7315 -2.0506 -0.0822
19794TIP3    H280874   1.485   1.967   6.445  1.9622 -0.2047 -0.3763
19795TIP3   OH280875   0.233   0.710   1.055  0.3399 -0.2910  0.4691
19795TIP3    H180876   0.326   0.717   1.075  0.1860 -0.9925  1.4877
19795TIP3    H280877   0.192   0.686   1.138 -0.7866  0.2825  0.0962
19796TIP3   OH280878   3.130   2.396  57.576 -0.7444  0.1243 -0.0429
19796TIP3    H180879   3.179   2.470  57.542 -0.5430 -0.6989 -1.6295
19796TIP3    H280880   3.046   2.400  57.531 -1.2969  0.2074  0.9539
19797TIP3   OH280881   1.016   2.150  53.118 -1.1121  0.2210 -0.0220
19797TIP3    H180882   1.010   2.237  53.157 -1.4100  0.3280 -0.3058
19797TIP3    H280883   1.005   2.090  53.191  0.5566  0.4041  0.4164
19798TIP3   OH280884   1.186   1.791  13.572  0.3190  0.1029  0.4308
19798TIP3    H180885   1.150   1.777  13.484  0.3419  0.0982  0.4218
19798TIP3    H280886   1.271   1.745  13.570  0.0907 -0.3375  0.6204
19799TIP3   OH280887   2.960   1.197   3.341 -0.2862  0.0168 -0.4917
19799TIP3    H180888   2.890   1.132   3.329 -1.4660  0.4259  2.9726
19799TIP3    H280889   2.937   1.268   3.280 -1.5362 -0.8920 -1.1279
19800TIP3   OH280890   3.250   2.180  48.062  0.1773 -0.0751  0.1104
19800TIP3    H180891   3.164   2.164  48.100  0.7475 -1.4459  0.8984
19800TIP3    H280892   3.284   2.093  48.041  0.8014  0.5234 -1.5141
19801TIP3   OH280893   2.701   3.421  19.531 -0.0269 -0.1247  0.0965
19801TIP3    H180894   2.722   3.471  19.610 -2.2095 -0.8842  1.2447
19801TIP3    H280895   2.606   3.428  19.523 -0.0694 -1.7252 -1.3567
19802TIP3   OH280896   0.312   0.438  14.665 -0.0948 -0.2791  0.2293
19802TIP3    H180897   0.394   0.389  14.661  0.2261  0.0482  2.1207
19802TIP3    H280898   0.302   0.475  14.577  1.8183 -0.2771 -0.0285
19803TIP3   OH280899   3.047   1.476  47.902 -0.5473 -0.1774 -0.2052
19803TIP3    H180900   3.043   1.417  47.827 -0.9296 -0.7116  0.2255
19803TIP3    H280901   3.136   1.511  47.900 -0.4955 -0.3206 -0.8011
19804TIP3   OH280902   2.225   0.751   8.284  0.1302  0.1472  0.0205
19804TIP3    H180903   2.292   0.692   8.249 -0.7047 -0.1951 -1.0748
19804TIP3    H280904   2.274   0.830   8.309  1.0443 -0.3954  0.0058
19805TIP3   OH280905   2.120   2.905   2.093 -0.0036  0.0605  0.4691
19805TIP3    H180906   2.102   2.814   2.118  1.7498  0.0930  2.1369
19805TIP3    H280907   2.171   2.898   2.012 -0.9918 -0.3567 -0.1275
19806TIP3   OH280908   3.050   3.354  14.518  0.1908  0.0869  0.0604
19806TIP3    H180909   2.997   3.409  14.460 -0.6790 -0.3656  0.4029
19806TIP3    H280910   3.000   3.273  14.527  1.2845 -0.6365 -0.1566
19807TIP3   OH280911   0.059   1.493  14.263 -0.3403 -0.1745 -0.1709
19807TIP3    H180912  -0.032   1.519  14.276 -1.0276 -1.8238 -1.2917
19807TIP3    H280913   0.107   1.536  14.333 -1.7622  1.7793 -0.3203
19808TIP3   OH280914   1.555   1.148  59.721  0.0864 -0.6653 -0.5164
19808TIP3    H180915   1.514   1.183  59.642  0.8368 -0.1896 -0.7116
19808TIP3    H280916   1.551   1.220  59.784  0.5041 -0.6486 -0.5035
19809TIP3   OH280917   0.519   3.442  10.918 -0.3848  0.2920  0.6627
19809TIP3    H180918   0.442   3.386  10.908 -0.4226  0.4086  0.3090
19809TIP3    H280919   0.487   3.530  10.898 -0.1005  0.3060  0.2721
19810TIP3   OH280920   1.250   2.008  16.520  0.7996 -0.3640 -0.1038
19810TIP3    H180921   1.176   2.066  16.542  0.7270 -0.5028  0.0254
19810TIP3    H280922   1.215   1.920  16.534  1.1985 -0.4126  0.6351
19811TIP3   OH280923   3.066   0.020   8.943 -0.6400  0.2337  0.1311
19811TIP3    H180924   3.111   0.041   9.025  0.3134 -1.1699  0.0106
19811TIP3    H280925   3.027  -0.066   8.959  1.9887 -1.4651 -1.7216
19812TIP3   OH280926   2.910   3.086   5.914 -0.0026 -0.1817  0.0625
19812TIP3    H180927   2.860   3.072   5.833  0.8715 -2.2753 -0.1771
19812TIP3    H280928   2.852   3.054   5.984 -0.3423  0.6541  0.1767
19813TIP3   OH280929   0.024   0.304  57.760 -0.5822  0.0381 -0.0157
19813TIP3    H180930   0.105   0.262  57.732 -1.7244 -1.9038 -0.6062
19813TIP3    H280931   0.042   0.398  57.754  1.8730 -0.3078  0.7132
19814TIP3   OH280932   0.092   1.311  48.420 -0.5814  0.4109  0.0352
19814TIP3    H180933   0.141   1.239  48.382  2.0606  1.0140  2.0232
19814TIP3    H280934   0.055   1.274  48.501  0.9421  1.2311  1.1617
19815TIP3   OH280935   2.987   3.429  22.353 -0.1487 -0.6642 -0.0312
19815TIP3    H180936   2.933   3.438  22.432  0.1331  0.5498  0.0340
19815TIP3    H280937   3.076   3.418  22.386 -0.1557 -1.2073 -0.1736
19816TIP3   OH280938   2.845   1.804  62.222  0.0275  0.2912 -0.7396
19816TIP3    H180939   2.890   1.861  62.160  1.9246  0.3035  0.5682
19816TIP3    H280940   2.769   1.771  62.173 -0.1622  2.5163 -2.0929
19817TIP3   OH280941   2.593   1.181  51.442 -0.0278 -0.3664 -0.3157
19817TIP3    H180942   2.613   1.240  51.515 -0.3854  0.1155 -0.6070
19817TIP3    H280943   2.677   1.139  51.421 -0.1520 -1.4552  1.1982
19818TIP3   OH280944   1.175   1.344  48.071 -0.6002  0.1137  0.1237
19818TIP3    H180945   1.220   1.296  48.140  0.8053  1.7135  0.3869
19818TIP3    H280946   1.137   1.420  48.114  0.1496  1.0475 -0.8015
19819TIP3   OH280947   2.944   0.934   5.733 -0.1608 -0.1487 -0.2803
19819TIP3    H180948   3.014   0.878   5.699 -1.1623 -1.2189 -0.6791
19819TIP3    H280949   2.942   1.009   5.673  2.0631  1.0518  1.0094
19820TIP3   OH280950   1.158   1.939  45.708 -0.1208 -0.3462 -0.0028
19820TIP3    H180951   1.163   1.867  45.771  0.3547 -1.3578 -1.1440
19820TIP3    H280952   1.103   2.004  45.750 -1.5767 -1.8947  0.6032
19821TIP3   OH280953   0.870   2.655  49.390 -0.3873 -0.7821 -0.7995
19821TIP3    H180954   0.934   2.719  49.358  2.4068 -1.8544  2.1168
19821TIP3    H280955   0.869   2.587  49.324 -1.0821  0.7642 -2.4640
19822TIP3   OH280956   2.713   3.326  16.154 -0.0055  0.5143  0.3595
19822TIP3    H180957   2.658   3.292  16.082 -0.0832  1.6558 -0.1391
19822TIP3    H280958   2.681   3.280  16.231 -1.4541  0.8965  0.0221
19823TIP3   OH280959   3.176   1.511   7.304  0.3492  0.3720  0.0114
19823TIP3    H180960   3.148   1.588   7.352 -0.9392 -0.2234  0.2537
19823TIP3    H280961   3.197   1.446   7.371  2.8910  0.9326 -0.1314
19824TIP3   OH280962   2.940   0.586  50.627 -0.5872 -0.4144 -0.5222
19824TIP3    H180963   2.977   0.500  50.649  0.0047 -0.0527 -0.0598
19824TIP3    H280964   2.847   0.577  50.645 -0.3366 -0.5661  0.8531
19825TIP3   OH280965   3.290   1.172   8.802  0.2051 -0.1551  0.7972
19825TIP3    H180966   3.210   1.185   8.853  0.4828 -2.3008  1.8983
19825TIP3    H280967   3.266   1.195   8.713 -1.1614  0.8318  1.3837
19826TIP3   OH280968   2.682   2.936  46.181  0.0074 -0.4757 -0.2766
19826TIP3    H180969   2.762   2.917  46.132  0.3945 -0.0350  0.1825
19826TIP3    H280970   2.640   3.006  46.130 -0.1847 -0.8355 -0.6199
19827TIP3   OH280971   1.297   0.615  22.684  0.2229 -0.2772 -0.2348
19827TIP3    H180972   1.313   0.692  22.629 -1.0866  0.7305  0.6877
19827TIP3    H280973   1.223   0.571  22.642  0.4696 -0.5936 -0.3360
19828TIP3   OH280974   2.921   1.282  55.188  0.1466 -0.3912 -0.0548
19828TIP3    H180975   2.889   1.287  55.098  0.8918  1.3024 -0.2606
19828TIP3    H280976   3.015   1.300  55.182  0.3150 -0.8037  1.0050
19829TIP3   OH280977   3.299   3.322  47.802  0.3829 -0.0071  0.0011
19829TIP3    H180978   3.253   3.320  47.885 -0.4561 -1.3284 -0.4654
19829TIP3    H280979   3.299   3.415  47.777 -0.5813  0.2246  0.7991
19830TIP3   OH280980   3.146   1.616  42.894 -0.0683  0.9509  0.0730
19830TIP3    H180981   3.208   1.649  42.830  0.9370 -0.1381  0.4570
19830TIP3    H280982   3.061   1.649  42.864  0.3446  0.3182 -1.9204
19831TIP3   OH280983   2.157   1.809  45.728  0.6673 -0.2810  0.1012
19831TIP3    H180984   2.170   1.779  45.638 -0.2265  1.6965 -0.7610
19831TIP3    H280985   2.244   1.840  45.755  0.4211  1.8731 -1.2517
19832TIP3   OH280986   0.703   2.220  18.964 -0.3345  0.4708  0.2234
19832TIP3    H180987   0.786   2.178  18.989  0.2596  1.7898  0.5589
19832TIP3    H280988   0.647   2.148  18.937  1.5571 -0.3082 -1.8980
19833TIP3   OH280989   3.311   1.966   3.961  0.3117 -0.1222 -0.3125
19833TIP3    H180990   3.390   1.979   3.909  0.1217  0.0794 -0.5615
19833TIP3    H280991   3.266   1.892   3.918  1.0724 -1.2037  0.7093
19834TIP3   OH280992   2.257   2.393  13.967 -0.0481 -0.1546 -0.3059
19834TIP3    H180993   2.173   2.438  13.957  0.3702  0.8282  0.3968
19834TIP3    H280994   2.267   2.343  13.886 -1.3412 -0.3573 -0.3686
19835TIP3   OH280995   2.059   0.022  48.764  0.0469 -0.4022 -1.0526
19835TIP3    H180996   2.139  -0.029  48.756 -0.3660 -1.1180 -0.6420
19835TIP3    H280997   1.989  -0.038  48.740 -0.4154  0.0804 -0.9433
19836TIP3   OH280998   2.797   2.479  54.184  0.2059  0.0446 -0.4910
19836TIP3    H180999   2.856   2.550  54.159  0.1784 -0.4625 -2.1664
19836TIP3    H281000   2.823   2.456  54.273 -0.2632  2.6104  0.3889
19837TIP3   OH281001   3.245   0.183  43.394 -0.4223  0.4500  0.3691
19837TIP3    H181002   3.239   0.095  43.429 -1.8127 -0.5001 -2.0359
19837TIP3    H281003   3.195   0.237  43.456 -0.6584 -0.6731  1.1833
19838TIP3   OH281004   2.896   1.302  19.625  0.0629 -0.4596  0.6864
19838TIP3    H181005   2.814   1.267  19.589 -0.1392 -0.1772  0.8662
19838TIP3    H281006   2.895   1.275  19.717 -1.3568  2.1614  1.5523
19839TIP3   OH281007   3.033   2.128   2.791 -0.0764  0.5054  0.4215
19839TIP3    H181008   3.008   2.096   2.878  0.5005 -0.6938  0.1693
19839TIP3    H281009   3.085   2.057   2.754  1.4871  1.8749 -0.0782
19840TIP3   OH281010   0.901   2.897  11.331 -0.6540 -0.0876 -0.0006
19840TIP3    H181011   0.849   2.977  11.337 -0.3774  0.2580 -1.6504
19840TIP3    H281012   0.911   2.882  11.237  1.5363 -0.5909  0.2634
19841TIP3   OH281013   0.831   1.567  33.730 -0.2569 -0.3198 -0.1581
19841TIP3    H181014   0.774   1.514  33.674  2.8426 -0.3881 -3.6263
19841TIP3    H281015   0.898   1.507  33.760  0.4433  0.6012  0.1693
19842TIP3   OH281016   0.431   2.996  17.236  0.1949  0.8030 -0.3626
19842TIP3    H181017   0.400   2.930  17.173  2.1686  1.7592 -2.4781
19842TIP3    H281018   0.353   3.049  17.256 -0.8282 -0.5136 -0.6742
19843TIP3   OH281019   2.176   2.110  61.836  0.0865  0.0191  0.1030
19843TIP3    H181020   2.157   2.171  61.908  1.5677  1.6030 -0.7914
19843TIP3    H281021   2.255   2.064  61.864  1.8689  2.0723 -1.2749
19844TIP3   OH281022   2.986   3.098  55.385 -0.5393 -0.3465  0.1495
19844TIP3    H181023   2.969   3.008  55.357 -1.0643 -0.1620 -0.1426
19844TIP3    H281024   2.945   3.105  55.471 -0.0040 -0.5502  0.4221
19845TIP3   OH281025   0.080   0.438  44.663  0.1941 -0.0341 -0.0839
19845TIP3    H181026   0.089   0.346  44.638 -1.7490 -0.6982  1.3867
19845TIP3    H281027   0.164   0.460  44.704  1.0483 -0.8259 -1.3246
19846TIP3   OH281028   1.614   0.339  14.176 -0.0134  0.4934  0.3281
19846TIP3    H181029   1.664   0.381  14.106  0.3100  0.6238  0.6332
19846TIP3    H281030   1.523   0.355  14.154 -0.0293 -1.6737 -1.4670
19847TIP3   OH281031   1.062   2.899  65.402 -0.1093 -0.2658 -0.0430
19847TIP3    H181032   1.018   2.875  65.321 -1.1894  0.6778  0.2320
19847TIP3    H281033   1.069   2.816  65.451 -0.3897 -0.6564 -0.6516
19848TIP3   OH281034   2.427   0.326  49.320 -0.1486 -0.3000 -0.2667
19848TIP3    H181035   2.404   0.241  49.357 -0.4182  0.4503  1.3652
19848TIP3    H281036   2.398   0.321  49.229  1.0234 -2.4153 -0.6059
19849TIP3   OH281037   2.057   0.277  55.687  0.0166  0.2750 -0.2504
19849TIP3    H181038   1.977   0.308  55.643 -0.9574 -2.7292 -0.8699
19849TIP3    H281039   2.116   0.253  55.616  0.2423 -0.3688  0.1412
19850TIP3   OH281040   1.009   2.402  49.424  0.2651 -0.4906  0.1943
19850TIP3    H181041   0.974   2.463  49.489  1.8986 -0.0054  0.6653
19850TIP3    H281042   0.932   2.370  49.378 -0.8899 -0.2877  1.8774
19851TIP3   OH281043   2.454   2.541   0.855 -0.2088  0.3433 -0.0496
19851TIP3    H181044   2.460   2.620   0.908  0.6402  0.2431  0.0129
19851TIP3    H281045   2.486   2.471   0.913 -0.8185 -0.0289 -0.1488
19852TIP3   OH281046   2.550   1.860  57.308  0.0794 -0.0438  0.6018
19852TIP3    H181047   2.523   1.937  57.257  0.9676  0.7927  1.3497
19852TIP3    H281048   2.644   1.852  57.291 -0.3480 -2.4013 -1.3004
19853TIP3   OH281049   0.724   2.707  16.649 -0.3259 -0.4323 -0.1601
19853TIP3    H181050   0.640   2.702  16.602 -0.5267  1.2377 -0.0434
19853TIP3    H281051   0.777   2.766  16.596 -0.0766  0.3997  0.9861
19854TIP3   OH281052   0.078   2.450  20.682  0.3230 -0.1079  0.2757
19854TIP3    H181053   0.121   2.404  20.755  0.5898 -0.5608 -0.1624
19854TIP3    H281054   0.122   2.535  20.679  1.3286 -0.6339 -0.2836
19855TIP3   OH281055   2.915   1.977  47.854  0.8197  0.3109  0.1133
19855TIP3    H181056   2.980   1.912  47.881  0.8295  0.4570  0.4471
19855TIP3    H281057   2.884   1.946  47.769  0.5567 -0.3251  0.4407
19856TIP3   OH281058   2.196   0.635  64.585  0.3919  0.3948  0.1281
19856TIP3    H181059   2.110   0.653  64.625  0.2265 -2.4302  1.2815
19856TIP3    H281060   2.206   0.703  64.518 -2.4626  1.1712  0.3529
19857TIP3   OH281061   3.157   1.333  50.375  0.2025 -0.3943  0.2688
19857TIP3    H181062   3.248   1.362  50.386 -0.0614  0.5911 -0.0434
19857TIP3    H281063   3.161   1.268  50.305  0.9138 -1.7008  1.4772
19858TIP3   OH281064   0.686   2.851  43.364 -0.1553 -0.0931  0.1185
19858TIP3    H181065   0.595   2.861  43.392 -0.0370  0.0202  0.4767
19858TIP3    H281066   0.724   2.938  43.378 -0.1346  0.0115 -0.5626
19859TIP3   OH281067   2.460   0.622  15.015 -0.4822  0.0562  0.0323
19859TIP3    H181068   2.462   0.555  15.084 -1.3838 -0.5798 -0.5388
19859TIP3    H281069   2.527   0.594  14.952  1.7365  1.6616  1.5116
19860TIP3   OH281070   2.659   3.254  48.698  0.4990  0.5382 -0.3101
19860TIP3    H181071   2.654   3.161  48.717 -2.0237  0.6829  0.0794
19860TIP3    H281072   2.610   3.264  48.616 -0.4138  1.6581  0.3437
19861TIP3   OH281073   2.050   0.226   7.461  0.3946  0.2051 -0.8482
19861TIP3    H181074   2.108   0.220   7.537 -0.2080 -0.7048 -0.4465
19861TIP3    H281075   1.987   0.293   7.485  0.3098  0.0437 -0.6158
19862TIP3   OH281076   1.426   1.541  47.997 -0.5265 -0.1584  0.2299
19862TIP3    H181077   1.478   1.606  48.044  0.2980  0.1546 -1.0774
19862TIP3    H281078   1.335   1.571  48.008 -0.1003  1.8191 -1.1883
19863TIP3   OH281079   0.750   0.840  45.980 -0.1127  0.0744 -0.7093
19863TIP3    H181080   0.786   0.757  46.013  0.5175  0.6402  0.0587
19863TIP3    H281081   0.786   0.847  45.891 -0.9827 -0.9537 -1.1589
19864TIP3   OH281082   3.207   1.621  63.494 -0.4589 -0.6563  0.0052
19864TIP3    H181083   3.207   1.684  63.566 -0.7671  0.9058 -1.2834
19864TIP3    H281084   3.278   1.650  63.437  0.9470 -2.9074  0.4889
19865TIP3   OH281085   0.351   1.006   4.741  0.1633  0.1938 -0.2759
19865TIP3    H181086   0.270   1.043   4.778 -0.1646  0.8157 -1.5830
19865TIP3    H281087   0.406   1.082   4.725  0.0635 -0.0092 -1.6226
19866TIP3   OH281088   3.181   2.913  11.207 -0.0690  0.2230  0.2033
19866TIP3    H181089   3.095   2.913  11.248  0.5336  0.7836  1.5032
19866TIP3    H281090   3.170   2.859  11.129 -1.8155  1.0209 -0.1433
19867TIP3   OH281091   2.082   2.476  66.153 -0.2572 -0.0583 -0.4011
19867TIP3    H181092   1.996   2.435  66.156  0.2464 -1.1114  0.0038
19867TIP3    H281093   2.101   2.498  66.244  0.5440 -1.2290 -0.2635
19868TIP3   OH281094   2.682   2.529  12.667 -0.8467  0.6306  0.7679
19868TIP3    H181095   2.604   2.522  12.723 -1.9014  0.5590 -0.6375
19868TIP3    H281096   2.665   2.607  12.613  0.5487  1.2100  1.1411
19869TIP3   OH281097   2.985   3.108  28.881 -0.1557  0.1391  0.3105
19869TIP3    H181098   2.974   3.132  28.789  0.3376 -0.6848  0.0274
19869TIP3    H281099   2.962   3.015  28.884  2.5235 -0.6043  0.4531
19870TIP3   OH281100   0.527   0.415  34.220  0.5453 -0.1528 -0.1167
19870TIP3    H181101   0.462   0.359  34.177 -0.4347  0.0802  0.9753
19870TIP3    H281102   0.499   0.504  34.199 -0.2490 -0.0257  1.3580
19871TIP3   OH281103   1.542   2.164   6.547  1.2328 -0.0187  0.2846
19871TIP3    H181104   1.613   2.108   6.578  1.2086  0.1800  0.6949
19871TIP3    H281105   1.520   2.220   6.621 -0.1531 -0.8741  0.5510
19872TIP3   OH281106   1.465   3.230  11.272 -0.4271  0.1567  0.1096
19872TIP3    H181107   1.393   3.171  11.294  0.5214 -1.5822 -1.2345
19872TIP3    H281108   1.494   3.201  11.186  3.0122 -0.3537  1.3189
19873TIP3   OH281109   3.286   3.441   5.839 -0.2688 -0.3410  0.1442
19873TIP3    H181110   3.217   3.423   5.774 -0.7854  0.1904  0.5301
19873TIP3    H281111   3.311   3.532   5.822 -0.4920 -0.1598  0.7590
19874TIP3   OH281112   1.530   1.854  36.506  0.2090  0.3079 -0.0925
19874TIP3    H181113   1.565   1.873  36.419 -1.0892  0.2107 -0.6459
19874TIP3    H281114   1.544   1.934  36.556  0.8981  0.3874 -0.4021
19875TIP3   OH281115   0.653   2.196  21.988  0.6636 -0.6498  0.0402
19875TIP3    H181116   0.564   2.230  21.978 -0.4276 -3.2400  0.0037
19875TIP3    H281117   0.703   2.269  22.024 -1.4967  0.8597  0.1889
19876TIP3   OH281118   0.756   3.210  57.807  0.3546 -0.0364 -0.0849
19876TIP3    H181119   0.795   3.261  57.735  1.4107 -1.1494 -0.3217
19876TIP3    H281120   0.699   3.273  57.852  0.8346  1.0830 -0.9832
19877TIP3   OH281121   3.146   2.596  13.091  0.0089  0.4546  0.2786
19877TIP3    H181122   3.159   2.521  13.032 -0.5876 -0.3156  1.1127
19877TIP3    H281123   3.233   2.636  13.096 -0.1295  1.2193 -1.9800
19878TIP3   OH281124   1.106   1.405  56.613 -0.1891  0.6072  0.0283
19878TIP3    H181125   1.091   1.424  56.706 -0.8379  0.0915  0.0338
19878TIP3    H281126   1.136   1.314  56.611  0.6769  0.8822 -0.1986
19879TIP3   OH281127   0.547   0.485  52.926  0.1782  0.4021 -0.6499
19879TIP3    H181128   0.579   0.562  52.974  0.9088  0.3666 -1.0653
19879TIP3    H281129   0.622   0.427  52.921  0.0791  0.3466 -1.7182
19880TIP3   OH281130   1.900   1.199  58.236  1.0558 -0.4293  0.5079
19880TIP3    H181131   1.936   1.272  58.287  1.1879 -0.1647  0.0414
19880TIP3    H281132   1.946   1.204  58.152  0.8119 -0.8372  0.3493
19881TIP3   OH281133   1.645   1.456  34.917  0.3418  0.1412  0.8960
19881TIP3    H181134   1.723   1.443  34.972  1.5602 -0.1715 -0.8189
19881TIP3    H281135   1.677   1.505  34.841 -0.5068 -2.2651 -1.1579
19882TIP3   OH281136   0.567   2.274  45.552 -0.4898  0.4726  0.7762
19882TIP3    H181137   0.583   2.347  45.612  0.7791  0.7776  0.1044
19882TIP3    H281138   0.602   2.197  45.597 -0.3619  0.5538  0.8184
19883TIP3   OH281139   1.732   0.394  62.513 -0.2686 -0.1189  0.0757
19883TIP3    H181140   1.649   0.441  62.527  0.5501  1.2515  0.5844
19883TIP3    H281141   1.733   0.375  62.420 -1.0420  0.1018  0.0167
19884TIP3   OH281142   1.836   2.881  58.341  0.2467 -0.4534 -0.5860
19884TIP3    H181143   1.875   2.822  58.277  0.9014  1.6980 -2.2932
19884TIP3    H281144   1.895   2.956  58.343 -1.8943  1.3145 -0.4720
19885TIP3   OH281145   0.622   1.638  38.039 -0.2102  0.3035 -0.1877
19885TIP3    H181146   0.658   1.557  38.002  1.5721  1.0117 -0.0946
19885TIP3    H281147   0.642   1.633  38.132  1.0552  1.3952 -0.3784
19886TIP3   OH281148   1.217   0.932   1.821  0.3873 -0.0142  0.1564
19886TIP3    H181149   1.173   1.014   1.842  1.9267  0.6786  0.7994
19886TIP3    H281150   1.276   0.953   1.749  0.4122 -0.6893 -0.0281
19887TIP3   OH281151   0.196   3.089  17.310 -0.7965  0.5007  0.4830
19887TIP3    H181152   0.134   3.018  17.296 -1.9161  1.2884  1.2814
19887TIP3    H281153   0.168   3.130  17.391  0.6052  1.0693  0.7119
19888TIP3   OH281154   0.382   0.190  14.282 -0.3124 -0.1148  0.3984
19888TIP3    H181155   0.468   0.177  14.243 -1.1515 -0.3363 -1.5134
19888TIP3    H281156   0.389   0.154  14.370  1.4058 -0.5350  0.1176
19889TIP3   OH281157   1.318   1.257   0.967 -0.3220 -0.2163  0.3992
19889TIP3    H181158   1.382   1.200   0.923 -1.7022 -1.2003 -0.4267
19889TIP3    H281159   1.342   1.252   1.060  2.6176  1.8602 -0.0973
19890TIP3   OH281160   3.206   1.038  55.323  0.2794  0.7930 -0.2557
19890TIP3    H181161   3.217   1.111  55.262 -0.6354  1.8015  0.7392
19890TIP3    H281162   3.209   1.078  55.409  2.4907 -0.7246  0.4649
19891TIP3   OH281163   1.863   3.099  45.095 -0.0455  0.1303  0.5523
19891TIP3    H181164   1.848   3.009  45.123 -1.2420 -0.4223 -1.6329
19891TIP3    H281165   1.953   3.118  45.121 -0.5095 -0.8427  3.1211
19892TIP3   OH281166   3.448   0.144  44.781  0.0915  0.7007  0.0366
19892TIP3    H181167   3.428   0.076  44.717 -1.3681  0.0060  1.1593
19892TIP3    H281168   3.382   0.212  44.764  0.3081  0.9427  0.1642
19893TIP3   OH281169   0.484   0.787   3.001  0.1377 -0.1126 -0.2215
19893TIP3    H181170   0.480   0.730   3.078  2.7363  0.7796  0.6652
19893TIP3    H281171   0.461   0.730   2.928  0.3442 -1.7037  0.8982
19894TIP3   OH281172   0.992   0.800  34.693  0.2183  0.0124 -0.0944
19894TIP3    H181173   1.033   0.884  34.676  0.0846 -0.2266 -1.7498
19894TIP3    H281174   0.998   0.753  34.610 -3.1344 -0.1406 -0.3832
19895TIP3   OH281175   2.837   1.425   2.655 -0.7895  0.5167  0.0134
19895TIP3    H181176   2.891   1.407   2.732 -1.0702 -2.6653 -0.3967
19895TIP3    H281177   2.900   1.430   2.583 -0.6939  1.4610  0.1547
19896TIP3   OH281178   1.076   2.749  61.414 -0.0281 -0.1298  0.0739
19896TIP3    H181179   1.125   2.707  61.344 -0.0021  1.3145 -0.8131
19896TIP3    H281180   1.065   2.680  61.480  2.5997 -0.6793  0.0303
19897TIP3   OH281181   2.954   0.975  17.338 -0.0088  0.2858  0.0156
19897TIP3    H181182   2.889   1.022  17.391 -0.9728  0.8068 -1.5368
19897TIP3    H281183   2.926   0.992  17.248  1.7750 -0.2579 -0.6685
19898TIP3   OH281184   2.396   3.196  29.190 -0.4937 -0.5096  0.2290
19898TIP3    H181185   2.317   3.247  29.208 -1.2815 -2.1213  1.5601
19898TIP3    H281186   2.448   3.203  29.270  0.5135  0.1072 -0.4491
19899TIP3   OH281187   2.042   0.002  66.049  0.6647  0.0709 -0.5109
19899TIP3    H181188   2.087  -0.077  66.020 -0.3915 -1.3820  1.5568
19899TIP3    H281189   2.075   0.016  66.138 -2.3656 -0.7075  0.8587
19900TIP3   OH281190   2.549   2.522  64.628  0.0682 -0.8198 -0.3034
19900TIP3    H181191   2.576   2.482  64.711  1.0867 -1.6116 -0.9766
19900TIP3    H281192   2.554   2.450  64.565 -1.6338 -0.4685 -0.8860
19901TIP3   OH281193   0.156   0.793   4.274 -0.4181 -0.4540  0.2199
19901TIP3    H181194   0.098   0.767   4.202 -0.8690 -2.0977  1.1329
19901TIP3    H281195   0.238   0.818   4.231 -1.3610  0.7026 -0.9978
19902TIP3   OH281196   2.554   1.730  61.797 -0.0947 -0.8560  0.5149
19902TIP3    H181197   2.552   1.654  61.739 -1.0172 -1.0195  0.7369
19902TIP3    H281198   2.628   1.783  61.766  0.1619 -1.5278 -0.0431
19903TIP3   OH281199   2.422   1.688  58.190  0.1801  0.4058  0.0012
19903TIP3    H181200   2.453   1.765  58.144  0.8480 -0.5476 -1.2217
19903TIP3    H281201   2.366   1.722  58.260  0.9200  1.9976 -0.1445
19904TIP3   OH281202   0.127   3.410  53.763  0.0745 -0.7326  0.1216
19904TIP3    H181203   0.207   3.462  53.757 -0.1652 -0.2276  1.1510
19904TIP3    H281204   0.059   3.472  53.789 -1.1083 -0.7435 -2.5286
19905TIP3   OH281205   3.432   3.447  57.936  0.0507 -0.3011 -0.2966
19905TIP3    H181206   3.394   3.460  57.849 -0.5387 -0.9485 -0.1511
19905TIP3    H281207   3.524   3.472  57.926 -0.2721  0.7150 -0.8118
19906TIP3   OH281208   0.611   0.201  22.338 -0.1488  0.2369 -0.1710
19906TIP3    H181209   0.524   0.231  22.366 -0.8040 -0.5958 -1.2057
19906TIP3    H281210   0.669   0.276  22.354 -0.7370  0.2769  1.9774
19907TIP3   OH281211   2.781   1.825  11.799 -0.0481  0.2838  0.7642
19907TIP3    H181212   2.832   1.753  11.760 -1.2903  0.2079 -0.8311
19907TIP3    H281213   2.733   1.784  11.871  1.8327  0.2875  2.0785
19908TIP3   OH281214   1.768   1.170  22.478 -0.4356 -0.5580  0.0978
19908TIP3    H181215   1.772   1.256  22.520 -0.8177 -0.7250  0.4928
19908TIP3    H281216   1.710   1.119  22.535  0.0417 -1.1689  0.0426
19909TIP3   OH281217   1.783   2.964  17.005 -0.0992  0.4687  0.3111
19909TIP3    H181218   1.721   2.936  17.072  0.9804  0.9004  1.5337
19909TIP3    H281219   1.860   2.910  17.019 -0.6623 -1.1435 -2.1772
19910TIP3   OH281220   2.627   1.807  28.362 -0.7946 -0.1215  0.9958
19910TIP3    H181221   2.644   1.890  28.407  0.3252  1.2228 -1.6898
19910TIP3    H281222   2.598   1.832  28.274 -1.1906 -2.6051  0.3187
19911TIP3   OH281223   1.788   1.835  66.199 -0.1660  0.0809  0.1580
19911TIP3    H181224   1.763   1.744  66.182 -0.1250  0.2024 -0.5963
19911TIP3    H281225   1.707   1.877  66.229 -0.0811 -0.3013  0.9659
19912TIP3   OH281226   3.345   2.594  58.571 -0.2086 -0.3539 -0.1752
19912TIP3    H181227   3.257   2.577  58.605  0.4791 -4.1139  0.1974
19912TIP3    H281228   3.335   2.590  58.476 -0.3361 -1.8840 -0.1207
19913TIP3   OH281229   0.799   1.805  49.688  0.2100 -0.2403  0.1214
19913TIP3    H181230   0.802   1.862  49.611 -0.8581  0.5543  0.6410
19913TIP3    H281231   0.868   1.840  49.745  0.6134 -0.4642 -0.2270
19914TIP3   OH281232   1.457   2.659  48.955  0.0360 -0.5275  0.4706
19914TIP3    H181233   1.470   2.582  49.012 -0.2251 -0.9896 -0.0843
19914TIP3    H281234   1.517   2.644  48.882 -1.2300 -1.0605 -0.4916
19915TIP3   OH281235   1.447   0.901   6.949 -0.3629 -0.3614  0.1349
19915TIP3    H181236   1.500   0.923   7.025  1.2955 -1.6721 -0.5870
19915TIP3    H281237   1.470   0.810   6.929 -1.9085 -0.5400 -1.0216
19916TIP3   OH281238   3.348   0.311  45.652  0.5994 -0.5864 -0.3305
19916TIP3    H181239   3.402   0.291  45.728  0.3025 -0.2706 -0.0299
19916TIP3    H281240   3.296   0.231  45.639 -1.7073  0.4241  1.8203
19917TIP3   OH281241   1.076   0.823  11.337  0.0339  0.3667  0.2891
19917TIP3    H181242   1.071   0.804  11.243  0.3956 -0.8082  0.4884
19917TIP3    H281243   1.142   0.761  11.370  0.4119  1.2332  1.2037
19918TIP3   OH281244   1.421   2.275   0.207  0.0690  0.0874 -0.0336
19918TIP3    H181245   1.497   2.262   0.264 -0.3818  1.6338  0.9874
19918TIP3    H281246   1.367   2.338   0.254 -0.9999  0.3562 -1.5687
19919TIP3   OH281247   2.723   1.932  48.878  0.0378 -0.1715  0.4229
19919TIP3    H181248   2.742   1.945  48.971  0.4583  1.7725  0.1148
19919TIP3    H281249   2.808   1.944  48.835 -0.2084 -0.7603 -0.2402
19920TIP3   OH281250   0.903   3.385  45.517  0.2992 -0.3264 -0.4620
19920TIP3    H181251   0.907   3.367  45.610  0.5590  0.3170 -0.3470
19920TIP3    H281252   0.810   3.378  45.495  0.2339 -0.4307 -0.1507
19921TIP3   OH281253   2.599   0.715  14.182  0.0141 -0.2071  0.2993
19921TIP3    H181254   2.562   0.768  14.253  0.6904  1.1956 -0.3626
19921TIP3    H281255   2.656   0.774  14.134 -0.2713 -1.1592 -1.3238
19922TIP3   OH281256   3.189   2.492  47.357 -0.3289 -0.1562 -0.1118
19922TIP3    H181257   3.151   2.451  47.435  0.0339 -0.3603 -0.0418
19922TIP3    H281258   3.245   2.562  47.391 -0.7956  0.2794 -0.2244
19923TIP3   OH281259   2.935   0.352  54.090  0.0650  0.1550  0.4405
19923TIP3    H181260   2.948   0.298  54.168  2.2353  0.7336  0.5440
19923TIP3    H281261   3.005   0.417  54.094 -1.0180  1.4740 -0.9432
19924TIP3   OH281262   1.391   1.102  55.327 -0.0513  0.6747 -0.4913
19924TIP3    H181263   1.431   1.152  55.256 -0.6056  0.3643 -1.0359
19924TIP3    H281264   1.305   1.078  55.293  0.0640 -0.3357 -0.0951
19925TIP3   OH281265   1.216   2.608  10.263  0.0126 -0.5324  0.2158
19925TIP3    H181266   1.139   2.600  10.319 -1.1275 -0.5685 -1.3000
19925TIP3    H281267   1.222   2.524  10.217 -1.3782  0.7049 -2.4889
19926TIP3   OH281268   1.853   3.360  67.114 -0.3281  0.4229  0.5730
19926TIP3    H181269   1.918   3.403  67.170 -1.0105 -0.1419  1.8430
19926TIP3    H281270   1.821   3.287  67.167 -0.4168 -0.6220 -0.8927
19927TIP3   OH281271   2.420   1.901  14.460 -0.1042 -0.3585  0.2198
19927TIP3    H181272   2.361   1.830  14.434  2.2054 -2.0187 -0.8845
19927TIP3    H281273   2.410   1.967  14.391 -1.2233 -0.2231  0.4898
19928TIP3   OH281274   2.972   0.154  51.630  0.2147 -0.3263 -0.2741
19928TIP3    H181275   2.894   0.175  51.579 -0.5666 -1.2907  0.4787
19928TIP3    H281276   2.953   0.188  51.718  0.8142 -0.2121 -0.1827
19929TIP3   OH281277   3.082   0.617  59.298  0.5487 -0.3574 -0.1294
19929TIP3    H181278   3.161   0.562  59.294  0.4732 -0.4156 -1.0858
19929TIP3    H281279   3.065   0.640  59.207  0.7307  1.4843  0.2743
19930TIP3   OH281280   2.691   0.706  64.746  0.0869  0.0950 -0.4054
19930TIP3    H181281   2.599   0.732  64.746  0.0541  0.0739 -1.8438
19930TIP3    H281282   2.694   0.626  64.798 -0.7117  0.1101 -0.3250
19931TIP3   OH281283   2.312   1.636  55.765  0.0942 -0.5576  0.6116
19931TIP3    H181284   2.266   1.552  55.770 -1.0078  0.0158  0.5760
19931TIP3    H281285   2.373   1.635  55.839  0.8214 -1.7861  0.0300
19932TIP3   OH281286   1.195   3.038  58.010  0.0467  0.1471 -0.2412
19932TIP3    H181287   1.119   3.063  57.958  0.6480  0.4310 -1.0083
19932TIP3    H281288   1.190   2.943  58.018 -1.0472  0.2678  0.7823
19933TIP3   OH281289   3.299   3.051   9.627  0.1860  0.4712 -0.0128
19933TIP3    H181290   3.254   2.974   9.663  0.4359  0.4111  0.1723
19933TIP3    H281291   3.279   3.050   9.534  0.4636 -0.0042 -0.0684
19934TIP3   OH281292   0.304   0.669  54.913 -0.2882  0.1787 -0.3295
19934TIP3    H181293   0.336   0.716  54.990  0.8726 -0.8568 -0.1556
19934TIP3    H281294   0.374   0.679  54.848 -0.9155  0.3813 -0.9908
19935TIP3   OH281295   1.908   3.003   7.092 -0.0430 -0.1214  0.4367
19935TIP3    H181296   1.910   3.098   7.105 -0.0186  0.0257 -0.5771
19935TIP3    H281297   1.815   2.983   7.078  0.2276  0.1911 -2.2435
19936TIP3   OH281298   2.402   3.050  52.557  0.1913  0.6239 -0.1484
19936TIP3    H181299   2.364   2.962  52.552  3.0564 -0.8058  1.2175
19936TIP3    H281300   2.345   3.097  52.619  0.0776 -1.1145  1.1305
19937TIP3   OH281301   1.425   2.562  65.678 -0.0196  0.3200 -0.0460
19937TIP3    H181302   1.508   2.515  65.688 -0.3631 -0.2784  0.0645
19937TIP3    H281303   1.436   2.642  65.729  0.0292 -0.3647  1.0461
19938TIP3   OH281304   1.325   1.776  15.843  0.0220  0.3191  0.1248
19938TIP3    H181305   1.230   1.763  15.845  0.1168 -1.0553 -1.4679
19938TIP3    H281306   1.358   1.724  15.917 -0.2980 -1.6808 -1.0580
19939TIP3   OH281307   1.531   3.257  44.927 -0.0231  0.1979 -0.1770
19939TIP3    H181308   1.558   3.347  44.909 -0.7671  0.6374  0.8069
19939TIP3    H281309   1.508   3.222  44.841  2.8205  0.0359 -0.9739
19940TIP3   OH281310   2.348   2.121  15.880 -0.0343  0.1922  0.4265
19940TIP3    H181311   2.405   2.046  15.896  0.7167  0.5514 -0.4771
19940TIP3    H281312   2.390   2.169  15.808  0.9186  2.9077  2.6167
19941TIP3   OH281313   0.459   3.139  55.447  0.2096  0.3257 -0.2669
19941TIP3    H181314   0.476   3.138  55.353  0.6380  1.7080 -0.2311
19941TIP3    H281315   0.478   3.050  55.476 -2.5532 -0.9328 -1.9047
19942TIP3   OH281316   2.090   1.747  66.077 -0.2539 -0.0462  0.2862
19942TIP3    H181317   2.054   1.659  66.063 -0.7235  0.3550 -1.2112
19942TIP3    H281318   2.013   1.803  66.091  0.0743  0.0441  1.8632
19943TIP3   OH281319   1.951   2.179  54.211 -0.0250 -0.3859 -0.3839
19943TIP3    H181320   1.879   2.232  54.177 -0.2909 -0.7745 -0.4335
19943TIP3    H281321   2.011   2.242  54.251  1.1321  0.2948 -3.0057
19944TIP3   OH281322   0.542   2.371  18.427 -0.0054  0.1856  0.0225
19944TIP3    H181323   0.473   2.310  18.454 -1.6391  1.3679 -1.2283
19944TIP3    H281324   0.567   2.341  18.340 -1.8079  1.9652 -1.2094
19945TIP3   OH281325   0.989   1.068   2.525  0.3782 -0.4713 -0.1827
19945TIP3    H181326   0.906   1.050   2.481  0.5231 -0.4930 -0.4546
19945TIP3    H281327   1.049   1.089   2.453  0.3492  0.5772  0.0859
19946TIP3   OH281328   0.785   1.857  45.126  0.6991 -0.4872 -0.2600
19946TIP3    H181329   0.728   1.866  45.049  0.4973 -0.0030 -0.0600
19946TIP3    H281330   0.734   1.893  45.198  0.2208 -2.4923  0.4456
19947TIP3   OH281331   2.658   0.123  11.944  0.1528  0.1382  0.2342
19947TIP3    H181332   2.651   0.218  11.953 -0.0354 -0.0305  2.5006
19947TIP3    H281333   2.736   0.099  11.995 -1.2217 -1.1130  1.8867
19948TIP3   OH281334   1.728   0.069  47.244  0.3524 -0.1217 -0.0473
19948TIP3    H181335   1.659   0.025  47.293 -0.6811  2.0265  0.5652
19948TIP3    H281336   1.797   0.085  47.309  0.2784  0.0579 -0.0117
19949TIP3   OH281337   1.418   2.677  58.830 -0.4086 -0.1443 -0.1104
19949TIP3    H181338   1.382   2.712  58.912 -0.7202 -0.8654  0.0640
19949TIP3    H281339   1.342   2.655  58.778 -0.2081  0.1174 -0.5182
19950TIP3   OH281340   0.360   1.659   2.571 -0.3897  0.4233 -0.0006
19950TIP3    H181341   0.404   1.680   2.654  0.0764  0.6708 -0.3048
19950TIP3    H281342   0.267   1.651   2.594 -0.3812  1.3733  0.3839
19951TIP3   OH281343   2.242   0.458  54.151 -0.1316  0.1063  0.0534
19951TIP3    H181344   2.262   0.546  54.183 -0.0197  0.3430 -0.6413
19951TIP3    H281345   2.327   0.414  54.148 -0.2223 -0.1101  0.6472
19952TIP3   OH281346   1.942   2.579  65.280 -0.1462  0.0257 -0.0966
19952TIP3    H181347   2.033   2.553  65.296 -0.4044 -0.9059 -0.1218
19952TIP3    H281348   1.949   2.671  65.253  0.7589  0.0609  0.1887
19953TIP3   OH281349   1.116   1.148  46.823  0.4759  0.1868 -0.5724
19953TIP3    H181350   1.021   1.136  46.825  0.4068  0.7856 -0.1282
19953TIP3    H281351   1.150   1.064  46.792 -0.1271 -0.3970  0.2937
19954TIP3   OH281352   1.708   3.402   4.858  0.1337 -0.2224  0.1517
19954TIP3    H181353   1.762   3.391   4.779  1.0494  1.0825  0.5506
19954TIP3    H281354   1.633   3.453   4.828 -0.1317 -0.7457 -0.0985
19955TIP3   OH281355   3.044   0.051  52.896 -0.2032 -0.1061 -0.0642
19955TIP3    H181356   3.085   0.028  52.812  1.0354  0.6587  0.2978
19955TIP3    H281357   3.103   0.013  52.961 -1.2085 -0.7758  0.4813
19956TIP3   OH281358   3.131   1.561   7.015  0.4510  0.5926 -0.1224
19956TIP3    H181359   3.151   1.558   7.109  1.5008  0.6294 -0.3281
19956TIP3    H281360   3.165   1.646   6.986 -0.8987  1.0918 -0.3343
19957TIP3   OH281361   1.022   1.898  60.009  0.2487 -0.0934  0.1226
19957TIP3    H181362   1.111   1.881  59.978 -0.4739 -1.8607 -1.1308
19957TIP3    H281363   1.028   1.893  60.104  1.8754  2.0626  0.2171
19958TIP3   OH281364   1.000   3.057  52.480  0.7789  0.1405 -0.4779
19958TIP3    H181365   0.930   3.123  52.484 -0.1625 -0.7973 -0.8887
19958TIP3    H281366   0.960   2.984  52.432  1.6599 -0.8926  0.3276
19959TIP3   OH281367   1.292   0.761   2.205 -0.1233  0.4064 -0.3192
19959TIP3    H181368   1.266   0.785   2.294  0.3957  0.8208 -0.2741
19959TIP3    H281369   1.340   0.838   2.173 -0.7040  0.4505 -1.1254
19960TIP3   OH281370   1.513   0.901  62.737  0.6135 -0.0814  0.4709
19960TIP3    H181371   1.494   0.991  62.767 -2.1775 -0.4546  0.1590
19960TIP3    H281372   1.545   0.912  62.648  2.8735  0.6840  1.2985
19961TIP3   OH281373   2.944   2.274  59.988 -0.0182 -0.1583 -0.4767
19961TIP3    H181374   2.916   2.333  59.918 -2.1261 -0.9190 -0.3668
19961TIP3    H281375   3.039   2.283  59.991  0.2180 -0.3355 -3.6701
19962TIP3   OH281376   3.246   3.216   2.691 -0.1110 -0.4006  0.1865
19962TIP3    H181377   3.199   3.280   2.637 -1.5630 -0.9083  0.8234
19962TIP3    H281378   3.291   3.160   2.628  1.5701  1.4484 -0.3944
19963TIP3   OH281379   0.710   2.753  46.294  0.4336  0.0211  0.5759
19963TIP3    H181380   0.639   2.739  46.356  0.9382  1.7581  1.6192
19963TIP3    H281381   0.785   2.709  46.333  0.3323 -0.3867  0.3134
19964TIP3   OH281382   0.315   1.235  47.004  0.6153 -0.2800 -0.2101
19964TIP3    H181383   0.347   1.316  47.043 -2.6156  1.9888 -1.8128
19964TIP3    H281384   0.395   1.186  46.982  2.7649  2.7080  0.2692
19965TIP3   OH281385   1.116   2.610  37.222 -0.7687 -0.0011  0.4953
19965TIP3    H181386   1.042   2.645  37.173 -1.0146 -2.3633 -0.9908
19965TIP3    H281387   1.089   2.520  37.244  1.4466 -0.7676  0.3101
19966TIP3   OH281388   2.739   3.332  60.242 -0.0515 -0.2301 -0.0759
19966TIP3    H181389   2.810   3.277  60.209  0.0815  2.2362 -4.6976
19966TIP3    H281390   2.775   3.421  60.241 -2.2253  0.7239  0.5603
19967TIP3   OH281391   2.973   1.116  28.906 -0.0682 -0.1578  0.5498
19967TIP3    H181392   2.922   1.055  28.853 -0.0380  2.1788 -2.4364
19967TIP3    H281393   2.908   1.167  28.954 -0.4706  0.9430 -1.0907
19968TIP3   OH281394   2.413   2.301  50.379 -0.5821 -0.2848  0.0890
19968TIP3    H181395   2.341   2.340  50.329  0.1881 -1.4549 -2.0247
19968TIP3    H281396   2.492   2.339  50.342  0.0703 -2.1189 -0.4634
19969TIP3   OH281397   2.194   0.222  48.076  0.1960  0.4376 -0.8461
19969TIP3    H181398   2.281   0.193  48.050  0.9036  0.5255  1.1809
19969TIP3    H281399   2.143   0.142  48.086  0.7173  0.1941  0.0400
19970TIP3   OH281400   2.690   0.874  18.166  0.1077  0.1691 -0.4337
19970TIP3    H181401   2.644   0.791  18.180 -0.2247  0.3328 -0.5469
19970TIP3    H281402   2.746   0.858  18.090 -0.6369  0.3189 -1.0261
19971TIP3   OH281403   0.241   1.720  62.986  0.0781  0.0618  0.0811
19971TIP3    H181404   0.157   1.699  62.945 -0.6577 -1.0944  2.0307
19971TIP3    H281405   0.256   1.812  62.966 -1.3548  0.1248 -0.7950
19972TIP3   OH281406   1.200   2.669  48.813  0.1414 -0.0108 -0.1398
19972TIP3    H181407   1.178   2.578  48.833  1.2506  0.1059  1.9153
19972TIP3    H281408   1.286   2.681  48.853  2.0323  0.7786 -4.0059
19973TIP3   OH281409   0.862   0.586   5.685 -0.4288  0.1754  0.2126
19973TIP3    H181410   0.807   0.623   5.616  0.5970  1.1439 -0.1195
19973TIP3    H281411   0.946   0.569   5.641 -1.0302 -3.2836  0.1504
19974TIP3   OH281412   1.104   2.567   3.042  0.6050 -0.3180  0.2451
19974TIP3    H181413   1.119   2.653   3.080 -0.3552 -1.6890  4.1879
19974TIP3    H281414   1.190   2.525   3.040  0.6317 -0.3315  1.3104
19975TIP3   OH281415   3.408   0.769   4.492 -0.7570 -0.0743 -0.3835
19975TIP3    H181416   3.487   0.770   4.438 -1.1863 -4.2125 -1.3929
19975TIP3    H281417   3.441   0.763   4.582  0.0244  0.7976 -0.5938
19976TIP3   OH281418   1.963   0.391   9.146 -0.0384 -0.2066 -0.0345
19976TIP3    H181419   1.869   0.411   9.138 -0.3219 -0.1260  2.6278
19976TIP3    H281420   1.988   0.428   9.231  2.3652 -0.4624 -0.5762
19977TIP3   OH281421   0.788   2.863   1.397 -0.0155  0.3197 -0.4690
19977TIP3    H181422   0.805   2.916   1.319 -1.4830  0.6297 -0.6027
19977TIP3    H281423   0.695   2.877   1.416  0.3139  0.2429  1.3439
19978TIP3   OH281424   0.532   1.885  17.835 -0.7099  0.6483  0.1640
19978TIP3    H181425   0.480   1.891  17.755 -0.4417  2.0219  0.0709
19978TIP3    H281426   0.474   1.918  17.904 -0.7665 -0.0515  0.4560
19979TIP3   OH281427   0.988   2.993  56.975 -0.6666 -0.3482 -0.4212
19979TIP3    H181428   0.907   3.031  57.007 -1.7891 -0.9843 -2.3382
19979TIP3    H281429   1.054   3.062  56.990 -1.7693  0.6289  0.1261
19980TIP3   OH281430   2.634   0.604  16.723 -0.0282  0.2705  0.7559
19980TIP3    H181431   2.661   0.679  16.671  1.4829 -0.2416  0.7678
19980TIP3    H281432   2.705   0.591  16.786 -0.5076 -0.8488  1.0882
19981TIP3   OH281433   2.073   3.255  50.497  0.2015  0.8511  1.1678
19981TIP3    H181434   2.032   3.227  50.415  1.5861  1.3382  0.2624
19981TIP3    H281435   2.003   3.250  50.562 -1.3984  2.0440 -0.3660
19982TIP3   OH281436   0.379   2.437  43.728 -0.0040 -0.5673  0.7705
19982TIP3    H181437   0.411   2.357  43.687 -1.1174 -0.6809  0.0965
19982TIP3    H281438   0.446   2.458  43.793  1.2264 -1.0151 -0.3036
19983TIP3   OH281439   2.452   1.710   1.716 -0.1375  0.2322  0.6509
19983TIP3    H181440   2.442   1.667   1.801 -1.2642 -1.2437 -0.1854
19983TIP3    H281441   2.536   1.678   1.683 -0.3360 -0.2525  0.6174
19984TIP3   OH281442   0.887   0.171  49.507 -0.1544  0.3636  0.7010
19984TIP3    H181443   0.939   0.178  49.587  0.4475  0.6668  0.2928
19984TIP3    H281444   0.878   0.076  49.493 -0.7603  0.2991  1.4293
19985TIP3   OH281445   1.243   3.091  55.181  0.0744  0.3235  0.4292
19985TIP3    H181446   1.149   3.091  55.197 -0.3298 -0.6031 -1.7052
19985TIP3    H281447   1.281   3.051  55.260 -1.1761  1.7350  1.8039
19986TIP3   OH281448   3.097   2.628  13.885  0.5076 -0.0186 -0.2668
19986TIP3    H181449   3.114   2.638  13.979 -0.8680 -2.2880  0.2785
19986TIP3    H281450   3.008   2.660  13.873  0.1699 -1.0402 -0.5320
19987TIP3   OH281451   1.733   1.373   7.870 -0.3167  0.2670  0.1896
19987TIP3    H181452   1.702   1.348   7.783 -4.4343  0.4645  1.4076
19987TIP3    H281453   1.828   1.383   7.860 -0.3352 -1.7366 -3.7256
19988TIP3   OH281454   1.188   0.446  64.850 -0.3471 -0.0596  0.2568
19988TIP3    H181455   1.209   0.478  64.763 -0.8792 -0.4370 -0.0219
19988TIP3    H281456   1.177   0.525  64.903 -1.2513  0.2149 -0.3179
19989TIP3   OH281457   1.860   3.353  65.720 -0.2301 -0.1581  0.0227
19989TIP3    H181458   1.892   3.309  65.798 -2.0306  0.6013  1.2411
19989TIP3    H281459   1.929   3.416  65.699  0.7265 -1.0555  0.3741
19990TIP3   OH281460   2.357   2.486  10.738  0.1206 -0.3027  0.5570
19990TIP3    H181461   2.442   2.522  10.715  0.8382 -1.9931  0.4202
19990TIP3    H281462   2.376   2.415  10.798 -0.9918 -1.9853 -0.9603
19991TIP3   OH281463   2.508   0.351  18.197 -0.1384 -0.3019  0.0350
19991TIP3    H181464   2.590   0.335  18.243  0.2120 -1.4957 -0.9621
19991TIP3    H281465   2.520   0.313  18.110 -1.2511  0.7466 -0.6240
19992TIP3   OH281466   2.544   3.266   3.858 -0.0072 -0.4400  0.1164
19992TIP3    H181467   2.500   3.183   3.878  0.5082 -1.0525 -1.1779
19992TIP3    H281468   2.503   3.296   3.777  1.2321 -0.5241 -0.5761
19993TIP3   OH281469   0.451   1.137  46.668  0.4754 -0.2812 -0.0029
19993TIP3    H181470   0.517   1.117  46.735  1.0731  0.3049 -0.4010
19993TIP3    H281471   0.500   1.135  46.586  0.3080  1.4970 -0.1885
19994TIP3   OH281472   1.994   0.798  63.970  0.4488  0.2316 -0.0261
19994TIP3    H181473   2.076   0.803  63.920  0.1827  0.1315 -0.4778
19994TIP3    H281474   2.014   0.738  64.042  0.6859 -0.0266 -0.3008
19995TIP3   OH281475   1.578   0.992  45.450  0.2762  0.2674  0.0611
19995TIP3    H181476   1.565   1.037  45.533  0.3794 -0.7330  0.6323
19995TIP3    H281477   1.672   0.995  45.435  0.2898  0.2008  0.1318
19996TIP3   OH281478   3.239   3.253  59.209 -0.6422 -0.6759 -0.1892
19996TIP3    H181479   3.176   3.231  59.277 -2.7382 -1.1971 -2.1618
19996TIP3    H281480   3.206   3.335  59.172  1.0538  0.1618  0.0893
19997TIP3   OH281481   3.360   1.591  63.111  0.5846  0.0742 -0.5293
19997TIP3    H181482   3.268   1.567  63.103  1.0472 -1.9605 -0.4715
19997TIP3    H281483   3.390   1.604  63.021  0.5024 -0.4668 -0.6436
19998TIP3   OH281484   2.667   2.043  64.528  0.6248  0.3132 -0.2220
19998TIP3    H181485   2.761   2.041  64.545  0.3350 -1.3609  1.5121
19998TIP3    H281486   2.630   1.979  64.589 -1.8409  2.1142  0.3301
19999TIP3   OH281487   2.458   2.582  65.786 -0.1162 -0.2986  0.5150
19999TIP3    H181488   2.545   2.621  65.773 -0.5559  0.8306  0.7978
19999TIP3    H281489   2.474   2.504  65.839  0.7452 -0.2138  0.3976
20000TIP3   OH281490   3.143   2.098  56.042 -0.5654 -0.5275 -0.6918
20000TIP3    H181491   3.090   2.028  56.005 -2.0662  1.0188 -1.6203
20000TIP3    H281492   3.103   2.178  56.008  0.8788  0.7920  0.5970
20001TIP3   OH281493   0.998   0.942  54.005  0.5829  0.4476  0.1215
20001TIP3    H181494   1.017   0.879  54.075  0.0452  0.3173  0.1509
20001TIP3    H281495   0.927   0.996  54.039 -0.6442 -0.4990 -0.8326
20002TIP3   OH281496   2.024   0.660  47.516 -0.1840 -0.2433  0.8586
20002TIP3    H181497   1.993   0.750  47.512  1.2994  0.2564 -1.8223
20002TIP3    H281498   2.119   0.668  47.523 -0.0891 -1.6202  1.3961
20003TIP3   OH281499   2.948   2.765  54.298  0.3954 -0.4827 -0.3303
20003TIP3    H181500   2.992   2.687  54.332  2.9330  0.1622 -1.8711
20003TIP3    H281501   2.968   2.766  54.204  2.4130  3.0887 -0.0678
20004TIP3   OH281502   1.780   2.867   8.609  0.3309 -0.2566 -0.3018
20004TIP3    H181503   1.843   2.885   8.539 -0.0822 -0.3718 -0.7099
20004TIP3    H281504   1.833   2.863   8.689  0.8801 -0.6721 -0.6842
20005TIP3   OH281505   0.755   0.607  65.433  0.1974 -0.0472  0.3957
20005TIP3    H181506   0.835   0.593  65.484  0.0289  1.2234  1.0830
20005TIP3    H281507   0.770   0.690  65.388 -0.0066 -0.7356 -0.9862
20006TIP3   OH281508   2.308   2.598  60.246  0.2413 -0.2254 -0.4790
20006TIP3    H181509   2.371   2.670  60.238 -0.7110  0.9370  1.5419
20006TIP3    H281510   2.235   2.622  60.189  0.7076 -0.5405 -1.2241
20007TIP3   OH281511   2.733   2.991  63.786 -0.4156  0.0777 -0.1044
20007TIP3    H181512   2.680   3.071  63.786 -2.9934 -1.5153  0.7981
20007TIP3    H281513   2.672   2.922  63.758  1.9008 -1.5128 -1.5615
20008TIP3   OH281514   2.664   2.135  61.810 -0.3788 -0.8863  0.2381
20008TIP3    H181515   2.666   2.222  61.770  0.3299  0.3732  2.7928
20008TIP3    H281516   2.710   2.079  61.747  3.5175  1.5947  0.4826
20009TIP3   OH281517   0.374   1.388  60.185 -0.5981  0.4600 -0.1035
20009TIP3    H181518   0.366   1.328  60.111  0.0435  0.3044 -0.0547
20009TIP3    H281519   0.297   1.444  60.179 -0.9318 -0.0288 -0.4545
20010TIP3   OH281520   2.737   2.013  49.161  0.1597  0.3457  0.2311
20010TIP3    H181521   2.686   1.960  49.222  1.2292 -1.0579 -0.0487
20010TIP3    H281522   2.824   2.019  49.201 -0.2011  2.8969  0.8099
20011TIP3   OH281523   2.690   1.467  63.129  0.0705 -0.2430 -0.5004
20011TIP3    H181524   2.740   1.532  63.079 -0.0675 -1.1132 -1.8132
20011TIP3    H281525   2.636   1.423  63.064 -1.7369  0.0188  0.7375
20012TIP3   OH281526   3.382   1.527  43.530 -0.2100 -1.0395 -0.0737
20012TIP3    H181527   3.356   1.617  43.546  0.7172 -0.3062 -2.2620
20012TIP3    H281528   3.303   1.476  43.543 -2.4127  0.8090 -4.2430
20013TIP3   OH281529   2.825   0.061  53.776 -0.3350 -0.0711  0.1481
20013TIP3    H181530   2.748   0.036  53.724  0.3842 -1.4596 -0.2897
20013TIP3    H281531   2.855   0.142  53.735 -0.5401 -0.4583 -0.8058
20014TIP3   OH281532   1.500   0.949  56.902  0.2320  0.9488 -0.4289
20014TIP3    H181533   1.496   0.869  56.849  0.3788  0.2532  0.5843
20014TIP3    H281534   1.589   0.949  56.938 -0.2841  0.6868  0.8931
20015TIP3   OH281535   0.942   3.075  54.102  0.4507  0.2622 -0.1481
20015TIP3    H181536   1.000   3.010  54.061  0.6644  0.9660 -1.0158
20015TIP3    H281537   0.919   3.134  54.030 -1.2215  0.1013  0.2291
20016TIP3   OH281538   0.204   0.820  17.771  0.1976  0.2499  0.3177
20016TIP3    H181539   0.212   0.725  17.778  0.4785  0.3054  0.8207
20016TIP3    H281540   0.252   0.854  17.847  0.4182  0.8059 -0.0587
20017TIP3   OH281541   0.259   3.315  64.640 -0.7010 -0.5086  0.2016
20017TIP3    H181542   0.276   3.249  64.572 -1.2533 -0.8007  0.3391
20017TIP3    H281543   0.170   3.295  64.671 -0.4352 -0.4192  1.0554
20018TIP3   OH281544   1.542   0.215  21.039 -0.4616 -0.2128  0.2001
20018TIP3    H181545   1.608   0.272  20.999 -0.3068 -1.1862 -1.0005
20018TIP3    H281546   1.572   0.203  21.129 -1.8721  3.6408  1.3436
20019TIP3   OH281547   3.226   1.770  64.974 -0.5605  0.5152 -0.1529
20019TIP3    H181548   3.249   1.739  65.062  1.4107  0.5044 -0.6296
20019TIP3    H281549   3.220   1.691  64.921 -0.0540  0.6340 -0.3904
20020TIP3   OH281550   1.456   0.165  12.906  0.7432 -0.6680 -0.0290
20020TIP3    H181551   1.469   0.258  12.886  0.8091 -0.7929 -0.6057
20020TIP3    H281552   1.443   0.125  12.820  0.9333 -1.2267  0.2022
20021TIP3   OH281553   1.860   0.321  50.004  0.1720  0.7815 -0.1252
20021TIP3    H181554   1.910   0.400  49.983  0.2447  0.4781 -1.1206
20021TIP3    H281555   1.848   0.277  49.921 -0.5817  0.1467  0.3039
20022TIP3   OH281556   0.886   1.034   5.686  0.2038  0.0974 -0.0578
20022TIP3    H181557   0.807   1.087   5.677  0.0978 -0.0257  0.1718
20022TIP3    H281558   0.952   1.095   5.719 -0.2389 -0.1971  1.4139
20023TIP3   OH281559   0.977   1.563  18.055 -0.1013  0.5770  0.4588
20023TIP3    H181560   0.907   1.579  18.118 -0.9367  0.4782 -0.4209
20023TIP3    H281561   0.932   1.539  17.974  0.9495  0.5478 -0.1422
20024TIP3   OH281562   0.942   0.323   1.001 -0.3627  0.3997 -0.3901
20024TIP3    H181563   0.946   0.411   1.037 -0.8499  0.7974 -1.2831
20024TIP3    H281564   0.854   0.292   1.024 -0.3435  0.3044 -0.4440
20025TIP3   OH281565   2.045   0.222  56.141  0.2072  0.4090 -0.3497
20025TIP3    H181566   1.977   0.157  56.162  0.4083  0.5521  0.7628
20025TIP3    H281567   2.107   0.174  56.086 -1.2559  0.5295 -2.2278
20026TIP3   OH281568   1.400   1.430  12.912  0.0897 -0.3651 -0.0373
20026TIP3    H181569   1.451   1.368  12.965 -0.2376  1.1283  2.1907
20026TIP3    H281570   1.315   1.435  12.957  0.4490  2.4145  0.5490
20027TIP3   OH281571   1.163   0.451  11.929 -0.1154 -0.3683 -0.3349
20027TIP3    H181572   1.177   0.360  11.903  0.9903 -0.2138 -0.3161
20027TIP3    H281573   1.069   0.457  11.945 -0.5098 -1.0162 -2.1671
20028TIP3   OH281574   1.152   2.386  15.321 -0.2531 -0.5860  0.4260
20028TIP3    H181575   1.143   2.323  15.392  0.1974  0.0589  1.0625
20028TIP3    H281576   1.242   2.376  15.290 -0.4191 -0.8019 -0.0030
20029TIP3   OH281577   1.325   0.799  51.346 -0.2387 -0.2764 -0.1688
20029TIP3    H181578   1.416   0.783  51.370 -0.7765 -3.0830  0.2612
20029TIP3    H281579   1.278   0.801  51.429 -0.7341 -0.0243 -0.4487
20030TIP3   OH281580   1.144   3.403  22.355  0.4702 -0.4813  0.0204
20030TIP3    H181581   1.140   3.446  22.441  0.6503 -0.8122  0.1917
20030TIP3    H281582   1.142   3.310  22.374  3.0628 -0.6382 -0.1739
20031TIP3   OH281583   0.463   0.852  63.239 -0.1211 -0.1870  0.1354
20031TIP3    H181584   0.404   0.891  63.174  2.2809  0.7573 -1.6213
20031TIP3    H281585   0.430   0.763  63.252 -1.8432  0.2664 -0.7985
20032TIP3   OH281586   1.424   2.339   3.391 -0.0261 -0.1187  0.0594
20032TIP3    H181587   1.479   2.414   3.416  1.4831 -1.1844  0.0217
20032TIP3    H281588   1.345   2.349   3.445 -0.2069  1.8848 -0.4630
20033TIP3   OH281589   3.027   0.283   6.367 -0.0240 -0.0117  0.3220
20033TIP3    H181590   2.954   0.244   6.415  0.9510  0.2916  2.1677
20033TIP3    H281591   2.986   0.341   6.303 -1.4101 -1.0198  0.2576
20034TIP3   OH281592   1.193   1.373  43.816  0.3332  0.3335 -0.0296
20034TIP3    H181593   1.210   1.279  43.824  0.2221  0.4097  1.4552
20034TIP3    H281594   1.121   1.379  43.753  1.1865 -0.4654 -1.1212
20035TIP3   OH281595   1.039   1.377  53.718  0.4294  0.3569 -0.0890
20035TIP3    H181596   1.093   1.320  53.773 -0.2248  1.8038  2.2113
20035TIP3    H281597   0.949   1.352  53.738  0.1803  0.8739 -0.5410
20036TIP3   OH281598   0.986   0.525  19.493 -0.9893 -0.5218  0.1140
20036TIP3    H181599   1.061   0.555  19.544 -0.4141  0.6122 -1.3307
20036TIP3    H281600   0.985   0.430  19.505 -1.7394 -0.2266  3.3340
20037TIP3   OH281601   0.055   3.137   3.843  0.1686  0.1270 -0.4402
20037TIP3    H181602   0.002   3.209   3.809 -0.6548 -1.5512 -3.0199
20037TIP3    H281603   0.037   3.137   3.937 -2.4466  1.2224 -0.8361
20038TIP3   OH281604   1.075   2.455  14.207 -0.3209  0.5340 -0.3412
20038TIP3    H181605   1.006   2.512  14.241 -0.5724 -0.4703  0.9139
20038TIP3    H281606   1.152   2.477  14.259 -0.4898 -0.4217  0.3465
20039TIP3   OH281607   2.202   2.067   0.190  0.0081 -0.2927 -0.4250
20039TIP3    H181608   2.157   2.116   0.259  0.9043  0.5145 -0.3921
20039TIP3    H281609   2.171   2.108   0.109  3.0721  2.5674 -0.3520
20040TIP3   OH281610   0.246   1.584  47.787  0.2737  0.0784  0.3173
20040TIP3    H181611   0.291   1.650  47.733 -1.7920  0.0356 -1.6081
20040TIP3    H281612   0.310   1.513  47.797  1.8024  1.4660  0.6612
20041TIP3   OH281613   2.974   0.342   0.122  0.2212  0.3752  0.0530
20041TIP3    H181614   3.039   0.278   0.149  0.8414  0.8290 -0.3357
20041TIP3    H281615   2.962   0.399   0.198  1.4607  1.2431 -0.3751
20042TIP3   OH281616   1.259   2.151  54.358  0.5345 -0.2841 -0.6301
20042TIP3    H181617   1.171   2.152  54.396  0.9941 -0.0884  0.4591
20042TIP3    H281618   1.280   2.058  54.350 -0.0227 -0.3464 -1.5252
20043TIP3   OH281619   0.745   3.159  15.697 -0.2023 -0.5503  0.3995
20043TIP3    H181620   0.698   3.162  15.614  0.2954 -0.8064  0.1006
20043TIP3    H281621   0.832   3.126  15.674  0.3927  0.6855  0.8208
20044TIP3   OH281622   0.987   0.307  65.330 -0.1633  0.2696 -0.3047
20044TIP3    H181623   1.047   0.300  65.256 -1.5212 -2.2237 -1.2841
20044TIP3    H281624   1.020   0.242  65.393 -1.5455 -0.8674 -0.7035
20045TIP3   OH281625   0.314   2.091  63.562  0.2545 -0.4206 -0.6261
20045TIP3    H181626   0.280   2.180  63.575  1.5078  0.0043 -0.2060
20045TIP3    H281627   0.327   2.057  63.650 -0.4910 -1.1481 -0.7829
20046TIP3   OH281628   1.722   2.075  42.680 -0.8093 -0.2215  0.4122
20046TIP3    H181629   1.767   2.157  42.702  0.5889 -1.0368  0.6697
20046TIP3    H281630   1.691   2.041  42.764 -0.8657 -0.2664  0.3747
20047TIP3   OH281631   2.047   0.434  44.805  0.5264 -0.4273 -0.4050
20047TIP3    H181632   1.964   0.394  44.780  1.0786 -1.7414 -0.2160
20047TIP3    H281633   2.109   0.404  44.738  1.3819 -1.5327  0.8556
20048TIP3   OH281634   0.152   3.024   2.880  0.2400  0.2043 -0.1156
20048TIP3    H181635   0.203   2.944   2.891  0.6035  0.5272  0.5620
20048TIP3    H281636   0.121   3.046   2.968  0.9379  1.3273 -0.1245
20049TIP3   OH281637   2.073   0.794  48.706 -0.3129 -0.0102 -0.5135
20049TIP3    H181638   1.986   0.757  48.693  0.4988 -1.9039 -1.0446
20049TIP3    H281639   2.124   0.722  48.745  0.9217  1.1632  0.1297
20050TIP3   OH281640   2.880   3.377  48.793 -0.2147  0.6858 -0.0336
20050TIP3    H181641   2.812   3.318  48.759 -0.0921 -0.4359  1.5409
20050TIP3    H281642   2.962   3.343  48.756 -0.3804  1.4235 -1.1226
20051TIP3   OH281643   3.412   2.607  60.082 -0.3375  0.2144 -0.3687
20051TIP3    H181644   3.340   2.561  60.124 -0.3048  0.8644  0.4189
20051TIP3    H281645   3.462   2.539  60.037 -1.2264 -0.2867 -0.6142
20052TIP3   OH281646   0.438   1.153  48.737 -0.0375 -0.0505 -0.2704
20052TIP3    H181647   0.451   1.247  48.725  0.3660  0.0275  0.7101
20052TIP3    H281648   0.343   1.142  48.734 -0.1977  0.6587  1.4068
20053TIP3   OH281649   0.399   0.526  61.597  0.1247  0.6240  0.3270
20053TIP3    H181650   0.361   0.471  61.529 -1.0775  0.7126  0.8996
20053TIP3    H281651   0.475   0.477  61.628 -0.2400 -0.1618  0.0021
20054TIP3   OH281652   0.624   2.069  34.965 -0.2657 -0.1806 -0.5769
20054TIP3    H181653   0.623   2.088  35.058 -0.9803 -1.7361 -0.2347
20054TIP3    H281654   0.636   2.155  34.923  1.4969  0.3830  0.9541
20055TIP3   OH281655   1.253   1.087  47.057  0.1710  0.2161 -0.1349
20055TIP3    H181656   1.215   1.137  47.129  3.0358  1.1942  0.8298
20055TIP3    H281657   1.195   1.103  46.983 -2.7670 -0.6545  1.8114
20056TIP3   OH281658   0.293   3.063  64.882 -0.7285 -0.6712  0.1166
20056TIP3    H181659   0.283   3.037  64.790 -0.4344  2.8302 -1.0492
20056TIP3    H281660   0.226   3.129  64.896  0.4397  0.2107  1.8569
20057TIP3   OH281661   0.977   1.150  19.130  0.2176  0.2737 -0.3644
20057TIP3    H181662   1.001   1.242  19.120 -0.1646  0.4249  0.0412
20057TIP3    H281663   1.052   1.111  19.177  0.0058  0.5744  0.2345
20058TIP3   OH281664   1.116   2.539  60.965  0.2471 -0.0275 -0.2752
20058TIP3    H181665   1.176   2.532  60.892  0.8756 -1.5730  0.3320
20058TIP3    H281666   1.143   2.469  61.025 -1.5218 -0.1251  0.4770
20059TIP3   OH281667   2.380   0.329  20.798  0.0117 -0.7274 -0.0773
20059TIP3    H181668   2.435   0.386  20.744 -0.6895 -0.1957 -0.2397
20059TIP3    H281669   2.419   0.335  20.886 -0.0411 -0.0032 -0.0933
20060TIP3   OH281670   1.457   1.760  16.928  0.6933  0.6921 -0.1887
20060TIP3    H181671   1.519   1.824  16.893 -0.4992  2.0981  0.1459
20060TIP3    H281672   1.389   1.813  16.970  0.2089 -0.8295  1.0752
20061TIP3   OH281673   2.143   1.891  27.876  0.1372 -0.0552 -0.2440
20061TIP3    H181674   2.150   1.796  27.865 -3.0199 -0.4066 -0.1566
20061TIP3    H281675   2.092   1.902  27.956  0.3684  1.7113 -0.3072
20062TIP3   OH281676   2.820   0.221  21.585  0.0717  0.2500  0.3696
20062TIP3    H181677   2.866   0.288  21.533 -1.4387  1.0013 -0.0657
20062TIP3    H281678   2.776   0.271  21.654  0.0766 -0.4658  0.8916
20063TIP3   OH281679   3.384   1.178  49.429  0.4126 -0.6514  0.0537
20063TIP3    H181680   3.315   1.215  49.375 -0.5576  0.2613  1.8296
20063TIP3    H281681   3.425   1.254  49.472  2.8305 -1.1124 -1.2459
20064TIP3   OH281682   0.446   0.199  13.313 -0.1156  0.2431  0.4487
20064TIP3    H181683   0.493   0.170  13.235  2.0364  1.5435  1.1777
20064TIP3    H281684   0.361   0.229  13.279 -0.3375 -1.7768 -0.9688
20065TIP3   OH281685   0.089   2.776  55.167  0.6044  0.2294 -0.3044
20065TIP3    H181686   0.060   2.691  55.199  0.5142 -0.4037 -1.9643
20065TIP3    H281687   0.182   2.780  55.189  0.1455  0.7144  1.7986
20066TIP3   OH281688   0.733   1.730  50.766  0.0042  0.8400  0.0929
20066TIP3    H181689   0.802   1.698  50.825  0.3145  0.8238 -0.2778
20066TIP3    H281690   0.661   1.753  50.825 -0.7016 -1.6278  0.3159
20067TIP3   OH281691   2.693   1.959  16.553 -0.5304  0.1392  0.2598
20067TIP3    H181692   2.652   1.879  16.584 -1.4697  0.3661 -0.3604
20067TIP3    H281693   2.729   1.937  16.467  0.2047  0.0915  0.5645
20068TIP3   OH281694   3.067   0.518  55.051  0.0110 -0.0292 -0.2173
20068TIP3    H181695   3.059   0.480  55.139 -0.7598 -0.2559 -0.3737
20068TIP3    H281696   3.000   0.586  55.048 -0.9360 -0.9592 -1.0864
20069TIP3   OH281697   1.571   3.103  34.393  0.3284  0.1982  0.7595
20069TIP3    H181698   1.578   3.180  34.449 -0.7692  1.5064 -0.8254
20069TIP3    H281699   1.510   3.128  34.324 -1.3055 -2.6293  1.0219
20070TIP3   OH281700   3.401   2.079  13.137  0.6090  0.0880  0.1851
20070TIP3    H181701   3.471   2.013  13.141  0.5296  0.0651  1.7584
20070TIP3    H281702   3.425   2.144  13.202 -1.6144 -0.7584  2.0200
20071TIP3   OH281703   1.365   2.415  13.647  0.1096  0.0610  0.7477
20071TIP3    H181704   1.397   2.499  13.680 -0.9548 -0.2806  2.8444
20071TIP3    H281705   1.310   2.438  13.573 -0.5805  1.2891  1.6074
20072TIP3   OH281706   2.752   3.237  46.685  0.5526  0.0012 -0.0246
20072TIP3    H181707   2.829   3.186  46.659  0.1168 -1.6704  1.7028
20072TIP3    H281708   2.757   3.240  46.781 -0.9362  0.8347  0.0533
20073TIP3   OH281709   2.398   2.024  16.389 -0.4381 -0.1973 -0.0767
20073TIP3    H181710   2.368   2.106  16.351  0.5048  0.5597  0.7263
20073TIP3    H281711   2.493   2.035  16.397 -0.5234 -0.5004  1.9492
20074TIP3   OH281712   1.037   3.163  48.920 -0.1220  0.6400  0.2463
20074TIP3    H181713   1.058   3.128  48.834 -0.8252 -0.4843  0.5118
20074TIP3    H281714   1.118   3.153  48.971  0.1897  0.9953 -0.1700
20075TIP3   OH281715   0.992   3.011   9.471  0.2757  0.2309  0.7068
20075TIP3    H181716   1.020   3.101   9.484 -1.5743  0.7447  1.4631
20075TIP3    H281717   0.960   3.009   9.381  1.5552 -0.0556  0.2345
20076TIP3   OH281718   3.367   2.457  62.948  0.1541  0.3779  0.4301
20076TIP3    H181719   3.291   2.507  62.977  1.4521  3.0055 -0.3523
20076TIP3    H281720   3.440   2.491  63.000  0.7470 -2.8267  1.9333
20077TIP3   OH281721   1.032   0.526  50.275  0.0077 -0.2661 -0.5704
20077TIP3    H181722   1.102   0.462  50.263  1.3535  0.9912  0.1873
20077TIP3    H281723   0.986   0.498  50.354 -0.3512 -1.0853 -1.0567
20078TIP3   OH281724   0.654   0.789  37.574  0.1765  0.1476  0.2331
20078TIP3    H181725   0.603   0.856  37.620 -0.3974  0.1631 -0.4111
20078TIP3    H281726   0.604   0.708  37.587 -0.5612  0.3294 -1.1996
20079TIP3   OH281727   3.099   2.084  12.512  0.1177  0.7148  0.7471
20079TIP3    H181728   3.129   2.001  12.476  0.2131  0.4250  1.4793
20079TIP3    H281729   3.172   2.115  12.566 -0.2778  0.8007  1.2424
20080TIP3   OH281730   2.225   1.769  18.789 -0.4300  0.3687 -0.1412
20080TIP3    H181731   2.272   1.852  18.781  1.4993 -0.8246 -2.8915
20080TIP3    H281732   2.133   1.792  18.772 -0.2346  2.1518  0.9898
20081TIP3   OH281733   2.818   0.090  16.710  0.3578  0.2434  0.0746
20081TIP3    H181734   2.807   0.034  16.634  1.0949 -0.2538  0.3266
20081TIP3    H281735   2.757   0.163  16.695 -1.1675 -0.9662  0.0898
20082TIP3   OH281736   1.161   0.946  64.018  0.5619  0.3481 -0.7463
20082TIP3    H181737   1.245   0.904  64.002  1.0083 -0.0793  2.0883
20082TIP3    H281738   1.171   0.989  64.103 -1.8938  0.7848 -0.5835
20083TIP3   OH281739   1.622   3.278  59.301 -0.6482 -0.4507  0.7374
20083TIP3    H181740   1.654   3.195  59.266  1.5296  0.9115 -0.7165
20083TIP3    H281741   1.576   3.319  59.228 -0.3012  0.3395  0.9528
20084TIP3   OH281742   1.499   0.537  54.824  0.2945 -0.1959  0.3578
20084TIP3    H181743   1.548   0.468  54.868  0.2330  0.1139  0.9182
20084TIP3    H281744   1.467   0.496  54.743 -1.3142 -1.3931  1.5430
20085TIP3   OH281745   1.936   2.555   3.373  0.0987  0.0245 -0.0106
20085TIP3    H181746   1.941   2.482   3.435 -0.8441  0.0219  0.0647
20085TIP3    H281747   1.921   2.513   3.288  4.4701 -0.2531 -0.8964
20086TIP3   OH281748   3.361   0.559  58.187  0.2412  0.1542  0.0407
20086TIP3    H181749   3.292   0.539  58.124 -0.9698  1.5207  0.8937
20086TIP3    H281750   3.326   0.529  58.272  1.4856 -0.8541  0.2381
20087TIP3   OH281751   2.882   2.979  20.871 -0.4224 -0.1268  0.1384
20087TIP3    H181752   2.813   2.928  20.829 -1.2955  0.6247  0.6270
20087TIP3    H281753   2.836   3.041  20.927  0.6825 -0.4318  1.4477
20088TIP3   OH281754   1.321   1.541  15.496  0.2960  0.6523  0.3347
20088TIP3    H181755   1.240   1.546  15.546 -1.3534 -0.7694 -1.9740
20088TIP3    H281756   1.356   1.454  15.516 -1.3552 -0.7101 -2.1628
20089TIP3   OH281757   1.770   1.237  62.159  0.0348 -0.9842  0.1711
20089TIP3    H181758   1.676   1.234  62.181 -0.1063 -1.3551 -0.4665
20089TIP3    H281759   1.814   1.245  62.243 -0.5844 -0.5253  0.4649
20090TIP3   OH281760   1.794   2.458   5.541 -0.2071  0.5899 -0.1211
20090TIP3    H181761   1.733   2.530   5.526 -0.9061  0.3590  1.4525
20090TIP3    H281762   1.879   2.493   5.512 -0.8608  1.3246 -1.2302
20091TIP3   OH281763   2.055   0.800  45.295  0.2157 -0.9838  0.0738
20091TIP3    H181764   2.107   0.742  45.351 -0.1446 -1.4071 -0.0199
20091TIP3    H281765   2.112   0.822  45.222  0.6722 -0.4706  0.5741
20092TIP3   OH281766   1.761   0.304  18.875 -0.1062  0.2214  0.4669
20092TIP3    H181767   1.853   0.311  18.849 -0.9562  2.4494 -2.5458
20092TIP3    H281768   1.712   0.313  18.793 -3.0646 -0.0628  2.0466
20093TIP3   OH281769   2.101   2.587  66.809  0.4530 -0.2768  0.1914
20093TIP3    H181770   2.136   2.500  66.827  3.1068 -0.2853 -3.7068
20093TIP3    H281771   2.038   2.573  66.738  1.2040  0.9336 -0.7653
20094TIP3   OH281772   0.116   2.436  15.026 -0.5222 -0.7451 -0.2630
20094TIP3    H181773   0.174   2.372  15.067 -0.2344 -0.5433 -0.3525
20094TIP3    H281774   0.157   2.455  14.942 -0.2104  0.1212  0.0852
20095TIP3   OH281775   1.930   0.602  44.092 -0.2294  0.0005 -0.3124
20095TIP3    H181776   1.995   0.604  44.022  0.9988  0.3481  0.8062
20095TIP3    H281777   1.899   0.511  44.093 -0.2367 -0.0203 -1.2662
20096TIP3   OH281778   0.660   1.603  58.887 -0.0848 -0.1595 -0.3312
20096TIP3    H181779   0.709   1.684  58.875 -0.8591  0.2408 -0.8538
20096TIP3    H281780   0.655   1.591  58.982 -0.9746  1.0366 -0.2110
20097TIP3   OH281781   1.120   3.428  20.019 -0.7240  0.0035  0.2664
20097TIP3    H181782   1.105   3.459  20.108  0.3578  0.7347  0.2071
20097TIP3    H281783   1.113   3.506  19.965  1.5206  0.1072  0.0628
20098TIP3   OH281784   1.788   1.753  49.872 -0.9875 -0.0347 -0.0061
20098TIP3    H181785   1.730   1.704  49.814  0.6741 -1.0143 -0.9256
20098TIP3    H281786   1.778   1.712  49.958 -2.3676  0.4797  0.1139
20099TIP3   OH281787   1.757   3.237  50.563  0.5477 -0.5229  0.7681
20099TIP3    H181788   1.744   3.185  50.643  0.2388  1.3101  1.9657
20099TIP3    H281789   1.692   3.307  50.568  1.0066  0.0566 -0.7405
20100TIP3   OH281790   3.039   0.626  28.459 -0.4000  0.3693 -0.0571
20100TIP3    H181791   3.012   0.615  28.550 -0.9137 -2.0264 -0.4241
20100TIP3    H281792   2.957   0.626  28.410 -0.0882  0.7849 -0.5865
20101TIP3   OH281793   0.420   1.384  64.117 -0.3090  0.0704  0.0837
20101TIP3    H181794   0.338   1.419  64.083 -0.9699 -1.2689  0.2403
20101TIP3    H281795   0.449   1.450  64.180 -0.1551  1.5590 -1.4711
20102TIP3   OH281796   0.483   1.645   8.157 -0.4597 -0.0415  0.3868
20102TIP3    H181797   0.570   1.686   8.154 -0.5714  0.4817  2.6178
20102TIP3    H281798   0.426   1.706   8.111  0.3250 -0.4239 -1.1716
20103TIP3   OH281799   2.570   0.747  11.078 -0.2874 -0.4836  0.0874
20103TIP3    H181800   2.636   0.815  11.067 -2.4394  1.6638 -0.5106
20103TIP3    H281801   2.582   0.716  11.168  0.5650  0.9455  0.4974
20104TIP3   OH281802   1.985   1.826  63.346  0.2563  0.1105 -0.5714
20104TIP3    H181803   1.930   1.781  63.282  0.1426  0.1277 -0.4887
20104TIP3    H281804   2.074   1.820  63.312  0.3961 -1.1270 -0.0273
20105TIP3   OH281805   2.504   2.188  49.836  0.2514  0.1166 -0.1762
20105TIP3    H181806   2.535   2.263  49.887 -0.5156  0.8880 -0.7977
20105TIP3    H281807   2.566   2.118  49.855  0.9796  0.9059  0.4367
20106TIP3   OH281808   1.972   1.915  46.609  0.2590 -0.0341 -0.0129
20106TIP3    H181809   2.006   1.934  46.522  1.2547 -1.2607  0.0837
20106TIP3    H281810   1.952   2.001  46.647  0.9560  0.5755 -0.9945
20107TIP3   OH281811   3.070   0.199  67.083  0.0352 -0.3100 -0.2753
20107TIP3    H181812   3.121   0.189  67.163 -1.0268  0.5523  0.5431
20107TIP3    H281813   2.998   0.137  67.093 -0.9663  0.8817  0.1959
20108TIP3   OH281814   2.929   1.180  55.535  0.0622  0.4117 -0.1644
20108TIP3    H181815   2.903   1.272  55.523 -0.9788  0.1155 -0.2890
20108TIP3    H281816   3.016   1.185  55.576 -0.5833  1.4639  1.1550
20109TIP3   OH281817   0.568   1.393  66.550 -0.2190 -0.3656 -0.0656
20109TIP3    H181818   0.580   1.375  66.643 -0.6110 -2.2565 -0.3393
20109TIP3    H281819   0.655   1.380  66.512  0.4139  2.3262  0.2450
20110TIP3   OH281820   2.412   0.553   2.592 -0.2958 -0.0086  0.1866
20110TIP3    H181821   2.397   0.638   2.551  1.8718  0.8632  1.0532
20110TIP3    H281822   2.496   0.524   2.558 -1.3235 -2.2203 -0.6719
20111TIP3   OH281823   2.814   0.219  43.102  0.2670  0.2426  0.0635
20111TIP3    H181824   2.728   0.212  43.142 -0.4172  0.4022 -1.3335
20111TIP3    H281825   2.862   0.143  43.136  0.0756  0.8807  1.9119
20112TIP3   OH281826   1.007   1.203  65.449  0.8497  0.4865 -0.1752
20112TIP3    H181827   1.067   1.192  65.374  1.1401 -2.5605  0.3642
20112TIP3    H281828   0.929   1.242  65.411  0.3342 -2.4525 -2.5620
20113TIP3   OH281829   0.945   2.135  21.041  0.4580 -0.3848  0.6230
20113TIP3    H181830   0.856   2.159  21.016  0.8893  1.8982  1.0171
20113TIP3    H281831   0.943   2.039  21.048 -1.2440 -0.6387 -1.9557
20114TIP3   OH281832   1.467   1.596   2.739  0.0667 -0.1750  0.1950
20114TIP3    H181833   1.393   1.607   2.678  1.9895  0.7458 -2.1585
20114TIP3    H281834   1.477   1.682   2.780  0.3813 -0.0329 -0.1760
20115TIP3   OH281835   2.229   2.163  60.200  1.1353 -0.1940  0.0501
20115TIP3    H181836   2.226   2.192  60.292  3.1116  1.5508 -0.3676
20115TIP3    H281837   2.283   2.084  60.201  0.8139 -0.4132  0.4283
20116TIP3   OH281838   0.210   1.129  14.455  0.0529  0.3378  0.2444
20116TIP3    H181839   0.224   1.163  14.367 -0.6353 -0.6614 -0.2591
20116TIP3    H281840   0.127   1.081  14.450  0.3225 -0.2652  1.2765
20117TIP3   OH281841   3.004   1.683  49.418 -0.2663  0.3036  0.0944
20117TIP3    H181842   3.059   1.688  49.340  0.6150  0.9957  0.7351
20117TIP3    H281843   3.028   1.601  49.460  0.2989  0.6012  0.3682
20118TIP3   OH281844   1.099   1.056  11.124 -0.2708  0.5190 -0.1573
20118TIP3    H181845   1.138   1.076  11.039  1.0281  0.0971  0.3185
20118TIP3    H281846   1.140   1.117  11.185 -0.9814  0.6300  0.2268
20119TIP3   OH281847   2.269   2.632   9.263  0.4248  0.1042  0.0819
20119TIP3    H181848   2.304   2.543   9.269  1.8552  0.7265  2.0005
20119TIP3    H281849   2.336   2.687   9.303 -1.1948  1.8328  0.5628
20120TIP3   OH281850   1.921   2.874  15.830 -0.0998  0.0028  1.1880
20120TIP3    H181851   2.000   2.915  15.794 -1.6003  2.7335  0.6711
20120TIP3    H281852   1.928   2.888  15.925  0.2610 -0.2279  1.1983
20121TIP3   OH281853   0.168   2.343  48.615 -0.0319  0.2158  0.1723
20121TIP3    H181854   0.118   2.412  48.658  0.1659 -0.8290  2.1556
20121TIP3    H281855   0.103   2.275  48.596  0.1461  0.0440  0.1792
20122TIP3   OH281856   1.523   3.319  13.136 -0.6036 -0.8028 -0.1335
20122TIP3    H181857   1.466   3.393  13.118 -0.0205 -1.0568 -3.8411
20122TIP3    H281858   1.609   3.358  13.151 -0.6666 -0.6422 -0.1858
20123TIP3   OH281859   0.151   1.239  57.199  0.0742  0.3246 -0.0224
20123TIP3    H181860   0.194   1.171  57.147  1.6376  0.4206  1.0787
20123TIP3    H281861   0.188   1.321  57.167  1.6037  0.3512  1.6121
20124TIP3   OH281862   0.207   1.285   1.274  1.1552  0.2034 -0.1395
20124TIP3    H181863   0.193   1.378   1.255 -0.3714  0.3325  1.3622
20124TIP3    H281864   0.280   1.283   1.335  0.7587  0.4951  0.3531
20125TIP3   OH281865   2.460   0.293  54.080 -0.2037  0.0624  0.5977
20125TIP3    H181866   2.539   0.324  54.035 -1.1786  0.3976 -0.9494
20125TIP3    H281867   2.492   0.225  54.139  0.9856 -1.4322 -1.6414
20126TIP3   OH281868   2.488   0.674   4.536 -0.6930 -0.1103  0.3783
20126TIP3    H181869   2.503   0.686   4.629  1.3060 -1.1872  0.2539
20126TIP3    H281870   2.520   0.755   4.495  3.7411 -1.6128  0.2888
20127TIP3   OH281871   2.389   2.185  19.049  0.1876  0.8613 -0.0253
20127TIP3    H181872   2.305   2.201  19.006 -0.3638  0.4234  0.8664
20127TIP3    H281873   2.453   2.184  18.977 -0.9196 -1.6308 -1.1056
20128TIP3   OH281874   2.848   0.511  62.484  0.4926  0.1548 -0.0873
20128TIP3    H181875   2.854   0.490  62.391  0.5376 -1.6056  0.2827
20128TIP3    H281876   2.916   0.577  62.498  0.4421  0.4817 -1.3064
20129TIP3   OH281877   2.225   2.735  45.601  0.0862 -0.4014 -0.0017
20129TIP3    H181878   2.138   2.767  45.579  0.9119  1.4130 -0.8366
20129TIP3    H281879   2.236   2.755  45.694 -0.2521 -0.2645  0.0091
20130TIP3   OH281880   1.045   0.209   4.982  0.2584 -0.2795  0.2243
20130TIP3    H181881   1.065   0.301   4.995  0.5592 -0.5368  1.9274
20130TIP3    H281882   1.085   0.165   5.058  2.2063 -2.1228 -1.7157
20131TIP3   OH281883   0.595   2.191   6.412  0.1993  0.0756 -0.3522
20131TIP3    H181884   0.683   2.221   6.390  0.9145  0.5765  2.7853
20131TIP3    H281885   0.556   2.264   6.460  0.1243 -2.0188  3.0282
20132TIP3   OH281886   2.617   2.544  59.076 -0.1215  0.4368  0.4671
20132TIP3    H181887   2.537   2.529  59.125 -1.1248  1.1140 -0.8787
20132TIP3    H281888   2.620   2.473  59.012  0.8923 -0.1471  1.1385
20133TIP3   OH281889   1.510   0.931   4.943 -0.1031 -0.0976  0.0677
20133TIP3    H181890   1.466   1.007   4.905 -1.7621 -0.4107  1.2111
20133TIP3    H281891   1.479   0.857   4.891 -0.4439 -0.2467  0.4739
20134TIP3   OH281892   0.856   2.433  13.841 -0.0515 -0.4029  0.3384
20134TIP3    H181893   0.871   2.371  13.770  0.8898 -0.7840  0.8526
20134TIP3    H281894   0.922   2.411  13.907 -1.1850 -0.3602  1.5394
20135TIP3   OH281895   1.244   1.851  10.446 -0.1610  0.1851 -0.2122
20135TIP3    H181896   1.315   1.892  10.497  0.0670  0.3711 -0.6697
20135TIP3    H281897   1.279   1.846  10.357  0.0312 -1.5344 -0.0600
20136TIP3   OH281898   0.851   2.098  54.175 -0.5702 -0.8461 -0.0064
20136TIP3    H181899   0.756   2.104  54.162 -0.6740  2.6561  1.4331
20136TIP3    H281900   0.887   2.167  54.120  1.0020 -0.9807  0.8053
20137TIP3   OH281901   1.685   0.210   6.734  0.1566  0.0295 -0.7765
20137TIP3    H181902   1.680   0.179   6.644 -1.2792  0.0777 -0.7388
20137TIP3    H281903   1.602   0.182   6.773  1.0970 -0.7351  0.7782
20138TIP3   OH281904   0.666   0.899  49.596 -0.4721  0.1460 -0.0738
20138TIP3    H181905   0.727   0.957  49.643 -1.1278 -0.9077  2.2284
20138TIP3    H281906   0.591   0.890  49.655 -1.7976 -0.5387 -1.7655
20139TIP3   OH281907   0.287   0.866  62.416 -0.3504  0.3070  0.0349
20139TIP3    H181908   0.353   0.821  62.469  0.6811  0.9143 -0.6956
20139TIP3    H281909   0.219   0.801  62.402 -0.8364  0.2188  2.3586
20140TIP3   OH281910   0.602   2.401  64.536 -0.1998  0.2660  0.5065
20140TIP3    H181911   0.692   2.425  64.514 -0.0387  0.6443  1.5177
20140TIP3    H281912   0.610   2.331  64.600 -0.6454 -0.4027 -0.1583
20141TIP3   OH281913   0.146   0.130  20.853 -0.3576 -0.0220  0.3840
20141TIP3    H181914   0.240   0.147  20.858 -0.4222  0.1430  1.2107
20141TIP3    H281915   0.139   0.035  20.852 -0.0398 -0.1591 -3.2640
20142TIP3   OH281916   2.852   3.330   6.430 -0.4968 -0.4086 -0.2747
20142TIP3    H181917   2.922   3.329   6.495  0.3714  2.1520 -1.0218
20142TIP3    H281918   2.887   3.280   6.356  0.3156  0.2794 -0.3778
20143TIP3   OH281919   0.044   0.653  49.270  0.5950 -1.0006 -0.4173
20143TIP3    H181920   0.020   0.745  49.271  1.4137 -0.7817  0.9867
20143TIP3    H281921  -0.025   0.610  49.321  0.7826 -1.0033 -0.1622
20144TIP3   OH281922   1.997   3.119   7.987 -0.7903  0.4533 -0.4059
20144TIP3    H181923   2.057   3.094   8.058 -2.3513  1.0799  1.1981
20144TIP3    H281924   1.999   3.044   7.927 -0.3978 -0.6707  0.9504
20145TIP3   OH281925   2.110   0.455   1.386 -0.0324  0.4766 -0.3169
20145TIP3    H181926   2.171   0.461   1.460 -0.9675  2.1479  0.3854
20145TIP3    H281927   2.167   0.447   1.309  0.9919 -0.1483  0.4713
20146TIP3   OH281928   1.292   2.621  66.737 -0.2752 -0.4821  0.3653
20146TIP3    H181929   1.264   2.544  66.787 -0.9843 -0.4863 -0.0296
20146TIP3    H281930   1.215   2.677  66.733  0.4561  0.6692  1.3708
20147TIP3   OH281931   1.356   0.880  57.225 -0.0793  0.3612 -0.6630
20147TIP3    H181932   1.335   0.971  57.246 -0.2159  0.1798 -0.0188
20147TIP3    H281933   1.282   0.830  57.259  1.0293 -0.2164  0.9965
20148TIP3   OH281934   1.048   0.897  61.328 -0.1568 -0.5271 -0.5774
20148TIP3    H181935   1.093   0.838  61.388  0.6820  0.4124 -0.2655
20148TIP3    H281936   0.993   0.839  61.275  0.7779 -1.6084 -0.4096
20149TIP3   OH281937   1.675   3.377  45.909  0.8673  0.1307 -0.6564
20149TIP3    H181938   1.697   3.424  45.828  1.3689  0.3786 -0.3846
20149TIP3    H281939   1.759   3.345  45.942  0.7930  0.7969  0.2273
20150TIP3   OH281940   0.606   1.178  55.072  0.9836 -0.4142 -0.1744
20150TIP3    H181941   0.594   1.169  54.977 -0.9091  0.3632 -0.0476
20150TIP3    H281942   0.688   1.226  55.081  0.7995  0.1989 -1.4481
20151TIP3   OH281943   0.492   2.476  14.793  0.1144 -0.0878 -0.5709
20151TIP3    H181944   0.485   2.555  14.847  0.2850  0.0254 -0.7150
20151TIP3    H281945   0.401   2.448  14.780  0.0904 -0.3201  0.0749
20152TIP3   OH281946   0.020   1.822  51.324 -0.6418  0.3378 -0.0504
20152TIP3    H181947   0.052   1.732  51.329 -0.4640  0.3288 -1.2262
20152TIP3    H281948  -0.050   1.819  51.260 -1.4433  0.8187  0.7845
20153TIP3   OH281949   2.111   1.683  62.205 -0.2688  0.0249  0.3750
20153TIP3    H181950   2.070   1.684  62.291 -0.2812 -2.1167  0.4552
20153TIP3    H281951   2.201   1.711  62.221  0.0448 -1.4184  1.3176
20154TIP3   OH281952   2.714   0.327  52.925  0.3461 -0.2037 -0.3455
20154TIP3    H181953   2.809   0.340  52.932  0.4329  0.5797 -2.2757
20154TIP3    H281954   2.700   0.303  52.834 -1.3180 -0.3642 -0.0740
20155TIP3   OH281955   2.923   1.885  53.107  0.1519 -0.1450 -0.5479
20155TIP3    H181956   2.911   1.961  53.164 -1.8124  1.5541 -3.0178
20155TIP3    H281957   2.983   1.916  53.039  0.3273 -1.2172 -0.8893
20156TIP3   OH281958   1.630   3.246   7.401  0.8375  0.0804  0.6359
20156TIP3    H181959   1.626   3.291   7.317  0.6721 -0.2330  0.4728
20156TIP3    H281960   1.552   3.191   7.403  0.9308 -0.0454  0.9161
20157TIP3   OH281961   2.036   1.987  64.525 -0.1155 -0.0798  0.6314
20157TIP3    H181962   2.127   1.970  64.547 -0.1435 -2.6264 -0.8861
20157TIP3    H281963   1.988   1.912  64.560 -1.3539  0.2286 -0.3353
20158TIP3   OH281964   0.235   2.753   1.441 -0.1982 -0.1470  0.0889
20158TIP3    H181965   0.219   2.704   1.360 -0.0326 -0.5227  0.2799
20158TIP3    H281966   0.185   2.707   1.508 -0.4433  0.2426  0.1756
20159TIP3   OH281967   2.604   2.029   9.092  0.5462  0.2305  0.1604
20159TIP3    H181968   2.570   1.956   9.143 -0.5035 -0.3284 -1.2546
20159TIP3    H281969   2.697   2.009   9.080  1.0517  0.8750  2.6089
20160TIP3   OH281970   2.942   0.904  62.916 -0.0347  0.0908  0.3667
20160TIP3    H181971   2.991   0.914  62.997 -0.7482 -0.7219  0.9195
20160TIP3    H281972   2.960   0.984  62.866  3.8648 -1.1708 -0.6050
20161TIP3   OH281973   0.336   3.235  45.997  0.2178 -0.3968 -0.3555
20161TIP3    H181974   0.353   3.220  45.904  3.6773  1.4525 -0.1847
20161TIP3    H281975   0.371   3.157  46.040  0.3968 -0.3931 -0.4974
20162TIP3   OH281976   0.499   0.823  45.814 -0.5785 -0.2216  0.0722
20162TIP3    H181977   0.559   0.773  45.758 -1.8402 -1.2054 -0.4742
20162TIP3    H281978   0.553   0.891  45.852  0.6025 -0.2382 -1.4471
20163TIP3   OH281979   1.278   1.925   9.573 -0.4275  0.6663 -0.0328
20163TIP3    H181980   1.298   1.841   9.614 -0.8908  0.1605 -0.8180
20163TIP3    H281981   1.314   1.919   9.485  0.0481  1.5187  0.0917
20164TIP3   OH281982   1.663   1.805  50.704  0.2520  0.0884  0.2807
20164TIP3    H181983   1.700   1.768  50.784 -0.4634  0.2130  0.6709
20164TIP3    H281984   1.636   1.729  50.653 -0.3403  0.0427  0.6619
20165TIP3   OH281985   2.797   2.560  47.470 -0.2479  0.6013  0.3923
20165TIP3    H181986   2.841   2.645  47.473 -1.2576  1.2364 -1.2706
20165TIP3    H281987   2.867   2.497  47.489  0.5067  1.7731  1.7148
20166TIP3   OH281988   0.445   1.963  58.331  0.1565  0.2016  0.4887
20166TIP3    H181989   0.460   1.871  58.351 -0.5080 -0.0757 -0.2459
20166TIP3    H281990   0.358   1.982  58.365 -0.2260  0.2102 -0.4683
20167TIP3   OH281991   3.224   1.371   7.786  0.6688  0.6417 -0.6695
20167TIP3    H181992   3.251   1.323   7.865  1.6211  2.8165  0.3829
20167TIP3    H281993   3.128   1.362   7.785  0.5951  1.0206  1.0337
20168TIP3   OH281994   2.750   2.833  61.461 -0.6015  0.2378 -0.1326
20168TIP3    H181995   2.718   2.923  61.473  0.6586  0.5333  1.4177
20168TIP3    H281996   2.722   2.787  61.540 -0.8272 -0.6273 -0.6991
20169TIP3   OH281997   3.192   1.945  59.293  0.3059 -0.3848  0.0481
20169TIP3    H181998   3.193   1.945  59.389 -0.7965  1.5104  0.1035
20169TIP3    H281999   3.240   2.024  59.268  2.1774 -1.8116 -1.0413
20170TIP3   OH282000   0.253   3.112   0.709 -0.4241  0.1147  0.0423
20170TIP3    H182001   0.230   3.031   0.664 -0.2921 -1.0351  1.9462
20170TIP3    H282002   0.336   3.093   0.753 -0.8179  0.9753  1.2175
20171TIP3   OH282003   0.556   2.662  16.415 -0.6737 -0.3184 -0.1742
20171TIP3    H182004   0.463   2.657  16.395 -1.6007 -0.4245  3.4653
20171TIP3    H282005   0.592   2.578  16.388 -1.5235 -0.1871 -1.8291
20172TIP3   OH282006   0.547   1.277   4.934  0.1866 -0.4486  0.3130
20172TIP3    H182007   0.562   1.234   4.850 -0.4193 -0.4461  0.1955
20172TIP3    H282008   0.496   1.355   4.911 -0.8978 -1.0042  0.7931
20173TIP3   OH282009   1.013   1.465  57.983 -0.4782 -0.0545  1.1506
20173TIP3    H182010   1.077   1.470  57.912 -0.9437  1.4070  0.7866
20173TIP3    H282011   0.967   1.382  57.969 -1.4274  0.7543 -1.0618
20174TIP3   OH282012   0.280   2.377  59.057  0.0421  0.3407  0.1854
20174TIP3    H182013   0.249   2.365  58.967 -0.8548  0.5103  0.4562
20174TIP3    H282014   0.275   2.471  59.073  0.8074  0.3837  0.2105
20175TIP3   OH282015   1.829   2.842  59.501 -0.1017 -0.2177 -0.3322
20175TIP3    H182016   1.876   2.887  59.430  0.2008  0.7474  0.4581
20175TIP3    H282017   1.747   2.814  59.462 -1.0621  2.5104 -0.4663
20176TIP3   OH282018   3.005   1.755  17.478  0.2120 -0.3303 -0.1732
20176TIP3    H182019   3.090   1.792  17.453  1.6506 -0.3438  3.8677
20176TIP3    H282020   3.021   1.660  17.480 -0.5449 -0.4942 -1.2953
20177TIP3   OH282021   2.426   3.395  16.845 -0.2357  0.2152  0.0906
20177TIP3    H182022   2.401   3.370  16.934 -1.6129  1.7440  0.1819
20177TIP3    H282023   2.520   3.412  16.850 -0.5483  1.7395  1.6527
20178TIP3   OH282024   2.564   1.428  51.283 -0.3249 -0.5549 -0.1678
20178TIP3    H182025   2.582   1.349  51.334 -1.9875 -0.6611  0.3297
20178TIP3    H282026   2.486   1.466  51.324  1.2331  2.1680  0.5347
20179TIP3   OH282027   0.292   0.696  45.689 -0.1683  0.0565 -0.2509
20179TIP3    H182028   0.275   0.615  45.738  0.5024 -0.7379 -1.2919
20179TIP3    H282029   0.364   0.737  45.736 -1.7614  1.0583  1.4177
20180TIP3   OH282030   3.229   3.227  46.462  0.3322 -0.0131 -0.6104
20180TIP3    H182031   3.286   3.297  46.494 -2.0440  0.7911  2.3704
20180TIP3    H282032   3.281   3.147  46.473  1.7914  0.9022 -0.5637
20181TIP3   OH282033   0.184   3.049  63.124 -0.7982  0.0895  0.0939
20181TIP3    H182034   0.092   3.042  63.146 -0.9583  0.4709 -0.4305
20181TIP3    H282035   0.205   3.141  63.137 -0.7476  0.2047 -0.7275
20182TIP3   OH282036   3.437   1.640  54.560 -0.5246 -0.2106  0.1797
20182TIP3    H182037   3.529   1.666  54.559 -0.3671 -0.7689 -0.1668
20182TIP3    H282038   3.392   1.712  54.516  0.0840 -1.1139 -2.0765
20183TIP3   OH282039   1.823   2.927  50.661  0.1251 -0.3336  0.4749
20183TIP3    H182040   1.782   3.010  50.685 -0.7667 -1.0764  1.6307
20183TIP3    H282041   1.756   2.881  50.610 -0.1027 -1.0943  1.4265
20184TIP3   OH282042   1.958   1.856  63.637 -0.0030  0.0974  0.2453
20184TIP3    H182043   1.873   1.814  63.651 -0.9739  1.7260 -0.5196
20184TIP3    H282044   1.990   1.820  63.555 -0.5833  0.4466 -0.1408
20185TIP3   OH282045   3.442   1.473   1.544  0.0872 -0.0702  0.0809
20185TIP3    H182046   3.373   1.408   1.560 -0.9939  0.8925 -0.5496
20185TIP3    H282047   3.479   1.448   1.460 -0.8875  0.5753 -0.5628
20186TIP3   OH282048   2.633   2.694  13.018 -0.5026  0.1004 -0.2951
20186TIP3    H182049   2.601   2.659  12.935  0.1356  2.0706 -1.4520
20186TIP3    H282050   2.708   2.748  12.993  0.9717 -0.8486  1.8197
20187TIP3   OH282051   0.416   1.598  49.723  0.5118  0.0510  0.2493
20187TIP3    H182052   0.459   1.680  49.746  0.4398 -0.6144  3.0743
20187TIP3    H282053   0.357   1.580  49.796 -0.4622 -1.8644 -0.9224
20188TIP3   OH282054   2.177   0.424  44.540  0.7778  0.2614 -0.4662
20188TIP3    H182055   2.102   0.378  44.501  0.1590 -0.9093  1.9153
20188TIP3    H282056   2.252   0.366  44.523  0.5614 -0.1098 -0.1731
20189TIP3   OH282057   1.171   1.213  50.222  0.3831  0.9523  0.6484
20189TIP3    H182058   1.126   1.229  50.305 -0.1308 -1.9939  1.0345
20189TIP3    H282059   1.224   1.135  50.237  1.5782  1.2887 -1.3500
20190TIP3   OH282060   0.424   2.057   3.738 -0.4377 -0.1136  0.6599
20190TIP3    H182061   0.427   2.150   3.761  0.3047 -0.0355  0.2439
20190TIP3    H282062   0.514   2.026   3.747 -0.5299 -0.6017 -0.0038
20191TIP3   OH282063   1.887   0.359  65.782  0.0151  0.0861 -0.1934
20191TIP3    H182064   1.932   0.298  65.724  1.5391  0.8790  0.1111
20191TIP3    H282065   1.877   0.439  65.730 -1.1140 -0.0960 -0.2765
20192TIP3   OH282066   2.613   0.119  30.439  0.2817  0.0019  0.2993
20192TIP3    H182067   2.549   0.091  30.374  0.0747 -0.5313  0.7289
20192TIP3    H282068   2.596   0.213  30.450  0.8322  0.2807 -0.9773
20193TIP3   OH282069   1.725   0.597  14.705  0.6195 -0.6427  0.0111
20193TIP3    H182070   1.719   0.689  14.680 -1.7716  0.4199  3.6219
20193TIP3    H282071   1.803   0.594  14.761 -0.5945 -0.1345  1.8214
20194TIP3   OH282072   1.454   1.838  36.177 -0.2364  0.2812 -0.0583
20194TIP3    H182073   1.516   1.781  36.132 -1.1139 -1.1697  0.5339
20194TIP3    H282074   1.368   1.803  36.155 -0.9487  2.6023 -1.3315
20195TIP3   OH282075   0.974   0.787  49.060  0.8639 -0.1400 -0.3520
20195TIP3    H182076   0.996   0.858  49.120  2.4299  0.5153 -1.6244
20195TIP3    H282077   0.975   0.708  49.115  0.3882  0.6361  0.8196
20196TIP3   OH282078   2.785   0.733   0.299 -0.0209 -0.1424  0.2325
20196TIP3    H182079   2.832   0.651   0.314  2.2732  0.8235 -1.1136
20196TIP3    H282080   2.698   0.706   0.270  0.6442 -2.0885 -0.0814
20197TIP3   OH282081   0.030   2.146  48.481 -0.1922  0.5146 -0.2787
20197TIP3    H182082  -0.019   2.075  48.522 -0.7102  1.1346  0.1888
20197TIP3    H282083  -0.021   2.169  48.403  0.9744 -0.9039 -1.5405
20198TIP3   OH282084   1.773   3.438  52.774  0.9212  0.1804  0.3455
20198TIP3    H182085   1.780   3.446  52.679  0.5895  1.1413  0.3919
20198TIP3    H282086   1.681   3.453  52.793  1.3399  2.3062  1.0005
20199TIP3   OH282087   1.308   1.379  60.429 -0.0579 -0.0263  0.0023
20199TIP3    H182088   1.396   1.345  60.441 -0.3529 -0.9878 -0.4794
20199TIP3    H282089   1.309   1.418  60.342 -0.1329 -0.1114 -0.0371
20200TIP3   OH282090   1.621   1.889   3.071  0.5529 -0.6943  0.1875
20200TIP3    H182091   1.588   1.928   2.990  1.4948  0.0730  0.1494
20200TIP3    H282092   1.557   1.822   3.094 -0.8470  0.5422 -0.0164
20201TIP3   OH282093   0.341   1.544  60.964 -0.3140 -0.2440 -0.5052
20201TIP3    H182094   0.382   1.613  61.016 -0.1198 -0.8285  0.1250
20201TIP3    H282095   0.247   1.558  60.975 -0.3247  0.9369 -1.7403
20202TIP3   OH282096   0.515   2.271   4.698 -0.1201 -0.0368 -0.1256
20202TIP3    H182097   0.531   2.358   4.661 -1.7038  0.9934  1.4638
20202TIP3    H282098   0.446   2.234   4.644 -1.7452  1.0678  1.1100
20203TIP3   OH282099   3.427   0.398  55.248  0.1265 -0.0208 -0.5515
20203TIP3    H182100   3.441   0.314  55.206 -1.6377 -0.1773 -0.9035
20203TIP3    H282101   3.365   0.443  55.191 -1.5713  0.1535  1.3457
20204TIP3   OH282102   1.463   0.953  35.770  0.3987  0.0471 -0.3048
20204TIP3    H182103   1.470   0.878  35.829 -1.9892  1.3187  1.7908
20204TIP3    H282104   1.400   0.926  35.704  0.7863 -0.3265 -0.5316
20205TIP3   OH282105   1.876   1.365  43.546  0.5133  0.0462  0.2724
20205TIP3    H182106   1.830   1.426  43.604 -1.4469 -0.1966 -0.9415
20205TIP3    H282107   1.967   1.397  43.545 -0.3743  2.8327 -0.1240
20206TIP3   OH282108   0.148   3.280  60.007  0.2351 -0.4573  0.3171
20206TIP3    H182109   0.073   3.336  59.990  1.0863  1.3738  2.1007
20206TIP3    H282110   0.123   3.230  60.085  0.3221 -0.9089  0.0560
20207TIP3   OH282111   2.681   1.879  53.452  0.3217  0.2907  0.0161
20207TIP3    H182112   2.610   1.944  53.446  0.0501 -0.1332 -1.9310
20207TIP3    H282113   2.647   1.802  53.407  2.3149  0.3815 -1.8239
20208TIP3   OH282114   3.208   2.300   5.987 -0.2703 -0.0916  0.1252
20208TIP3    H182115   3.248   2.285   5.901 -0.4809 -0.1503  0.0377
20208TIP3    H282116   3.124   2.340   5.967  0.0838  0.7873  0.3353
20209TIP3   OH282117   1.336   1.689  45.936  0.3678 -0.3409  0.0690
20209TIP3    H182118   1.272   1.741  45.984 -1.0335 -0.6085 -1.4255
20209TIP3    H282119   1.366   1.623  45.999  1.6104  1.7341  1.7673
20210TIP3   OH282120   1.533   0.526  65.993  0.0266  0.2507  0.1859
20210TIP3    H182121   1.441   0.552  65.991 -0.2739 -0.7810 -0.7077
20210TIP3    H282122   1.552   0.513  66.086 -1.0230 -0.4461  0.3257
20211TIP3   OH282123   2.365   2.012  51.385  0.0405 -0.0100  0.5224
20211TIP3    H182124   2.346   2.027  51.293 -3.2092  0.6898  1.1798
20211TIP3    H282125   2.296   1.953  51.415  0.4995  0.4576  2.7087
20212TIP3   OH282126   2.749   3.362   4.540 -0.4966 -0.4951  0.5772
20212TIP3    H182127   2.769   3.443   4.588  0.2820 -0.1353 -0.3138
20212TIP3    H282128   2.749   3.294   4.607  1.2517 -0.1095  1.0255
20213TIP3   OH282129   2.742   1.724  21.509  0.3607  0.2100  0.8200
20213TIP3    H182130   2.777   1.810  21.533 -0.3827  0.4666  0.9836
20213TIP3    H282131   2.657   1.718  21.552  1.0213 -1.2126  2.0048
20214TIP3   OH282132   1.125   1.648  54.256 -0.2445 -0.0390 -0.5663
20214TIP3    H182133   1.195   1.692  54.208  1.5017 -1.9819  0.0445
20214TIP3    H282134   1.085   1.718  54.309 -1.1601  1.8203 -3.4769
20215TIP3   OH282135   2.837   0.004  50.134 -0.2974 -0.0839 -0.1775
20215TIP3    H182136   2.814  -0.080  50.173 -0.7062  0.1507  0.0949
20215TIP3    H282137   2.933   0.003  50.130 -0.3141 -0.8744 -0.8859
20216TIP3   OH282138   1.178   2.604  52.100 -0.1741  0.3374  0.5190
20216TIP3    H182139   1.208   2.616  52.190 -1.1113  1.2090  0.7349
20216TIP3    H282140   1.183   2.509  52.085  1.6418  0.3325  0.8767
20217TIP3   OH282141   2.474   0.710  13.781  0.3675 -0.2795  0.2868
20217TIP3    H182142   2.456   0.673  13.867 -1.6145  1.6422  0.7813
20217TIP3    H282143   2.427   0.653  13.720  1.2880 -1.2889  0.4714
20218TIP3   OH282144   2.161   1.876  48.448  0.4316  0.4018  0.2817
20218TIP3    H182145   2.190   1.849  48.360  1.6217 -0.6903  0.9569
20218TIP3    H282146   2.109   1.955  48.433  0.5280  0.1975 -1.4115
20219TIP3   OH282147   0.110   1.558   2.505 -0.0815 -0.0666  0.8172
20219TIP3    H182148   0.017   1.551   2.526 -0.5877 -0.0105 -1.2152
20219TIP3    H282149   0.153   1.495   2.563 -1.4866 -0.7214  1.1802
20220TIP3   OH282150   2.860   1.298  44.224  0.1524 -0.2844 -0.1152
20220TIP3    H182151   2.781   1.249  44.204 -0.0420  0.8311 -2.4119
20220TIP3    H282152   2.928   1.257  44.169  1.0296 -0.7299  1.2376
20221TIP3   OH282153   0.429   2.207  52.453  0.3985 -0.4941  0.1428
20221TIP3    H182154   0.378   2.164  52.384  0.8570 -0.8868  0.0382
20221TIP3    H282155   0.391   2.294  52.460 -0.0527 -0.6596 -0.1819
20222TIP3   OH282156   3.074   0.695  29.428  0.2768 -0.5641 -0.7679
20222TIP3    H182157   3.044   0.626  29.368  0.4958 -0.7198 -0.7033
20222TIP3    H282158   3.146   0.737  29.381 -0.6627  0.4437 -1.3264
20223TIP3   OH282159   3.445   0.637  12.540  0.0369 -0.4350  0.0370
20223TIP3    H182160   3.391   0.575  12.589 -0.9806  0.2374 -0.2071
20223TIP3    H282161   3.383   0.686  12.486  0.4163  2.7630  2.2585
20224TIP3   OH282162   1.034   1.615  60.977  0.1184  0.2238 -0.5931
20224TIP3    H182163   0.973   1.630  60.905 -0.7723  0.9409  0.2908
20224TIP3    H282164   0.981   1.623  61.056  1.4909  1.6586  0.2382
20225TIP3   OH282165   1.017   2.897  17.868  0.0208  0.2214  0.4558
20225TIP3    H182166   1.103   2.864  17.840  0.1311  1.3146 -0.5928
20225TIP3    H282167   0.957   2.825  17.849  0.8569 -1.1640  2.6200
20226TIP3   OH282168   0.941   1.223  53.154  0.3568 -0.2155  0.2654
20226TIP3    H182169   0.913   1.139  53.117 -2.4695  0.7084  0.0179
20226TIP3    H282170   1.026   1.241  53.114  0.3198 -2.2164 -0.8402
20227TIP3   OH282171   2.757   2.436  16.354  0.1548  0.0710  0.0507
20227TIP3    H182172   2.708   2.359  16.326 -0.8344  0.7987 -0.2723
20227TIP3    H282173   2.756   2.433  16.450  0.4118 -0.4901  0.0361
20228TIP3   OH282174   3.088   3.206  57.955  0.5489 -0.1341 -0.2631
20228TIP3    H182175   3.097   3.134  57.892 -0.5980 -0.1460 -0.4257
20228TIP3    H282176   3.174   3.212  57.997  0.6408 -1.6590 -0.1853
20229TIP3   OH282177   1.796   1.914  17.618 -0.3885 -0.1591 -0.5617
20229TIP3    H182178   1.737   1.926  17.544 -1.4618 -0.3276  0.2497
20229TIP3    H282179   1.746   1.943  17.694  0.8094  0.3152  0.0715
20230TIP3   OH282180   1.387   3.157  54.381 -0.3406  0.6252  0.4164
20230TIP3    H182181   1.412   3.183  54.292 -2.5113  0.9988 -0.1413
20230TIP3    H282182   1.335   3.231  54.413 -1.7277 -0.5782  1.0153
20231TIP3   OH282183   0.562   0.942  54.928  0.1474  0.3266 -0.0796
20231TIP3    H182184   0.497   1.005  54.961  0.0049  0.6686 -1.0058
20231TIP3    H282185   0.646   0.978  54.957 -0.0600 -0.2493  1.3446
20232TIP3   OH282186   0.079   1.249  20.689  0.4719  0.3354 -0.6080
20232TIP3    H182187   0.069   1.222  20.597 -0.3088 -0.2769 -0.3502
20232TIP3    H282188   0.166   1.219  20.713 -0.0345 -1.1975 -0.6057
20233TIP3   OH282189   1.599   3.106  59.597 -0.0081 -0.3136 -0.4453
20233TIP3    H182190   1.585   3.022  59.554 -1.1951 -0.3873  0.0627
20233TIP3    H282191   1.531   3.164  59.561  0.3311  0.2240 -0.2423
20234TIP3   OH282192   1.058   2.458  19.605 -0.1109  0.0957  0.3207
20234TIP3    H182193   1.033   2.459  19.512 -0.1044  1.1684  0.3245
20234TIP3    H282194   1.009   2.384  19.642 -0.2507 -0.2308 -0.4949
20235TIP3   OH282195   2.189   0.559  13.886  0.6603 -0.2436 -0.3151
20235TIP3    H182196   2.274   0.559  13.930 -0.3954 -1.1810  1.8346
20235TIP3    H282197   2.160   0.468  13.888 -0.8480  0.2164 -0.0955
20236TIP3   OH282198   1.282   0.869  10.223 -0.4279  0.3865 -0.6292
20236TIP3    H182199   1.318   0.817  10.295 -0.0982  0.2334 -0.9046
20236TIP3    H282200   1.356   0.918  10.189 -0.3985 -0.2067 -1.4356
20237TIP3   OH282201   1.964   1.525  56.501 -0.0707  0.3320 -0.0185
20237TIP3    H182202   1.937   1.441  56.463  0.8541 -0.3570  0.7796
20237TIP3    H282203   1.999   1.575  56.427 -0.4963 -0.0461 -0.4808
20238TIP3   OH282204   0.440   2.250   7.975 -0.2877  0.3379  0.4420
20238TIP3    H182205   0.438   2.185   7.905 -2.0826 -1.0143  1.6681
20238TIP3    H282206   0.526   2.240   8.015  0.0705 -0.1253 -0.4199
20239TIP3   OH282207   0.550   0.511  50.519 -0.3667  0.8626 -0.2190
20239TIP3    H182208   0.523   0.492  50.609 -2.9645 -2.1227 -1.4556
20239TIP3    H282209   0.491   0.581  50.490 -1.3717 -0.0299 -0.3790
20240TIP3   OH282210   2.980   3.163  67.284 -0.5424 -0.3494 -0.0488
20240TIP3    H182211   2.918   3.164  67.356 -1.2764 -0.3362 -0.6643
20240TIP3    H282212   3.006   3.255  67.273  1.1826 -0.5920  1.5122
20241TIP3   OH282213   0.757   3.065  43.021  0.3627 -0.2621  0.3751
20241TIP3    H182214   0.815   3.026  43.087  0.5399 -0.2770  0.2109
20241TIP3    H282215   0.670   3.060  43.060  0.1974 -1.9725 -0.1539
20242TIP3   OH282216   1.219   2.159  11.123  0.3058 -0.4241  0.6401
20242TIP3    H182217   1.255   2.230  11.070 -1.0207 -0.4752 -0.3650
20242TIP3    H282218   1.200   2.200  11.208  3.4592 -0.5999  1.5377
20243TIP3   OH282219   0.369   1.357   4.264 -0.3133 -0.3723  0.6793
20243TIP3    H182220   0.447   1.411   4.255  0.1030 -0.9670  0.6927
20243TIP3    H282221   0.296   1.419   4.253  0.1486  0.2470  1.0323
20244TIP3   OH282222   0.013   3.035  22.831 -0.1468  0.7828  0.5118
20244TIP3    H182223  -0.037   2.955  22.843 -0.2985  0.9234  0.8222
20244TIP3    H282224   0.103   3.006  22.815 -0.2619  0.5428  0.2964
20245TIP3   OH282225   1.903   2.712   1.175 -0.3035  0.5139 -0.7804
20245TIP3    H182226   1.874   2.654   1.105  0.1046 -0.5803 -0.0625
20245TIP3    H282227   1.989   2.743   1.147  0.2716 -0.6599 -0.3473
20246TIP3   OH282228   3.057   0.080  15.815  0.8018 -0.1954 -0.0562
20246TIP3    H182229   3.079   0.155  15.871 -0.3039  0.1577 -0.0809
20246TIP3    H282230   2.991   0.032  15.864 -1.8073  1.2933 -1.8981
20247TIP3   OH282231   2.607   1.291  17.214  0.0313 -0.0267 -0.0669
20247TIP3    H182232   2.554   1.282  17.134 -0.0586  2.0763 -0.3207
20247TIP3    H282233   2.543   1.294  17.285 -0.1749  1.5749 -0.2850
20248TIP3   OH282234   2.809   1.070  58.670 -0.6065 -0.5364 -0.0735
20248TIP3    H182235   2.781   1.039  58.583 -0.7816  0.0667 -0.2365
20248TIP3    H282236   2.763   1.153  58.681  0.3772 -0.0047  0.0720
20249TIP3   OH282237   1.448   2.454  47.437 -0.0405 -0.2547 -0.8130
20249TIP3    H182238   1.429   2.513  47.364  2.2308  1.2753 -0.2618
20249TIP3    H282239   1.522   2.401  47.406  2.8281  2.2813  1.1727
20250TIP3   OH282240   2.550   2.809  61.957 -0.5694 -0.0742  0.7875
20250TIP3    H182241   2.592   2.890  61.930  1.6106 -1.7340 -1.1151
20250TIP3    H282242   2.540   2.818  62.052  0.7256  1.8969  0.7902
20251TIP3   OH282243   3.137   3.244   4.196  0.5191  0.1207 -0.2467
20251TIP3    H182244   3.063   3.276   4.247  0.7096 -0.1701  0.2199
20251TIP3    H282245   3.213   3.260   4.252  0.5786 -1.5199  0.2002
20252TIP3   OH282246   0.203   0.366  20.272 -0.1062 -0.4143  0.3376
20252TIP3    H182247   0.278   0.308  20.285  0.1303  0.0703  1.2270
20252TIP3    H282248   0.213   0.399  20.182  1.2737  0.3583  0.7363
20253TIP3   OH282249   1.071   2.262  14.604  0.2099  0.0654 -0.0976
20253TIP3    H182250   1.077   2.357  14.597  1.0028 -0.0219 -0.8898
20253TIP3    H282251   0.982   2.241  14.576  1.2021  0.3062 -4.1994
20254TIP3   OH282252   3.145   0.610   7.607 -0.1408 -0.0008  0.5194
20254TIP3    H182253   3.094   0.627   7.686  1.3182  0.3825  1.4292
20254TIP3    H282254   3.087   0.558   7.551 -1.9191  1.3823  0.9782
20255TIP3   OH282255   1.039   1.973  44.559 -0.2480 -0.7876 -0.4480
20255TIP3    H182256   1.036   1.923  44.640 -0.5366  0.0410  0.0568
20255TIP3    H282257   1.092   2.049  44.579 -1.1844 -0.0406 -0.7274
20256TIP3   OH282258   2.471   0.154  48.488 -0.5724  0.0331  0.4045
20256TIP3    H182259   2.544   0.128  48.545 -0.6453 -0.4717  0.2773
20256TIP3    H282260   2.513   0.200  48.415 -0.1016 -2.2693 -0.8809
20257TIP3   OH282261   2.298   1.338   4.509  0.0889  0.7263 -0.0779
20257TIP3    H182262   2.336   1.346   4.421 -0.4711  1.3460 -0.2698
20257TIP3    H282263   2.259   1.424   4.526  1.1073  0.9669  1.2049
20258TIP3   OH282264   2.473   2.573  54.766  0.2600  0.3769  0.1596
20258TIP3    H182265   2.498   2.597  54.677 -0.1705  1.7211  0.3828
20258TIP3    H282266   2.556   2.560  54.812  0.4876  0.0832 -0.3306
20259TIP3   OH282267   1.236   3.298   9.035  0.5612  0.0754  0.6127
20259TIP3    H182268   1.266   3.383   9.002 -0.3482  0.3152  0.3671
20259TIP3    H282269   1.296   3.235   8.996  1.5174  0.6268  1.1362
20260TIP3   OH282270   2.849   1.572   3.855  0.0602  0.1443  0.1506
20260TIP3    H182271   2.891   1.626   3.788 -0.9648  3.3790  1.9261
20260TIP3    H282272   2.919   1.514   3.885  1.5492  1.1532 -1.1521
20261TIP3   OH282273   0.591   0.189  53.768 -0.6000  0.2116 -0.2440
20261TIP3    H182274   0.628   0.103  53.789  1.7127  1.2574  0.2779
20261TIP3    H282275   0.587   0.235  53.853  1.0519  1.6293 -0.8816
20262TIP3   OH282276   1.363   3.186  58.311  0.0608  0.6475  0.0442
20262TIP3    H182277   1.373   3.093  58.331 -1.6091  0.4841  0.2688
20262TIP3    H282278   1.404   3.231  58.385  1.0526  0.1063 -0.1570
20263LIG     O182279   1.611   1.509   5.100 -0.1597 -0.1722 -0.0052
20263LIG     O282280   1.428   1.637   5.185 -0.1026 -0.3519 -0.5915
20263LIG     O382281   1.564   1.805   5.272  0.5059  0.2545  0.1400
20263LIG     O482282   1.390   1.288   5.112  0.5761  0.2684 -0.9665
20263LIG     O582283   1.560   1.260   5.353  0.3642 -0.3652 -0.1051
20263LIG     O682284   1.304   1.851   5.019 -0.8836  0.3530 -0.6821
20263LIG     O782285   1.208   1.781   5.286  0.0178  0.0225  0.0048
20263LIG     O882286   1.316   1.945   5.506 -0.5291  0.0528  0.0897
20263LIG     O982287   1.272   1.573   4.952  0.1170 -0.2792 -0.1303
20263LIG    O1082288   1.775   1.583   5.330 -0.2338  0.5023 -0.7377
20263LIG    O1182289   1.560   1.836   5.644 -0.2097 -0.1632  0.4792
20263LIG     C182290   1.472   1.528   5.105  0.4964 -0.4135 -0.1052
20263LIG     C282291   1.424   1.406   5.194 -0.2153 -0.2182 -0.2934
20263LIG     C382292   1.543   1.388   5.286  0.2278  0.3674  0.2332
20263LIG     C482293   1.659   1.419   5.199 -0.1769  0.4825  0.2674
20263LIG     C582294   1.487   1.760   5.164 -0.2120 -0.7436 -0.4590
20263LIG     C682295   1.378   1.869   5.138 -0.1048 -0.3620 -0.0391
20263LIG     C782296   1.292   1.892   5.265 -0.4289 -0.2791  0.0138
20263LIG     C882297   1.387   1.923   5.382 -0.6374 -0.1963 -0.7284
20263LIG     C982298   1.499   1.816   5.400  0.7080 -0.9000 -0.6500
20263LIG    C1082299   1.408   1.538   4.963  0.1452  0.4610 -0.2658
20263LIG    C1182300   1.787   1.459   5.269  0.4827  0.3872  0.4851
20263LIG    C1282301   1.602   1.864   5.510 -0.1824 -0.2158  0.5474
20263LIG     H182302   1.333   1.428   5.253  2.1261  3.1503  2.4552
20263LIG     H282303   1.533   1.471   5.358 -0.7514  1.2714 -0.8975
20263LIG     H382304   1.687   1.337   5.132 -0.3654  2.4169 -2.3374
20263LIG     H482305   1.547   1.757   5.070  1.2565  1.6762  0.2989
20263LIG     H582306   1.435   1.959   5.107  1.8144 -1.6466 -0.3976
20263LIG     H682307   1.227   1.979   5.239  1.8865  1.0005 -1.9600
20263LIG     H782308   1.440   2.015   5.349 -0.9547 -0.1313 -1.0606
20263LIG     H882309   1.458   1.716   5.427 -0.7277  0.1346  1.3416
20263LIG     H982310   1.462   1.613   4.902  1.4592  0.8811  1.3339
20263LIG    H1082311   1.421   1.438   4.914 -0.2140  0.9662 -1.4238
20263LIG    H1182312   1.800   1.383   5.349 -0.3702 -1.0757 -0.7283
20263LIG    H1282313   1.873   1.450   5.199  0.0434 -0.9567  0.1071
20263LIG    H1382314   1.698   1.809   5.495  0.0387  0.1476  0.6193
20263LIG    H1482315   1.612   1.972   5.488  0.8962  0.1232  2.4709
20263LIG    H1582316   1.297   1.295   5.090  0.5181 -1.0102 -1.2043
20263LIG    H1682317   1.562   1.276   5.448  1.3720 -1.1724  0.0266
20263LIG    H1782318   1.225   1.899   5.041 -0.2539  0.7549  0.7976
20263LIG    H1882319   1.269   1.708   5.287 -1.6400 -1.5057 -2.0257
20263LIG    H1982320   1.388   1.951   5.570 -0.3675  2.5050 -0.2007
20263LIG    H2082321   1.267   1.669   4.960 -0.0624 -0.3633  0.9896
20263LIG    H2182322   1.795   1.652   5.266 -0.1029  1.7950  0.6477
20263LIG    H2282323   1.631   1.874   5.696  0.9875  0.3982 -1.4696
   3.45162   3.45162  67.50969
